/*--------------------------------*- C++ -*----------------------------------*\
| =========                 |                                                 |
| \\      /  F ield         | OpenFOAM: The Open Source CFD Toolbox           |
|  \\    /   O peration     | Version:  2406                                  |
|   \\  /    A nd           | Website:  www.openfoam.com                      |
|    \\/     M anipulation  |                                                 |
\*---------------------------------------------------------------------------*/
FoamFile
{
    version     2.0;
    format      ascii;
    arch        "LSB;label=32;scalar=64";
    class       volScalarField;
    location    "0.5";
    object      epsilon;
}
// * * * * * * * * * * * * * * * * * * * * * * * * * * * * * * * * * * * * * //

dimensions      [0 2 -3 0 0 0 0];

internalField   nonuniform List<scalar> 
2268
(
0.0133214
0.0496693
0.0792824
0.101994
0.119484
0.132933
0.143195
0.15092
0.156615
0.160678
0.163406
0.165005
0.165585
0.165148
0.163574
0.160592
0.155727
0.148221
0.136887
0.119921
0.0947781
0.0586497
0.0127854
0.0220463
0.0344402
0.0466181
0.0561282
0.0633654
0.0688263
0.0729103
0.0759248
0.0781063
0.0796351
0.080644
0.0812222
0.0814156
0.0812244
0.0805971
0.0794184
0.0774911
0.0745037
0.0699827
0.0632316
0.0533132
0.0393873
0.0240023
0.0338313
0.0356087
0.0429623
0.0491349
0.0538915
0.0574652
0.0601108
0.0620401
0.0634193
0.0643744
0.0649971
0.0653482
0.0654587
0.0653289
0.0649251
0.0641737
0.0629514
0.0610714
0.0582668
0.0541796
0.0484026
0.0409164
0.0393405
0.0442203
0.0384867
0.0430024
0.0473509
0.0508113
0.0534301
0.0553646
0.0567671
0.0577622
0.058446
0.0588883
0.059135
0.0592099
0.0591141
0.0588246
0.058292
0.0574372
0.0561495
0.0542937
0.0517405
0.0484765
0.0452079
0.0540789
0.0532154
0.0415456
0.04399
0.0470551
0.0496262
0.0516042
0.0530704
0.0541307
0.0548794
0.0553908
0.0557195
0.0559016
0.055956
0.0558852
0.0556744
0.0552925
0.0546937
0.0538264
0.052661
0.0512659
0.050023
0.0505215
0.0691119
0.0610274
0.0444262
0.0452407
0.0473138
0.0492043
0.0506971
0.0518123
0.0526187
0.0531857
0.0535706
0.0538165
0.0539519
0.0539926
0.053942
0.0537926
0.053528
0.0531293
0.0525928
0.0519774
0.0515319
0.0520819
0.0565851
0.0869844
0.067844
0.04703
0.0465153
0.047789
0.049132
0.0502354
0.0510699
0.0516738
0.0520964
0.052381
0.0525612
0.0526598
0.05269
0.0526564
0.0525573
0.0523883
0.0521522
0.0518832
0.0517097
0.0520316
0.0541404
0.0632568
0.116334
0.0738125
0.0493419
0.0477197
0.048335
0.0492262
0.0500073
0.0506093
0.0510453
0.0513479
0.0515491
0.0516745
0.0517423
0.0517636
0.0517441
0.0516866
0.0515964
0.0514927
0.0514373
0.0516046
0.0524859
0.0556831
0.0692162
0.193927
0.0140466
0.0638502
0.101434
0.126314
0.142231
0.152214
0.158226
0.161446
0.162537
0.161808
0.15931
0.154886
0.148194
0.138712
0.12572
0.108239
0.0849035
0.0537758
0.0146828
0.0236264
0.0413968
0.0559708
0.0658009
0.0721415
0.0761285
0.0785305
0.0798253
0.080288
0.0800493
0.07913
0.0774584
0.0748786
0.071148
0.0659259
0.058749
0.0490121
0.036127
0.0219657
0.0380693
0.0419635
0.0499631
0.0557436
0.0596128
0.0621023
0.0636233
0.064453
0.0647596
0.064625
0.0640602
0.0630147
0.0613787
0.0589813
0.0555837
0.0508767
0.0445267
0.0365755
0.0329931
0.0519537
0.0456017
0.0493592
0.052718
0.0551834
0.0568547
0.0579072
0.0584924
0.0587132
0.0586214
0.0582215
0.0574731
0.0562917
0.0545471
0.0520625
0.0486286
0.0441008
0.0389954
0.0427035
0.0662375
0.0503254
0.0503482
0.0517941
0.0532149
0.0542967
0.0550183
0.055432
0.0555901
0.0555214
0.0552241
0.0546647
0.0537762
0.0524581
0.0505803
0.0480112
0.0447531
0.0417038
0.0511141
0.0835834
0.0557441
0.0518972
0.0516863
0.0522615
0.0528768
0.0533386
0.0536175
0.0537251
0.0536707
0.0534476
0.0530265
0.0523543
0.0513539
0.0499327
0.0480217
0.0457405
0.0443004
0.058419
0.112524
0.0616022
0.0534947
0.0518801
0.0517764
0.0520166
0.052268
0.0524371
0.0525026
0.0524587
0.0522937
0.0519822
0.0514818
0.0507346
0.0496789
0.0482961
0.0468005
0.0466676
0.0647922
0.185611
0.066635
0.0547021
0.05211
0.0515041
0.0514516
0.0515337
0.0516131
0.0516442
0.051609
0.0514925
0.0512719
0.0509139
0.0503763
0.0496227
0.0486756
0.0478265
0.0487791
0.0703709
0.0820632
0.0525246
0.0494365
0.0491925
0.0494924
0.0498499
0.0501445
0.0503578
0.0505006
0.0505901
0.0506418
0.0506676
0.050676
0.050674
0.0506699
0.05068
0.0507418
0.0509433
0.0514911
0.0528829
0.0564139
0.065951
0.0954245
0.0904632
0.0557309
0.0512175
0.0501594
0.0498978
0.0498472
0.0498412
0.0498331
0.0498145
0.0497891
0.049763
0.0497424
0.0497329
0.0497414
0.049779
0.049867
0.0500476
0.0504047
0.0511054
0.0524802
0.0551811
0.0604605
0.0704327
0.0967743
0.0580798
0.0525272
0.0508907
0.05023
0.0498853
0.0496585
0.0494844
0.0493422
0.0492265
0.0491373
0.0490762
0.0490464
0.0490533
0.0491073
0.0492278
0.0494502
0.0498371
0.0504961
0.0516023
0.053415
0.056232
0.0600888
0.101473
0.0597824
0.0534698
0.0514193
0.0504728
0.0499148
0.0495248
0.0492252
0.0489871
0.0487994
0.0486577
0.0485603
0.0485079
0.0485036
0.048555
0.0486765
0.0488928
0.0492433
0.0497867
0.0506
0.0517615
0.053288
0.0549829
0.104928
0.0610017
0.0541372
0.0517908
0.0506394
0.0499265
0.0494156
0.0490208
0.0487082
0.0484627
0.0482769
0.0481466
0.0480702
0.0480482
0.0480847
0.0481884
0.0483736
0.0486615
0.0490788
0.0496516
0.0503885
0.0512455
0.0520744
0.107431
0.0618635
0.054603
0.0520465
0.050749
0.0499237
0.0493233
0.0488565
0.0484858
0.0481938
0.0479709
0.047811
0.0477104
0.0476673
0.0476822
0.0477587
0.0479032
0.0481245
0.0484311
0.048826
0.049296
0.0497967
0.0502386
0.109215
0.0624641
0.0549238
0.0522198
0.0508186
0.0499124
0.049246
0.0487247
0.048309
0.0479796
0.0477256
0.0475395
0.0474157
0.0473504
0.0473413
0.0473878
0.0474909
0.0476516
0.0478694
0.0481382
0.0484409
0.048744
0.0489961
0.110466
0.0628766
0.0551419
0.0523357
0.0508619
0.0498977
0.0491829
0.0486207
0.04817
0.0478108
0.047531
0.0473221
0.047177
0.0470903
0.0470574
0.047075
0.0471403
0.0472502
0.0473998
0.0475804
0.0477767
0.0479655
0.0481166
0.111329
0.0631558
0.0552883
0.0524124
0.0508882
0.0498829
0.049133
0.0485402
0.0480628
0.04768
0.047379
0.0471506
0.0469867
0.0468805
0.0468259
0.0468176
0.0468506
0.0469195
0.047018
0.047137
0.0472642
0.0473838
0.0474775
0.111914
0.063342
0.0553855
0.0524627
0.0509041
0.0498701
0.0490949
0.0484795
0.0479818
0.0475804
0.0472625
0.0470178
0.0468378
0.0467146
0.0466411
0.0466107
0.0466171
0.046654
0.0467145
0.0467903
0.0468718
0.0469479
0.0470072
0.112304
0.0634645
0.0554493
0.0524956
0.0509139
0.0498599
0.0490667
0.0484349
0.0479218
0.0475063
0.0471748
0.0469169
0.0467235
0.046586
0.0464967
0.0464482
0.0464334
0.0464457
0.0464782
0.0465236
0.0465743
0.0466222
0.0466599
0.112561
0.0635441
0.0554908
0.052517
0.0509199
0.0498523
0.0490466
0.0484029
0.0478786
0.0474522
0.0471102
0.0468418
0.0466375
0.0464885
0.0463864
0.0463234
0.0462922
0.0462858
0.0462978
0.0463217
0.0463513
0.0463805
0.0464042
0.112727
0.0635951
0.0555175
0.0525309
0.0509238
0.0498471
0.0490327
0.0483806
0.047848
0.0474136
0.0470636
0.046787
0.0465743
0.0464161
0.046304
0.0462297
0.0461859
0.0461657
0.0461628
0.0461715
0.0461865
0.0462032
0.0462177
0.112834
0.0636275
0.0555346
0.05254
0.0509264
0.0498437
0.0490234
0.0483654
0.047827
0.0473867
0.0470307
0.046748
0.0465287
0.0463635
0.0462436
0.0461608
0.0461076
0.0460772
0.0460636
0.0460616
0.0460666
0.0460747
0.046083
0.112901
0.0636478
0.0555454
0.0525458
0.0509281
0.0498416
0.0490174
0.0483554
0.0478129
0.0473684
0.047008
0.0467207
0.0464965
0.0463261
0.0462004
0.0461112
0.0460511
0.0460134
0.0459922
0.0459827
0.0459807
0.045983
0.0459871
0.112944
0.0636604
0.0555522
0.0525496
0.0509294
0.0498404
0.0490136
0.0483489
0.0478036
0.0473561
0.0469926
0.046702
0.0464743
0.0463
0.0461701
0.0460763
0.0460112
0.0459683
0.0459417
0.045927
0.0459203
0.0459186
0.04592
0.11297
0.0636681
0.0555565
0.052552
0.0509304
0.0498398
0.0490113
0.0483448
0.0477976
0.0473481
0.0469824
0.0466895
0.0464593
0.0462822
0.0461493
0.0460522
0.0459836
0.045937
0.0459068
0.0458885
0.0458785
0.0458742
0.0458737
0.112986
0.0636729
0.0555591
0.0525536
0.050931
0.0498395
0.04901
0.0483424
0.0477939
0.047343
0.0469759
0.0466813
0.0464493
0.0462703
0.0461353
0.046036
0.0459649
0.0459158
0.045883
0.0458623
0.0458501
0.045844
0.0458423
0.112996
0.0636757
0.0555608
0.0525546
0.0509315
0.0498394
0.0490093
0.0483409
0.0477917
0.0473399
0.0469717
0.0466761
0.0464428
0.0462625
0.046126
0.0460252
0.0459525
0.0459016
0.0458672
0.0458448
0.0458313
0.045824
0.0458214
0.113001
0.0636775
0.0555618
0.0525553
0.0509319
0.0498394
0.0490089
0.0483401
0.0477903
0.047338
0.0469692
0.0466728
0.0464387
0.0462575
0.0461201
0.0460182
0.0459444
0.0458924
0.0458568
0.0458334
0.0458189
0.0458109
0.0458078
0.113005
0.0636785
0.0555624
0.0525557
0.0509321
0.0498395
0.0490088
0.0483397
0.0477896
0.0473368
0.0469676
0.0466708
0.0464362
0.0462544
0.0461163
0.0460137
0.0459392
0.0458865
0.0458502
0.0458261
0.045811
0.0458025
0.045799
0.113007
0.0636791
0.0555627
0.052556
0.0509323
0.0498396
0.0490087
0.0483394
0.0477891
0.0473362
0.0469667
0.0466695
0.0464347
0.0462525
0.046114
0.046011
0.045936
0.0458828
0.045846
0.0458215
0.045806
0.0457972
0.0457935
0.113008
0.0636795
0.055563
0.0525561
0.0509324
0.0498396
0.0490087
0.0483393
0.0477889
0.0473358
0.0469662
0.0466688
0.0464337
0.0462513
0.0461126
0.0460093
0.045934
0.0458805
0.0458435
0.0458187
0.0458029
0.0457939
0.0457901
0.113009
0.0636797
0.0555631
0.0525562
0.0509325
0.0498397
0.0490087
0.0483393
0.0477888
0.0473356
0.0469659
0.0466684
0.0464332
0.0462506
0.0461118
0.0460083
0.0459328
0.0458791
0.0458419
0.0458169
0.045801
0.0457919
0.0457881
0.113009
0.0636798
0.0555632
0.0525563
0.0509325
0.0498397
0.0490087
0.0483393
0.0477888
0.0473355
0.0469657
0.0466682
0.0464329
0.0462503
0.0461113
0.0460077
0.0459321
0.0458783
0.045841
0.0458159
0.0457999
0.0457907
0.0457868
0.11301
0.0636799
0.0555632
0.0525563
0.0509326
0.0498397
0.0490087
0.0483393
0.0477887
0.0473355
0.0469656
0.0466681
0.0464327
0.04625
0.046111
0.0460073
0.0459317
0.0458779
0.0458405
0.0458153
0.0457993
0.04579
0.0457861
0.11301
0.0636799
0.0555632
0.0525564
0.0509326
0.0498397
0.0490087
0.0483393
0.0477887
0.0473355
0.0469656
0.046668
0.0464327
0.0462499
0.0461108
0.0460072
0.0459315
0.0458776
0.0458402
0.045815
0.0457989
0.0457897
0.0457857
0.11301
0.06368
0.0555633
0.0525564
0.0509326
0.0498398
0.0490087
0.0483393
0.0477887
0.0473355
0.0469656
0.046668
0.0464326
0.0462499
0.0461108
0.0460071
0.0459314
0.0458775
0.04584
0.0458148
0.0457987
0.0457894
0.0457855
0.11301
0.06368
0.0555633
0.0525564
0.0509326
0.0498398
0.0490088
0.0483393
0.0477887
0.0473355
0.0469656
0.046668
0.0464326
0.0462498
0.0461107
0.046007
0.0459313
0.0458774
0.0458399
0.0458147
0.0457986
0.0457893
0.0457854
0.11301
0.06368
0.0555633
0.0525564
0.0509326
0.0498398
0.0490088
0.0483393
0.0477887
0.0473355
0.0469656
0.046668
0.0464326
0.0462498
0.0461107
0.046007
0.0459313
0.0458773
0.0458399
0.0458147
0.0457986
0.0457893
0.0457853
0.11301
0.06368
0.0555633
0.0525564
0.0509326
0.0498398
0.0490088
0.0483393
0.0477888
0.0473355
0.0469656
0.046668
0.0464326
0.0462498
0.0461107
0.046007
0.0459313
0.0458773
0.0458398
0.0458146
0.0457985
0.0457892
0.0457852
0.11301
0.06368
0.0555633
0.0525564
0.0509326
0.0498398
0.0490088
0.0483393
0.0477888
0.0473355
0.0469656
0.046668
0.0464326
0.0462498
0.0461107
0.046007
0.0459313
0.0458773
0.0458398
0.0458146
0.0457985
0.0457892
0.0457852
0.11301
0.06368
0.0555633
0.0525564
0.0509326
0.0498398
0.0490088
0.0483393
0.0477888
0.0473355
0.0469656
0.046668
0.0464326
0.0462498
0.0461107
0.046007
0.0459313
0.0458773
0.0458398
0.0458146
0.0457985
0.0457892
0.0457852
0.11301
0.06368
0.0555633
0.0525564
0.0509326
0.0498398
0.0490088
0.0483393
0.0477888
0.0473355
0.0469656
0.046668
0.0464326
0.0462498
0.0461107
0.046007
0.0459313
0.0458773
0.0458398
0.0458146
0.0457985
0.0457892
0.0457852
0.11301
0.06368
0.0555633
0.0525564
0.0509326
0.0498398
0.0490088
0.0483393
0.0477888
0.0473355
0.0469656
0.046668
0.0464326
0.0462498
0.0461107
0.0460069
0.0459313
0.0458773
0.0458398
0.0458146
0.0457984
0.0457891
0.0457852
0.11301
0.06368
0.0555633
0.0525564
0.0509326
0.0498398
0.0490088
0.0483393
0.0477888
0.0473355
0.0469656
0.046668
0.0464326
0.0462498
0.0461107
0.0460069
0.0459312
0.0458773
0.0458398
0.0458145
0.0457984
0.0457891
0.0457851
0.11301
0.06368
0.0555633
0.0525564
0.0509326
0.0498398
0.0490088
0.0483393
0.0477888
0.0473355
0.0469656
0.046668
0.0464326
0.0462498
0.0461107
0.0460069
0.0459312
0.0458773
0.0458398
0.0458145
0.0457984
0.0457891
0.0457851
0.11301
0.06368
0.0555633
0.0525564
0.0509326
0.0498398
0.0490088
0.0483393
0.0477888
0.0473355
0.0469656
0.046668
0.0464326
0.0462498
0.0461107
0.0460069
0.0459312
0.0458772
0.0458397
0.0458145
0.0457984
0.0457891
0.0457851
0.11301
0.06368
0.0555633
0.0525564
0.0509326
0.0498398
0.0490088
0.0483393
0.0477888
0.0473355
0.0469656
0.046668
0.0464326
0.0462498
0.0461107
0.0460069
0.0459312
0.0458772
0.0458397
0.0458145
0.0457984
0.045789
0.045785
0.11301
0.06368
0.0555633
0.0525564
0.0509326
0.0498398
0.0490088
0.0483393
0.0477888
0.0473355
0.0469656
0.046668
0.0464326
0.0462498
0.0461107
0.0460069
0.0459312
0.0458772
0.0458397
0.0458145
0.0457983
0.045789
0.045785
0.11301
0.06368
0.0555633
0.0525564
0.0509326
0.0498398
0.0490088
0.0483393
0.0477888
0.0473355
0.0469656
0.046668
0.0464326
0.0462498
0.0461107
0.0460069
0.0459312
0.0458772
0.0458397
0.0458145
0.0457983
0.045789
0.0457849
0.11301
0.06368
0.0555633
0.0525564
0.0509326
0.0498398
0.0490088
0.0483393
0.0477888
0.0473355
0.0469656
0.046668
0.0464326
0.0462498
0.0461107
0.0460069
0.0459312
0.0458772
0.0458397
0.0458145
0.0457983
0.045789
0.0457849
0.231561
0.179331
0.178937
0.229306
0.0827588
0.083464
0.0834269
0.0826788
0.0627554
0.0635123
0.0635079
0.0627461
0.0558831
0.0561867
0.0561869
0.0558842
0.0524591
0.0525906
0.052592
0.0524635
0.050429
0.0504938
0.0504956
0.0504343
0.0491004
0.0491359
0.0491377
0.0491059
0.0481779
0.0481991
0.0482009
0.0481835
0.0475155
0.0475288
0.0475307
0.0475211
0.0470315
0.0470404
0.0470423
0.0470373
0.0466758
0.046682
0.046684
0.0466818
0.0464149
0.0464194
0.0464214
0.046421
0.0462248
0.0462282
0.0462303
0.0462311
0.0460879
0.0460905
0.0460927
0.0460943
0.0459905
0.0459927
0.0459948
0.0459971
0.0459223
0.0459242
0.0459264
0.045929
0.0458753
0.045877
0.0458792
0.0458821
0.0458435
0.045845
0.0458473
0.0458503
0.0458224
0.0458238
0.045826
0.0458292
0.0458085
0.0458099
0.0458122
0.0458154
0.0457997
0.045801
0.0458033
0.0458065
0.0457941
0.0457954
0.0457977
0.045801
0.0457906
0.045792
0.0457942
0.0457975
0.0457886
0.0457899
0.0457921
0.0457955
0.0457873
0.0457886
0.0457909
0.0457942
0.0457866
0.0457879
0.0457902
0.0457935
0.0457862
0.0457875
0.0457897
0.0457931
0.0457859
0.0457872
0.0457895
0.0457928
0.0457858
0.0457871
0.0457894
0.0457927
0.0457857
0.045787
0.0457893
0.0457927
0.0457857
0.045787
0.0457893
0.0457926
0.0457857
0.045787
0.0457892
0.0457926
0.0457857
0.0457869
0.0457892
0.0457926
0.0457856
0.0457869
0.0457892
0.0457925
0.0457856
0.0457869
0.0457892
0.0457925
0.0457856
0.0457869
0.0457891
0.0457925
0.0457855
0.0457868
0.0457891
0.0457925
0.0457855
0.0457868
0.0457891
0.0457924
0.0457855
0.0457867
0.045789
0.0457924
0.0457854
0.0457867
0.045789
0.0457923
0.0457854
0.0457866
0.0457889
0.0457923
0.0457853
0.0457866
0.0457889
0.0457922
0.0929856
0.0641403
0.0553399
0.0523064
0.0512065
0.0508171
0.0506928
0.05066
0.0506484
0.0506266
0.0505754
0.0504763
0.0503074
0.0500471
0.0496912
0.0493146
0.0493086
0.0516927
0.0780781
0.069732
0.0594941
0.0543808
0.0519268
0.0507583
0.0502046
0.0499471
0.049835
0.0497969
0.0497975
0.0498176
0.0498435
0.0498646
0.0498774
0.0499064
0.050073
0.0508641
0.054631
0.0859133
0.0598856
0.0557547
0.0529018
0.0511748
0.0501865
0.0496395
0.04935
0.0492142
0.0491759
0.0492053
0.0492868
0.0494118
0.0495777
0.0497934
0.0501017
0.0506557
0.052012
0.0567809
0.0917898
0.0549198
0.0530543
0.0514536
0.0503045
0.049551
0.0490874
0.0488243
0.0487015
0.048682
0.0487455
0.0488816
0.049087
0.049365
0.0497327
0.0502455
0.0510778
0.0528378
0.058336
0.0961577
0.0520557
0.0511305
0.0502107
0.0494626
0.0489201
0.0485612
0.0483516
0.0482621
0.048273
0.0483732
0.0485584
0.0488297
0.0491952
0.0496776
0.0503403
0.051373
0.0534215
0.0594474
0.0993645
0.050236
0.0497415
0.0491982
0.0487152
0.0483393
0.0480802
0.0479316
0.047884
0.0479304
0.0480675
0.0482964
0.048622
0.049056
0.0496249
0.0503977
0.0515743
0.0538278
0.0602315
0.101685
0.0490002
0.0487207
0.0483925
0.0480828
0.0478315
0.0476574
0.0475671
0.0475625
0.0476449
0.0478172
0.0480843
0.0484546
0.0489422
0.0495764
0.0504298
0.0517091
0.0541069
0.0607772
0.103339
0.0481241
0.0479603
0.0477598
0.0475641
0.0474038
0.0472981
0.047259
0.0472943
0.0474104
0.0476145
0.0479145
0.0483212
0.0488506
0.0495339
0.0504459
0.0517981
0.0542962
0.0611518
0.104498
0.047487
0.0473897
0.047268
0.0471485
0.0470538
0.0470017
0.0470052
0.0470752
0.0472213
0.047453
0.0477807
0.0482168
0.0487786
0.0494985
0.0504529
0.0518562
0.0544233
0.0614053
0.105298
0.0470179
0.046961
0.0468896
0.0468217
0.0467746
0.0467634
0.0468013
0.0469003
0.0470717
0.0473268
0.0476773
0.0481367
0.0487234
0.0494704
0.0504551
0.0518939
0.0545076
0.0615746
0.105841
0.0466716
0.0466402
0.0466019
0.0465695
0.0465566
0.0465763
0.0466413
0.0467638
0.046956
0.0472302
0.047599
0.0480766
0.0486821
0.049449
0.0504552
0.0519183
0.054563
0.0616862
0.106204
0.0464168
0.046402
0.0463859
0.0463782
0.0463899
0.0464327
0.0465186
0.0466597
0.0468685
0.0471578
0.047541
0.0480327
0.0486522
0.0494334
0.0504546
0.0519341
0.0545991
0.0617589
0.106444
0.0462308
0.0462271
0.0462261
0.0462356
0.0462651
0.046325
0.0464265
0.0465819
0.0468036
0.0471048
0.047499
0.0480012
0.048631
0.0494225
0.050454
0.0519443
0.0546225
0.0618057
0.1066
0.0460966
0.0461004
0.0461098
0.0461313
0.0461735
0.0462457
0.046359
0.0465251
0.0467566
0.0470667
0.0474692
0.0479792
0.0486164
0.049415
0.0504535
0.051951
0.0546376
0.0618355
0.1067
0.0460011
0.04601
0.0460265
0.0460565
0.0461075
0.0461887
0.0463105
0.0464845
0.0467233
0.04704
0.0474485
0.0479642
0.0486066
0.0494102
0.0504533
0.0519553
0.0546472
0.0618543
0.106764
0.0459342
0.0459466
0.0459679
0.0460037
0.046061
0.0461485
0.0462764
0.0464561
0.0467001
0.0470217
0.0474346
0.0479542
0.0486003
0.0494071
0.0504533
0.0519582
0.0546533
0.0618661
0.106804
0.0458881
0.0459028
0.0459275
0.0459672
0.0460288
0.0461207
0.0462529
0.0464367
0.0466844
0.0470093
0.0474253
0.0479476
0.0485962
0.0494052
0.0504534
0.0519601
0.0546571
0.0618734
0.10683
0.0458569
0.0458732
0.0459
0.0459424
0.046007
0.046102
0.0462371
0.0464237
0.046674
0.0470012
0.0474193
0.0479435
0.0485937
0.0494041
0.0504535
0.0519614
0.0546595
0.0618779
0.106845
0.0458362
0.0458535
0.0458818
0.0459259
0.0459925
0.0460895
0.0462267
0.0464151
0.0466672
0.046996
0.0474155
0.0479409
0.0485922
0.0494035
0.0504537
0.0519622
0.054661
0.0618807
0.106855
0.0458226
0.0458406
0.0458698
0.0459152
0.045983
0.0460814
0.0462199
0.0464096
0.0466629
0.0469927
0.0474131
0.0479394
0.0485913
0.0494032
0.0504538
0.0519628
0.054662
0.0618823
0.10686
0.0458139
0.0458323
0.0458622
0.0459083
0.045977
0.0460762
0.0462156
0.0464062
0.0466602
0.0469907
0.0474117
0.0479385
0.0485908
0.0494031
0.050454
0.0519631
0.0546626
0.0618834
0.106864
0.0458084
0.0458271
0.0458574
0.045904
0.0459732
0.046073
0.0462129
0.046404
0.0466585
0.0469895
0.0474109
0.047938
0.0485906
0.0494031
0.0504541
0.0519634
0.0546629
0.061884
0.106866
0.0458051
0.0458239
0.0458544
0.0459013
0.0459709
0.046071
0.0462113
0.0464028
0.0466575
0.0469888
0.0474104
0.0479377
0.0485905
0.049403
0.0504542
0.0519635
0.0546632
0.0618843
0.106867
0.045803
0.045822
0.0458526
0.0458997
0.0459695
0.0460699
0.0462104
0.046402
0.046657
0.0469884
0.0474102
0.0479375
0.0485904
0.0494031
0.0504542
0.0519636
0.0546633
0.0618845
0.106868
0.0458018
0.0458208
0.0458516
0.0458988
0.0459687
0.0460692
0.0462098
0.0464016
0.0466567
0.0469882
0.04741
0.0479375
0.0485904
0.0494031
0.0504543
0.0519637
0.0546634
0.0618847
0.106868
0.0458011
0.0458202
0.045851
0.0458982
0.0459682
0.0460688
0.0462095
0.0464013
0.0466565
0.0469881
0.0474099
0.0479374
0.0485904
0.0494031
0.0504543
0.0519637
0.0546634
0.0618847
0.106869
0.0458007
0.0458198
0.0458506
0.0458979
0.0459679
0.0460686
0.0462093
0.0464012
0.0466564
0.046988
0.0474099
0.0479374
0.0485904
0.0494031
0.0504543
0.0519638
0.0546634
0.0618848
0.106869
0.0458005
0.0458196
0.0458504
0.0458977
0.0459678
0.0460684
0.0462092
0.0464011
0.0466563
0.046988
0.0474099
0.0479374
0.0485904
0.0494031
0.0504543
0.0519638
0.0546635
0.0618848
0.106869
0.0458003
0.0458195
0.0458503
0.0458977
0.0459677
0.0460684
0.0462092
0.0464011
0.0466563
0.046988
0.0474099
0.0479374
0.0485904
0.0494031
0.0504544
0.0519638
0.0546635
0.0618848
0.106869
0.0458003
0.0458194
0.0458503
0.0458976
0.0459677
0.0460683
0.0462092
0.0464011
0.0466563
0.046988
0.0474099
0.0479374
0.0485904
0.0494031
0.0504544
0.0519638
0.0546635
0.0618848
0.106869
0.0458002
0.0458194
0.0458502
0.0458976
0.0459676
0.0460683
0.0462091
0.0464011
0.0466563
0.046988
0.0474099
0.0479374
0.0485904
0.0494031
0.0504544
0.0519638
0.0546635
0.0618848
0.106869
0.0458002
0.0458193
0.0458502
0.0458976
0.0459676
0.0460683
0.0462091
0.0464011
0.0466563
0.046988
0.0474099
0.0479374
0.0485904
0.0494031
0.0504544
0.0519638
0.0546635
0.0618848
0.106869
0.0458002
0.0458193
0.0458502
0.0458975
0.0459676
0.0460683
0.0462091
0.0464011
0.0466563
0.046988
0.0474099
0.0479374
0.0485904
0.0494031
0.0504544
0.0519638
0.0546635
0.0618848
0.106869
0.0458002
0.0458193
0.0458502
0.0458975
0.0459676
0.0460683
0.0462091
0.0464011
0.0466563
0.046988
0.0474099
0.0479374
0.0485904
0.0494031
0.0504544
0.0519638
0.0546635
0.0618848
0.106869
0.0458001
0.0458193
0.0458502
0.0458975
0.0459676
0.0460683
0.0462091
0.046401
0.0466563
0.046988
0.0474099
0.0479374
0.0485904
0.0494031
0.0504544
0.0519638
0.0546635
0.0618848
0.106869
0.0458001
0.0458192
0.0458501
0.0458975
0.0459676
0.0460683
0.0462091
0.046401
0.0466563
0.046988
0.0474099
0.0479374
0.0485904
0.0494031
0.0504544
0.0519638
0.0546635
0.0618848
0.106869
0.0458001
0.0458192
0.0458501
0.0458975
0.0459676
0.0460683
0.0462091
0.046401
0.0466563
0.046988
0.0474099
0.0479374
0.0485904
0.0494031
0.0504544
0.0519638
0.0546635
0.0618848
0.106869
0.0458
0.0458192
0.0458501
0.0458975
0.0459676
0.0460683
0.0462091
0.046401
0.0466563
0.046988
0.0474099
0.0479374
0.0485904
0.0494031
0.0504544
0.0519638
0.0546635
0.0618848
0.106869
0.0458
0.0458192
0.0458501
0.0458974
0.0459675
0.0460683
0.0462091
0.046401
0.0466563
0.046988
0.0474099
0.0479374
0.0485904
0.0494031
0.0504544
0.0519638
0.0546635
0.0618848
0.106869
0.0458
0.0458191
0.04585
0.0458974
0.0459675
0.0460682
0.0462091
0.046401
0.0466563
0.0469879
0.0474099
0.0479374
0.0485904
0.0494031
0.0504544
0.0519638
0.0546635
0.0618848
0.106869
0.0457999
0.0458191
0.04585
0.0458974
0.0459675
0.0460682
0.0462091
0.046401
0.0466563
0.0469879
0.0474099
0.0479374
0.0485904
0.0494031
0.0504544
0.0519638
0.0546635
0.0618848
0.106869
0.0457999
0.0458191
0.04585
0.0458974
0.0459675
0.0460682
0.0462091
0.046401
0.0466563
0.0469879
0.0474099
0.0479374
0.0485904
0.0494031
0.0504544
0.0519638
0.0546635
0.0618848
0.106869
)
;

boundaryField
{
    leftWall
    {
        type            epsilonWallFunction;
        blending        stepwise;
        value           nonuniform List<scalar> 
50
(
0.0133214
0.0220463
0.0338313
0.0442203
0.0532154
0.0610274
0.067844
0.0738125
0.0820632
0.0904632
0.0967743
0.101473
0.104928
0.107431
0.109215
0.110466
0.111329
0.111914
0.112304
0.112561
0.112727
0.112834
0.112901
0.112944
0.11297
0.112986
0.112996
0.113001
0.113005
0.113007
0.113008
0.113009
0.113009
0.11301
0.11301
0.11301
0.11301
0.11301
0.11301
0.11301
0.11301
0.11301
0.11301
0.11301
0.11301
0.11301
0.11301
0.11301
0.11301
0.11301
)
;
    }
    rightWall
    {
        type            epsilonWallFunction;
        blending        stepwise;
        value           nonuniform List<scalar> 
50
(
0.0146828
0.0219657
0.0329931
0.0427035
0.0511141
0.058419
0.0647922
0.0703709
0.0780781
0.0859133
0.0917898
0.0961577
0.0993645
0.101685
0.103339
0.104498
0.105298
0.105841
0.106204
0.106444
0.1066
0.1067
0.106764
0.106804
0.10683
0.106845
0.106855
0.10686
0.106864
0.106866
0.106867
0.106868
0.106868
0.106869
0.106869
0.106869
0.106869
0.106869
0.106869
0.106869
0.106869
0.106869
0.106869
0.106869
0.106869
0.106869
0.106869
0.106869
0.106869
0.106869
)
;
    }
    lowerWall
    {
        type            epsilonWallFunction;
        blending        stepwise;
        value           nonuniform List<scalar> 
62
(
0.0133214
0.0496693
0.0792824
0.101994
0.119484
0.132933
0.143195
0.15092
0.156615
0.160678
0.163406
0.165005
0.165585
0.165148
0.163574
0.160592
0.155727
0.148221
0.136887
0.119921
0.0947781
0.0586497
0.0127854
0.0127854
0.0240023
0.0393405
0.0540789
0.0691119
0.0869844
0.116334
0.193927
0.231561
0.179331
0.178937
0.229306
0.0140466
0.0236264
0.0380693
0.0519537
0.0662375
0.0835834
0.112524
0.185611
0.0140466
0.0638502
0.101434
0.126314
0.142231
0.152214
0.158226
0.161446
0.162537
0.161808
0.15931
0.154886
0.148194
0.138712
0.12572
0.108239
0.0849035
0.0537758
0.0146828
)
;
    }
    atmosphere
    {
        type            inletOutlet;
        inletValue      uniform 0.1;
        value           nonuniform List<scalar> 
46
(
0.11301
0.06368
0.0555633
0.0525564
0.0509326
0.0498398
0.0490088
0.0483393
0.0477888
0.0473355
0.0469656
0.046668
0.0464326
0.0462498
0.0461107
0.0460069
0.0459312
0.0458772
0.0458397
0.0458145
0.0457983
0.045789
0.0457849
0.0457853
0.0457866
0.0457889
0.0457922
0.0457999
0.0458191
0.04585
0.0458974
0.0459675
0.0460682
0.0462091
0.046401
0.0466563
0.0469879
0.0474099
0.0479374
0.0485904
0.0494031
0.0504544
0.0519638
0.0546635
0.0618848
0.106869
)
;
    }
    defaultFaces
    {
        type            empty;
    }
}


// ************************************************************************* //
