/*--------------------------------*- C++ -*----------------------------------*\
| =========                 |                                                 |
| \\      /  F ield         | OpenFOAM: The Open Source CFD Toolbox           |
|  \\    /   O peration     | Version:  2406                                  |
|   \\  /    A nd           | Website:  www.openfoam.com                      |
|    \\/     M anipulation  |                                                 |
\*---------------------------------------------------------------------------*/
FoamFile
{
    version     2.0;
    format      ascii;
    arch        "LSB;label=32;scalar=64";
    class       volScalarField;
    location    "0.5";
    object      epsilon;
}
// * * * * * * * * * * * * * * * * * * * * * * * * * * * * * * * * * * * * * //

dimensions      [0 2 -3 0 0 0 0];

internalField   nonuniform List<scalar> 
2268
(
3.11056
4.22461
4.22461
4.22461
4.22461
4.22461
4.22461
4.22461
4.22461
4.22461
4.22461
4.22461
4.22461
0.0933159
0.0506931
0.07305
0.0875228
0.0949665
0.0957554
0.0893483
0.0743881
0.0488288
0.0120203
1.99652
3.53904
3.87395
3.99094
4.04704
4.07915
4.09939
4.11284
4.12192
4.12796
4.13166
4.13343
4.13343
0.124098
0.0434703
0.0479042
0.0534299
0.0564339
0.0565437
0.053431
0.0465136
0.0351907
0.0214411
1.99652
3.12319
3.57196
3.77087
3.87483
3.93633
3.9757
4.00204
4.01992
4.03183
4.03915
4.04264
4.04264
0.142527
0.0497862
0.0481671
0.0510456
0.0528523
0.0527684
0.0504595
0.0455659
0.0380127
0.0337913
1.99652
2.85875
3.32579
3.572
3.71211
3.79847
3.85491
3.89313
3.91926
3.93673
3.9475
3.95264
3.95264
0.157365
0.0565532
0.0512621
0.0524937
0.0535722
0.0533882
0.0515973
0.0480002
0.0428854
0.0451858
1.99652
2.68257
3.12893
3.39682
3.5614
3.66728
3.7382
3.78692
3.82053
3.84312
3.8571
3.86379
3.86379
0.169546
0.0626777
0.0547537
0.0547229
0.0552322
0.0549878
0.0536612
0.0512425
0.0484666
0.0567406
1.99652
2.55993
2.97193
3.24473
3.4238
3.54389
3.62645
3.68408
3.72426
3.75144
3.76833
3.77642
3.77642
0.179818
0.0680196
0.057994
0.0569047
0.0569246
0.0566383
0.0557597
0.0545473
0.0545959
0.070847
1.99652
2.47111
2.84601
3.11356
3.29936
3.4289
3.52027
3.58515
3.63088
3.66207
3.68152
3.69087
3.69087
0.1887
0.0725903
0.0607159
0.0586834
0.0582615
0.057935
0.0574681
0.0574615
0.0612105
0.0949601
1.99652
2.40455
2.74407
3.00066
3.1875
3.32242
3.42
3.49049
3.54076
3.57531
3.59697
3.60741
3.60741
0.196527
0.0763783
0.0627482
0.0598461
0.0590189
0.0586407
0.0584997
0.0594701
0.0672205
0.159363
0.0134891
0.0566084
0.0875959
0.108099
0.121355
0.129753
0.134846
0.137611
0.13863
0.138183
0.136308
0.132836
0.127424
0.119587
0.108711
0.0940275
0.0744752
0.048346
0.0142782
0.0220281
0.0387649
0.0522788
0.0613746
0.06723
0.0708949
0.0730896
0.0742743
0.0747218
0.0745638
0.0738184
0.0724056
0.0701578
0.0668239
0.0620651
0.0554394
0.0463786
0.0343107
0.0207678
0.0346828
0.0408482
0.0498297
0.0561271
0.060222
0.0627829
0.0643095
0.0651309
0.0654435
0.0653414
0.0648361
0.0638675
0.0623059
0.0599491
0.0565124
0.0516208
0.0448461
0.0360861
0.030513
0.0466432
0.045485
0.0515488
0.0561359
0.0592068
0.06115
0.0623124
0.0629378
0.0631739
0.0630914
0.0626971
0.0619401
0.0607108
0.0588328
0.0560504
0.0520262
0.0464184
0.0394222
0.0389108
0.0590786
0.0509538
0.0542464
0.0573565
0.0595993
0.0610636
0.0619512
0.0624299
0.0626068
0.0625329
0.0622103
0.0615945
0.0605907
0.0590421
0.0567163
0.0533079
0.0485402
0.0428186
0.0461846
0.0745972
0.0569094
0.0570028
0.0586887
0.0601938
0.0612471
0.0619035
0.0622598
0.0623865
0.0623172
0.0620494
0.0615439
0.0607178
0.059432
0.0574769
0.0545797
0.050525
0.0458938
0.0526367
0.101012
0.063099
0.0593103
0.0596571
0.0605132
0.0612123
0.0616714
0.0619238
0.0620077
0.0619416
0.061719
0.0613049
0.0606269
0.0595622
0.0579254
0.0554814
0.0520848
0.0485035
0.0585105
0.167158
0.0683124
0.0607002
0.0599949
0.0603266
0.0607339
0.0610301
0.0611967
0.0612453
0.0611817
0.0609965
0.0606575
0.0601017
0.0592219
0.0578584
0.0558212
0.0530519
0.0505526
0.0639829
1.99652
2.32441
2.61366
2.8485
3.03072
3.169
3.27269
3.34955
3.40535
3.44416
3.46869
3.48056
3.48056
0.207276
0.0809353
0.0646703
0.0605403
0.0591502
0.0586698
0.0588356
0.0603521
0.06606
0.0873786
1.99652
2.25443
2.49121
2.69466
2.86183
2.99522
3.09939
3.17908
3.23831
3.28019
3.30695
3.31999
3.31999
0.218263
0.0860336
0.0672127
0.0618493
0.0598329
0.0590981
0.059209
0.0604275
0.0637384
0.071162
1.99652
2.20583
2.40242
2.57749
2.72709
2.85096
2.95085
3.02929
3.08879
3.13151
3.15908
3.1726
3.1726
0.226591
0.0901774
0.0695149
0.0632309
0.0606918
0.0596501
0.059519
0.0602717
0.0621786
0.0656017
1.99652
2.17008
2.33538
2.48605
2.61835
2.73092
2.82399
2.89863
2.95623
2.99813
3.02542
3.03887
3.03887
0.233074
0.0934927
0.0714138
0.0644186
0.0614449
0.0601004
0.0596933
0.0600482
0.0611939
0.0632122
1.99652
2.14267
2.28313
2.41316
2.52956
2.6306
2.71574
2.78518
2.83953
2.8795
2.90575
2.91874
2.91874
0.238218
0.096164
0.0729439
0.0653803
0.062046
0.0604308
0.0597728
0.0598248
0.0605346
0.0619387
1.99652
2.12103
2.24141
2.35406
2.45629
2.54635
2.62335
2.68699
2.73737
2.77476
2.79946
2.81174
2.81174
0.242344
0.0983355
0.0741723
0.0661448
0.0625131
0.0606687
0.0598018
0.0596283
0.0600656
0.0611395
1.99652
2.10357
2.2075
2.30549
2.3953
2.4753
2.54446
2.60221
2.64834
2.68282
2.70573
2.71715
2.71715
0.245675
0.100114
0.0751627
0.0667535
0.0628787
0.060847
0.0598137
0.0594734
0.0597293
0.0605998
1.99652
2.08927
2.17958
2.2652
2.34423
2.41521
2.47709
2.52918
2.57108
2.60258
2.6236
2.63411
2.63411
0.248376
0.101579
0.0759672
0.0672435
0.0631718
0.0609912
0.0598293
0.059367
0.0594989
0.060237
1.99652
2.07744
2.1564
2.23155
2.3013
2.36432
2.41961
2.46645
2.50433
2.53294
2.5521
2.56169
2.56169
0.250577
0.102794
0.0766276
0.0676444
0.0634144
0.0611173
0.0598583
0.0593081
0.0593553
0.0600065
1.99652
2.0676
2.13707
2.20338
2.26515
2.32124
2.37068
2.41276
2.44694
2.47285
2.49025
2.49898
2.49898
0.252385
0.103813
0.0771781
0.0679797
0.0636219
0.0612338
0.0599022
0.0592895
0.0592796
0.0598744
1.99652
2.0594
2.12093
2.17978
2.23477
2.28487
2.3292
2.36706
2.39792
2.42138
2.43716
2.44509
2.44509
0.253893
0.104683
0.0776491
0.0682686
0.063805
0.0613445
0.059958
0.0593006
0.0592525
0.0598114
1.99652
2.05259
2.10748
2.16008
2.20934
2.25432
2.29424
2.32844
2.35637
2.37766
2.392
2.39922
2.39921
0.25519
0.105453
0.0780708
0.0685293
0.0639728
0.061451
0.0600206
0.0593305
0.0592564
0.0597924
1.99652
2.04695
2.09636
2.14376
2.18822
2.2289
2.26508
2.29613
2.32156
2.34096
2.35405
2.36064
2.36063
0.256375
0.106182
0.078478
0.0687806
0.0641332
0.0615533
0.0600847
0.0593688
0.0592765
0.059798
1.99652
2.04235
2.08727
2.13041
2.17091
2.20804
2.2411
2.26953
2.29283
2.31064
2.32266
2.32872
2.32872
0.257587
0.106951
0.0789143
0.0690426
0.0642922
0.0616499
0.060144
0.0594062
0.059301
0.0598135
1.99652
2.03867
2.08
2.11971
2.15703
2.19128
2.22181
2.24809
2.26966
2.28616
2.29731
2.30293
2.30293
0.259057
0.107887
0.0794331
0.0693309
0.0644492
0.061734
0.0601898
0.0594335
0.0593201
0.0598284
1.99652
2.03582
2.07437
2.11142
2.14627
2.17826
2.20682
2.23142
2.25162
2.26709
2.27754
2.28282
2.28282
0.261233
0.10918
0.0800798
0.0696394
0.0645858
0.0617882
0.0602087
0.0594404
0.0593254
0.0598355
1.99652
2.03374
2.07025
2.10535
2.13838
2.16873
2.19583
2.21918
2.23838
2.25308
2.26302
2.26804
2.26804
0.265046
0.111027
0.0808074
0.0698918
0.0646452
0.061777
0.0601793
0.0594142
0.0593091
0.059829
1.99652
2.03237
2.06755
2.10138
2.13322
2.16248
2.18862
2.21116
2.22969
2.24388
2.25348
2.25833
2.25833
0.271884
0.113029
0.0811991
0.069853
0.0645104
0.0616438
0.0600746
0.0593415
0.0592644
0.0598055
1.99652
2.0317
2.06621
2.09941
2.13066
2.15938
2.18505
2.20718
2.22538
2.23932
2.24876
2.25351
2.25351
0.272632
0.111142
0.0799007
0.0690651
0.0640188
0.061328
0.0598708
0.0592131
0.0591877
0.0597634
1.99652
2.0317
2.06621
2.09941
2.13066
2.15938
2.18505
2.20718
2.22538
2.23932
2.24875
2.25351
0.370066
0.140959
0.0920738
0.0749299
0.0671615
0.0630926
0.0608126
0.0595657
0.0590302
0.0590808
0.0597045
0.171331
0.200151
0.219011
0.231494
0.240047
0.246076
0.250502
0.254073
0.257606
0.262306
0.269761
0.27093
0.140581
0.097311
0.0791558
0.0700186
0.0649362
0.0619469
0.0601708
0.0591899
0.058808
0.0589521
0.0596338
0.0567518
0.0664359
0.078901
0.0878534
0.0941322
0.0985829
0.101844
0.104429
0.106804
0.109357
0.111817
0.110248
0.091671
0.0790138
0.0711176
0.0661073
0.0628766
0.0607934
0.0594971
0.0587884
0.0585693
0.0588139
0.059558
0.0636507
0.0540402
0.0597703
0.0652454
0.0694759
0.072602
0.0749216
0.0767208
0.0782262
0.0795222
0.0802863
0.0792494
0.0745347
0.0698033
0.0660135
0.0631866
0.0611562
0.0597566
0.0588641
0.058402
0.0583372
0.0586793
0.0594846
0.0748201
0.0543654
0.0561184
0.0593328
0.0621453
0.0643229
0.0659562
0.0671915
0.0681417
0.0688236
0.069072
0.0684871
0.0667513
0.0646559
0.0626966
0.0610632
0.0597983
0.05889
0.0583151
0.0580597
0.0581297
0.0585592
0.0594201
0.0834936
0.0563909
0.0557545
0.0575062
0.0593315
0.0608137
0.0619314
0.0627532
0.0633406
0.0637035
0.0637753
0.0634322
0.0626242
0.0615749
0.0605032
0.059545
0.0587685
0.0582046
0.0578688
0.0577775
0.0579584
0.0584614
0.0593695
0.0899203
0.0583221
0.0561809
0.0569765
0.0581171
0.0590928
0.0598253
0.0603441
0.0606878
0.0608699
0.0608703
0.0606537
0.0602196
0.0596488
0.0590415
0.0584786
0.0580157
0.0576895
0.0575283
0.0575616
0.0578293
0.0583907
0.0593364
0.0946089
0.0598514
0.056731
0.0568988
0.0575705
0.058185
0.0586365
0.0589362
0.0591132
0.0591846
0.0591499
0.059002
0.0587477
0.0584221
0.0580738
0.0577497
0.0574891
0.0573249
0.0572877
0.0574123
0.0577446
0.0583499
0.0593235
0.0979859
0.0609906
0.0572244
0.0569814
0.057338
0.0577017
0.057954
0.0580984
0.0581609
0.0581608
0.0581055
0.0579962
0.0578386
0.0576492
0.0574524
0.0572754
0.0571455
0.0570899
0.0571382
0.057327
0.0577053
0.0583416
0.059334
0.100407
0.0618234
0.0576307
0.0571228
0.0572729
0.0574681
0.0575839
0.0576212
0.0576058
0.0575583
0.0574891
0.0574018
0.0572995
0.0571894
0.0570835
0.0569979
0.0569516
0.0569672
0.0570726
0.0573047
0.0577137
0.05837
0.0593732
0.102179
0.0624452
0.0579705
0.0572956
0.0573153
0.057402
0.0574281
0.0573942
0.0573268
0.0572478
0.0571689
0.0570939
0.0570238
0.0569605
0.0569095
0.0568802
0.0568864
0.0569472
0.0570891
0.0573486
0.0577765
0.0584436
0.0594499
0.103577
0.0629521
0.0582859
0.0575084
0.05745
0.0574708
0.057441
0.0573619
0.0572609
0.0571612
0.0570753
0.0570067
0.056955
0.0569191
0.0569007
0.0569051
0.056943
0.0570313
0.0571951
0.0574703
0.0579075
0.0585776
0.05958
0.104874
0.0634472
0.0586377
0.0577973
0.0576946
0.0576775
0.0576146
0.0575077
0.0573855
0.0572722
0.0571809
0.057115
0.0570731
0.0570526
0.0570525
0.0570762
0.0571322
0.0572358
0.057411
0.0576931
0.0581322
0.0587981
0.0597888
0.106385
0.0640602
0.0591165
0.0582312
0.0581011
0.0580607
0.0579764
0.0578509
0.057714
0.0575907
0.0574944
0.0574285
0.0573908
0.0573778
0.0573872
0.0574208
0.0574857
0.0575962
0.0577755
0.0580577
0.058492
0.0591466
0.0601166
0.108543
0.0649825
0.0598681
0.0589293
0.0587672
0.0587001
0.0585927
0.0584482
0.0582967
0.0581632
0.0580606
0.057992
0.0579546
0.0579439
0.0579567
0.057994
0.0580619
0.0581736
0.0583513
0.058628
0.0590511
0.0596863
0.0606247
0.112015
0.0665302
0.0611361
0.0600886
0.0598522
0.0597269
0.0595751
0.0593984
0.0592245
0.0590761
0.0589639
0.0588895
0.0588488
0.0588366
0.0588489
0.0588856
0.0589522
0.0590608
0.0592323
0.0594982
0.0599033
0.0605099
0.0614033
0.11791
0.0692489
0.0633258
0.0620166
0.0615923
0.0613301
0.0610841
0.0608457
0.060633
0.0604602
0.0603329
0.0602487
0.0602017
0.0601849
0.0601936
0.0602267
0.0602888
0.0603908
0.0605521
0.0608018
0.0611816
0.0617487
0.0625811
0.128118
0.0740835
0.0670805
0.0651528
0.064299
0.0637506
0.0633252
0.0629796
0.0627043
0.0624952
0.0623463
0.0622486
0.0621924
0.0621687
0.0621714
0.0621985
0.0622535
0.0623459
0.062493
0.062721
0.0630673
0.0635829
0.0643362
0.145921
0.0826476
0.0733315
0.0700289
0.0683095
0.0672469
0.0665317
0.0660283
0.0656685
0.065414
0.0652396
0.0651265
0.0650598
0.0650278
0.0650231
0.0650426
0.0650883
0.0651683
0.0652972
0.0654977
0.0658018
0.066253
0.0669083
0.177459
0.0976986
0.0831971
0.0770751
0.0738532
0.072027
0.0709361
0.0702518
0.0698059
0.0695099
0.0693145
0.0691893
0.0691139
0.0690745
0.0690623
0.0690732
0.0691081
0.0691731
0.0692799
0.0694469
0.0697
0.0700736
0.0706122
0.237959
0.124044
0.0973079
0.0861002
0.0808158
0.078166
0.0767525
0.0759471
0.0754598
0.0751524
0.0749552
0.0748297
0.0747529
0.0747102
0.0746925
0.0746954
0.0747187
0.0747665
0.0748473
0.0749746
0.0751676
0.075451
0.0758557
0.405008
0.16862
0.113084
0.0952842
0.0885103
0.085603
0.0842175
0.0834887
0.0830707
0.0828154
0.0826538
0.0825509
0.0824868
0.0824493
0.0824311
0.0824284
0.0824404
0.0824694
0.0825204
0.0826018
0.0827254
0.0829063
0.0831619
1.58115
0.212262
0.11688
0.100433
0.0959822
0.0944218
0.0937559
0.0934231
0.0932355
0.0931208
0.0930475
0.0929999
0.0929694
0.0929506
0.0929403
0.0929368
0.0929394
0.0929489
0.0929667
0.092996
0.0930406
0.093106
0.0931985
0.194253
0.152213
0.154104
0.202027
0.0816566
0.0828943
0.0833494
0.083136
0.0690125
0.0704271
0.0705707
0.0695882
0.0652624
0.0662464
0.0662837
0.0655255
0.0634938
0.0642504
0.0642345
0.0635871
0.062432
0.0630563
0.0630078
0.0624165
0.0617282
0.0622677
0.0621976
0.061639
0.0612581
0.0617417
0.0616565
0.0611176
0.0609577
0.0614049
0.061309
0.060781
0.0607811
0.0612048
0.061101
0.0605784
0.06069
0.0610988
0.0609893
0.0604685
0.0606536
0.0610529
0.0609392
0.0604187
0.0606482
0.0610415
0.060925
0.0604041
0.060657
0.0610467
0.0609286
0.0604075
0.0606688
0.0610569
0.0609386
0.060418
0.0606762
0.0610647
0.0609476
0.0604286
0.0606745
0.0610657
0.0609518
0.0604358
0.0606609
0.0610578
0.0609492
0.0604377
0.0606348
0.0610403
0.0609394
0.0604343
0.0605976
0.0610146
0.0609234
0.0604261
0.0605527
0.0609832
0.0609033
0.0604148
0.0605048
0.0609498
0.0608818
0.0604026
0.0604589
0.0609181
0.0608618
0.0603917
0.0604194
0.0608916
0.060846
0.0603841
0.06039
0.0608731
0.0608367
0.060382
0.0603734
0.0608651
0.0608359
0.0603871
0.060372
0.0608697
0.060846
0.0604021
0.0603892
0.0608902
0.0608704
0.0604305
0.0604299
0.0609318
0.0609146
0.0604783
0.0605032
0.0610034
0.0609876
0.0605552
0.060624
0.0611197
0.0611046
0.060677
0.0608167
0.0613045
0.0612896
0.0608686
0.0611197
0.0615953
0.0615804
0.0611688
0.0615917
0.0620498
0.0620347
0.0616368
0.06232
0.0627538
0.0627386
0.0623599
0.0634307
0.0638321
0.063817
0.0634643
0.0650996
0.0654597
0.0654449
0.0651262
0.0675657
0.067875
0.0678612
0.0675847
0.0711448
0.0713947
0.0713824
0.0711564
0.0762476
0.076431
0.076421
0.0762525
0.0834019
0.0835138
0.0835069
0.0834015
0.093282
0.0933193
0.0933162
0.0932779
0.0890513
0.066588
0.0608172
0.0593781
0.0591348
0.0591938
0.0592912
0.0593523
0.0593571
0.0592963
0.059156
0.0589083
0.0585019
0.0578528
0.0568441
0.0553659
0.0535252
0.0528009
0.0720895
0.0718803
0.06368
0.0601309
0.058708
0.0581694
0.0579764
0.0579083
0.0578764
0.0578441
0.0577928
0.0577063
0.0575606
0.0573156
0.0569082
0.0562603
0.055336
0.0543936
0.0553398
0.0802503
0.0657512
0.0616915
0.0593861
0.0581795
0.0575708
0.0572646
0.0571072
0.0570226
0.0569731
0.0569384
0.056903
0.056847
0.0567379
0.0565264
0.0561581
0.0556402
0.0553178
0.0573593
0.0860609
0.063025
0.0603698
0.0586991
0.0576927
0.0571047
0.0567656
0.0565722
0.056466
0.0564152
0.0564018
0.0564131
0.0564327
0.0564338
0.0563753
0.0562163
0.0559876
0.056084
0.0588463
0.09017
0.0615325
0.0594514
0.058115
0.0572591
0.0567217
0.0563908
0.0561938
0.056087
0.0560454
0.0560555
0.0561076
0.0561887
0.0562757
0.0563322
0.0563242
0.0562946
0.0566675
0.0599028
0.0930493
0.0605849
0.0587879
0.0576419
0.0568948
0.0564123
0.0561072
0.0559237
0.0558279
0.0558013
0.0558343
0.0559206
0.0560499
0.0562013
0.0563409
0.0564378
0.056541
0.0570926
0.0606361
0.0950403
0.0599416
0.0583062
0.0572767
0.0566074
0.0561738
0.055899
0.0557356
0.0556559
0.0556458
0.0556994
0.055813
0.0559785
0.0561763
0.0563736
0.0565408
0.0567296
0.0573938
0.0611354
0.0963959
0.059504
0.0579662
0.0570101
0.0563954
0.0560012
0.0557543
0.0556113
0.055548
0.0555534
0.0556241
0.0557585
0.0559499
0.0561798
0.0564156
0.0566278
0.0568699
0.057603
0.0614695
0.0973035
0.0592182
0.0577388
0.0568283
0.0562504
0.0558853
0.0556611
0.0555357
0.0554867
0.0555049
0.0555888
0.0557382
0.0559474
0.0561983
0.0564585
0.0566984
0.0569721
0.057746
0.0616896
0.0979013
0.0590443
0.0575982
0.0567145
0.05616
0.055815
0.0556074
0.0554955
0.0554575
0.0554854
0.0555788
0.0557383
0.055959
0.0562229
0.0564978
0.0567538
0.0570453
0.0578422
0.0618324
0.0982888
0.0589496
0.0575207
0.0566516
0.0561108
0.0557784
0.0555819
0.0554793
0.0554491
0.0554837
0.0555832
0.0557492
0.0559768
0.0562483
0.0565314
0.0567959
0.0570968
0.057906
0.0619237
0.0985362
0.058907
0.057486
0.0566237
0.0560899
0.0557647
0.0555749
0.0554781
0.0554528
0.0554916
0.0555948
0.0557644
0.0559958
0.0562714
0.0565585
0.0568272
0.0571325
0.0579479
0.0619814
0.0986921
0.0588958
0.0574776
0.0566177
0.0560868
0.055765
0.0555787
0.0554851
0.0554625
0.0555035
0.0556088
0.0557801
0.0560133
0.0562907
0.0565795
0.0568498
0.0571568
0.057975
0.0620174
0.098789
0.0589013
0.0574837
0.0566238
0.0560935
0.0557729
0.055588
0.0554957
0.0554743
0.0555163
0.0556223
0.0557943
0.056028
0.0563059
0.0565951
0.0568657
0.057173
0.0579923
0.0620396
0.0988487
0.0589138
0.0574963
0.0566355
0.0561046
0.0557838
0.055599
0.055507
0.0554858
0.0555279
0.055634
0.055806
0.0560397
0.0563174
0.0566064
0.0568767
0.0571838
0.0580032
0.0620531
0.098885
0.0589275
0.0575104
0.0566488
0.0561168
0.0557951
0.0556098
0.0555174
0.0554959
0.0555377
0.0556435
0.0558151
0.0560485
0.0563258
0.0566143
0.0568841
0.0571907
0.05801
0.0620613
0.0989069
0.0589391
0.0575236
0.0566614
0.0561283
0.0558056
0.0556194
0.0555263
0.0555042
0.0555455
0.0556508
0.055822
0.0560549
0.0563317
0.0566198
0.0568891
0.0571952
0.0580142
0.0620663
0.0989201
0.0589475
0.0575346
0.0566723
0.0561384
0.0558146
0.0556274
0.0555336
0.0555108
0.0555516
0.0556563
0.0558271
0.0560595
0.0563359
0.0566235
0.0568923
0.057198
0.0580168
0.0620692
0.098928
0.0589523
0.0575433
0.0566816
0.056147
0.0558222
0.0556341
0.0555395
0.0555161
0.0555562
0.0556605
0.0558308
0.0560628
0.0563388
0.056626
0.0568945
0.0571999
0.0580184
0.062071
0.0989327
0.0589542
0.0575501
0.0566895
0.0561544
0.0558288
0.0556398
0.0555443
0.0555203
0.0555599
0.0556637
0.0558336
0.0560652
0.0563409
0.0566278
0.056896
0.0572011
0.0580195
0.0620721
0.0989357
0.0589542
0.0575558
0.0566965
0.0561611
0.0558347
0.0556448
0.0555486
0.055524
0.0555631
0.0556665
0.055836
0.0560673
0.0563426
0.0566292
0.0568971
0.057202
0.0580203
0.0620729
0.0989379
0.0589537
0.0575611
0.0567033
0.0561677
0.0558405
0.0556498
0.0555529
0.0555276
0.0555663
0.0556692
0.0558384
0.0560693
0.0563443
0.0566306
0.0568983
0.0572029
0.058021
0.0620737
0.0989399
0.0589541
0.0575673
0.0567108
0.0561749
0.055847
0.0556555
0.0555578
0.0555319
0.0555701
0.0556726
0.0558413
0.0560719
0.0563465
0.0566324
0.0568997
0.0572041
0.0580219
0.0620746
0.0989425
0.058957
0.0575754
0.05672
0.0561838
0.055855
0.0556627
0.0555643
0.0555378
0.0555753
0.0556773
0.0558456
0.0560756
0.0563497
0.0566351
0.0569019
0.0572058
0.0580234
0.0620761
0.0989464
0.0589641
0.0575869
0.0567324
0.0561957
0.0558661
0.0556729
0.0555737
0.0555465
0.0555833
0.0556847
0.0558523
0.0560816
0.0563549
0.0566396
0.0569056
0.0572088
0.0580258
0.0620787
0.0989533
0.0589774
0.0576041
0.0567501
0.0562128
0.0558823
0.0556882
0.0555881
0.0555601
0.0555961
0.0556966
0.0558633
0.0560915
0.0563637
0.0566471
0.0569119
0.057214
0.0580302
0.0620832
0.0989654
0.0589997
0.05763
0.0567765
0.0562386
0.0559072
0.055712
0.055611
0.0555819
0.0556169
0.0557163
0.0558816
0.0561083
0.0563787
0.0566602
0.056923
0.0572232
0.058038
0.0620916
0.0989873
0.0590354
0.0576695
0.0568168
0.0562784
0.0559461
0.0557499
0.0556477
0.0556174
0.0556511
0.0557488
0.0559122
0.0561366
0.0564043
0.0566828
0.0569424
0.0572395
0.0580522
0.0621067
0.0990267
0.0590914
0.0577306
0.0568793
0.0563409
0.0560078
0.0558105
0.055707
0.0556752
0.055707
0.0558025
0.0559632
0.0561843
0.0564481
0.0567219
0.0569765
0.0572688
0.0580779
0.0621343
0.0990979
0.0591789
0.0578255
0.0569771
0.0564394
0.0561059
0.0559076
0.0558027
0.055769
0.0557984
0.055891
0.0560479
0.0562644
0.0565224
0.0567895
0.0570365
0.0573212
0.0581247
0.062185
0.0992267
0.0593155
0.0579738
0.0571306
0.056595
0.0562618
0.0560627
0.0559562
0.0559203
0.0559469
0.0560357
0.0561878
0.056398
0.0566483
0.0569058
0.0571418
0.0574151
0.0582104
0.0622785
0.09946
0.0595288
0.0582052
0.057371
0.0568398
0.0565081
0.0563088
0.0562008
0.0561626
0.0561858
0.0562701
0.0564164
0.056619
0.0568595
0.0571049
0.0573264
0.0575842
0.0583681
0.0624521
0.0998848
0.0598606
0.0585647
0.0577453
0.0572218
0.0568936
0.0566952
0.0565863
0.0565458
0.0565656
0.0566453
0.0567854
0.05698
0.0572103
0.0574427
0.0576484
0.0578886
0.0586607
0.0627778
0.100662
0.060374
0.0591189
0.0583224
0.0578115
0.0574898
0.0572941
0.0571855
0.0571436
0.0571607
0.0572365
0.0573716
0.0575603
0.0577836
0.0580081
0.0582046
0.0584352
0.0592062
0.0633954
0.102092
0.0611606
0.0599637
0.0592006
0.0587091
0.0583983
0.0582081
0.0581018
0.0580602
0.0580765
0.058151
0.058285
0.0584741
0.0587013
0.0589354
0.0591493
0.0594062
0.0602229
0.0645764
0.10474
0.0623504
0.061233
0.0605167
0.0600533
0.0597589
0.0595783
0.0594774
0.0594391
0.0594578
0.0595353
0.0596754
0.0598773
0.0601306
0.0604135
0.0607103
0.0610941
0.0620967
0.0668405
0.109648
0.0641228
0.0631094
0.0624554
0.0620303
0.0617595
0.0615934
0.0615021
0.0614708
0.0614961
0.0615826
0.0617383
0.0619706
0.0622841
0.0626825
0.0631879
0.0639189
0.0654559
0.0711368
0.118705
0.0667181
0.0658349
0.0652604
0.0648852
0.0646458
0.0645001
0.0644228
0.0644024
0.0644384
0.064539
0.0647185
0.064998
0.065409
0.066008
0.0669101
0.0683806
0.0711944
0.0790913
0.135199
0.0704518
0.0697247
0.0692473
0.0689343
0.0687349
0.0686154
0.0685562
0.0685494
0.0685975
0.0687123
0.0689158
0.0692453
0.0697702
0.0706306
0.072121
0.0748681
0.0803059
0.093345
0.165055
0.0757318
0.0751849
0.0748222
0.0745836
0.0744325
0.0743445
0.0743058
0.0743122
0.0743683
0.0744882
0.0746983
0.0750491
0.0756444
0.0767171
0.0788113
0.0832249
0.0931768
0.118082
0.222855
0.0830809
0.0827361
0.0825048
0.0823527
0.0822576
0.0822046
0.082186
0.0822003
0.0822525
0.0823549
0.0825315
0.0828302
0.0833581
0.0843799
0.0866012
0.092053
0.107292
0.158181
0.384711
0.0931664
0.0930441
0.0929612
0.0929069
0.0928738
0.0928569
0.0928539
0.0928647
0.0928921
0.0929415
0.0930238
0.0931606
0.0934027
0.0938869
0.0950403
0.0984503
0.111713
0.193264
1.44633
)
;

boundaryField
{
    leftWall
    {
        type            epsilonWallFunction;
        blending        stepwise;
        value           nonuniform List<scalar> 
50
(
3.11056
1.99652
1.99652
1.99652
1.99652
1.99652
1.99652
1.99652
1.99652
1.99652
1.99652
1.99652
1.99652
1.99652
1.99652
1.99652
1.99652
1.99652
1.99652
1.99652
1.99652
1.99652
1.99652
1.99652
1.99652
1.99652
1.99652
1.99652
0.171331
0.0567518
0.0636507
0.0748201
0.0834936
0.0899203
0.0946089
0.0979859
0.100407
0.102179
0.103577
0.104874
0.106385
0.108543
0.112015
0.11791
0.128118
0.145921
0.177459
0.237959
0.405008
1.58115
)
;
    }
    rightWall
    {
        type            epsilonWallFunction;
        blending        stepwise;
        value           nonuniform List<scalar> 
50
(
0.0142782
0.0207678
0.030513
0.0389108
0.0461846
0.0526367
0.0585105
0.0639829
0.0720895
0.0802503
0.0860609
0.09017
0.0930493
0.0950403
0.0963959
0.0973035
0.0979013
0.0982888
0.0985362
0.0986921
0.098789
0.0988487
0.098885
0.0989069
0.0989201
0.098928
0.0989327
0.0989357
0.0989379
0.0989399
0.0989425
0.0989464
0.0989533
0.0989654
0.0989873
0.0990267
0.0990979
0.0992267
0.09946
0.0998848
0.100662
0.102092
0.10474
0.109648
0.118705
0.135199
0.165055
0.222855
0.384711
1.44633
)
;
    }
    lowerWall
    {
        type            epsilonWallFunction;
        blending        stepwise;
        value           nonuniform List<scalar> 
62
(
3.11056
4.22461
4.22461
4.22461
4.22461
4.22461
4.22461
4.22461
4.22461
4.22461
4.22461
4.22461
4.22461
0.0933159
0.0506931
0.07305
0.0875228
0.0949665
0.0957554
0.0893483
0.0743881
0.0488288
0.0120203
0.0120203
0.0214411
0.0337913
0.0451858
0.0567406
0.070847
0.0949601
0.159363
0.194253
0.152213
0.154104
0.202027
0.0134891
0.0220281
0.0346828
0.0466432
0.0590786
0.0745972
0.101012
0.167158
0.0134891
0.0566084
0.0875959
0.108099
0.121355
0.129753
0.134846
0.137611
0.13863
0.138183
0.136308
0.132836
0.127424
0.119587
0.108711
0.0940275
0.0744752
0.048346
0.0142782
)
;
    }
    atmosphere
    {
        type            inletOutlet;
        inletValue      uniform 0.1;
        value           uniform 0.1;
    }
    defaultFaces
    {
        type            empty;
    }
}


// ************************************************************************* //
