/*--------------------------------*- C++ -*----------------------------------*\
| =========                 |                                                 |
| \\      /  F ield         | OpenFOAM: The Open Source CFD Toolbox           |
|  \\    /   O peration     | Version:  2406                                  |
|   \\  /    A nd           | Website:  www.openfoam.com                      |
|    \\/     M anipulation  |                                                 |
\*---------------------------------------------------------------------------*/
FoamFile
{
    version     2.0;
    format      ascii;
    arch        "LSB;label=32;scalar=64";
    class       volScalarField;
    location    "0.5";
    object      k;
}
// * * * * * * * * * * * * * * * * * * * * * * * * * * * * * * * * * * * * * //

dimensions      [0 2 -2 0 0 0 0];

internalField   nonuniform List<scalar> 
2268
(
0.00247229
0.00491442
0.00673301
0.00798346
0.00889068
0.00956406
0.0100673
0.0104419
0.0107168
0.0109131
0.0110455
0.0111242
0.0111542
0.011136
0.011064
0.0109258
0.010699
0.0103457
0.0098035
0.00896646
0.00765343
0.00554306
0.00197943
0.00467706
0.0113261
0.0151556
0.0178138
0.0197478
0.0211831
0.0222549
0.0230522
0.0236376
0.0240557
0.0243385
0.0245072
0.0245728
0.024536
0.0243854
0.0240948
0.023617
0.0228735
0.0217342
0.0199816
0.0172476
0.0128887
0.00499336
0.00624936
0.0148342
0.0195211
0.0227781
0.0251607
0.0269367
0.0282678
0.0292617
0.0299944
0.0305203
0.0308782
0.0310938
0.0311808
0.0311401
0.0309586
0.0306054
0.0300251
0.0291256
0.0277549
0.0256584
0.0223969
0.0171375
0.00697662
0.00749181
0.0174193
0.0226412
0.0262546
0.028908
0.0308942
0.0323892
0.0335102
0.0343404
0.0349394
0.0353498
0.0356
0.0357051
0.0356669
0.0354719
0.0350881
0.034458
0.033486
0.0320151
0.0297793
0.0262985
0.020551
0.00865509
0.00849323
0.0195015
0.0251303
0.0289982
0.0318436
0.0339816
0.0355973
0.0368142
0.0377196
0.0383764
0.0388298
0.0391097
0.0392327
0.0392013
0.0390031
0.0386067
0.037956
0.036958
0.0354602
0.0332005
0.0296765
0.0236739
0.0102198
0.00932034
0.0212362
0.0272042
0.0312739
0.0342689
0.0365259
0.038238
0.0395329
0.0405009
0.0412071
0.0416982
0.0420055
0.0421468
0.042126
0.0419319
0.0415356
0.0408846
0.0398925
0.0384184
0.0362172
0.0327927
0.0267806
0.0119418
0.0100159
0.0227064
0.0289692
0.0332095
0.0363286
0.0386843
0.0404772
0.0418386
0.042861
0.043611
0.0441364
0.04447
0.0446304
0.0446232
0.0444392
0.0440527
0.0434166
0.042454
0.0410404
0.0389608
0.0357683
0.0300977
0.0145319
0.0106082
0.0239654
0.0304892
0.0348793
0.0381057
0.0405466
0.0424097
0.0438296
0.0449005
0.0456903
0.0462479
0.0466069
0.0467874
0.0467964
0.0466274
0.0462585
0.0456488
0.0447327
0.0434056
0.0414923
0.0386404
0.0337834
0.0204828
0.00210671
0.00586844
0.00801017
0.00928419
0.0100577
0.0105297
0.0108094
0.0109571
0.0110047
0.0109667
0.010845
0.0106316
0.0103086
0.00984749
0.00920464
0.00831182
0.00705147
0.00518357
0.00269504
0.00529402
0.0135599
0.0179902
0.0206449
0.0222649
0.023256
0.0238437
0.0241532
0.0242513
0.0241683
0.0239084
0.0234541
0.0227672
0.0217862
0.0204172
0.0185148
0.0158334
0.0118892
0.00499959
0.00731378
0.0179489
0.0232819
0.0264474
0.028386
0.0295782
0.0302872
0.030659
0.0307721
0.0306617
0.0303319
0.0297614
0.0289036
0.0276836
0.0259876
0.0236404
0.0203493
0.0155165
0.00658591
0.00903215
0.021445
0.0272429
0.0306147
0.0326824
0.0339615
0.0347249
0.035123
0.0352367
0.0351021
0.0347223
0.0340731
0.0331033
0.0317306
0.0298308
0.027213
0.0235568
0.0181725
0.00784539
0.0106508
0.0246224
0.0306332
0.0340371
0.0361271
0.0374292
0.0382093
0.038613
0.0387182
0.038559
0.0381368
0.0374251
0.0363694
0.0348828
0.0328346
0.0300234
0.0261068
0.0203065
0.00886376
0.0124697
0.0277534
0.0337218
0.037022
0.0390593
0.0403404
0.0411112
0.0415056
0.0415951
0.0414099
0.0409491
0.0401837
0.0390568
0.0374782
0.0353126
0.0323503
0.0282279
0.0220832
0.00970621
0.0152433
0.0310403
0.03663
0.0397079
0.0416364
0.0428645
0.0436067
0.0439804
0.0440482
0.0438355
0.043338
0.0425243
0.0413355
0.0396789
0.0374152
0.0343275
0.0300319
0.0235889
0.0104152
0.0213363
0.0346009
0.0393991
0.0421628
0.0439434
0.0450956
0.0457948
0.0461389
0.0461803
0.0459384
0.0454052
0.0445471
0.0433029
0.0415777
0.039229
0.0360328
0.0315856
0.0248784
0.0110192
0.0114044
0.0256628
0.0325506
0.0371505
0.040526
0.0430847
0.0450453
0.0465471
0.0476869
0.0485341
0.0491392
0.0495373
0.0497504
0.0497883
0.0496488
0.0493166
0.0487619
0.0479371
0.0467708
0.0451535
0.0428982
0.0396094
0.0341806
0.0121955
0.0273635
0.0346414
0.0394737
0.043016
0.0457063
0.0477764
0.0493714
0.0505909
0.0515068
0.052171
0.0526209
0.0528812
0.0529659
0.052879
0.0526143
0.0521565
0.0514809
0.0505539
0.0493337
0.0477703
0.0458076
0.0434029
0.0127797
0.0286283
0.0362149
0.0412399
0.0449237
0.0477271
0.0498919
0.0515682
0.0528586
0.0538366
0.0545561
0.0550566
0.0553656
0.0555011
0.0554727
0.0552826
0.0549273
0.0543994
0.0536913
0.0528002
0.0517392
0.0505574
0.0493841
0.0132114
0.0295704
0.0374012
0.0425858
0.0463905
0.0492923
0.0515404
0.0532889
0.0546429
0.0556778
0.0564492
0.0569986
0.0573562
0.0575435
0.0575749
0.0574593
0.057202
0.0568074
0.0562827
0.0556438
0.0549239
0.054186
0.0535381
0.0135285
0.0302695
0.0382929
0.0436092
0.0475168
0.0505042
0.0528257
0.0546386
0.05605
0.057137
0.0579569
0.0585528
0.0589573
0.0591951
0.0592844
0.059239
0.0590704
0.05879
0.0584127
0.0579609
0.0574698
0.056992
0.0565994
0.0137591
0.0307844
0.0389591
0.0443832
0.048378
0.0514392
0.0538251
0.0556952
0.0571582
0.0582926
0.0591572
0.0597966
0.0602455
0.060531
0.0606741
0.0606924
0.0606012
0.060416
0.0601548
0.0598408
0.0595052
0.0591879
0.0589355
0.0139249
0.0311601
0.0394525
0.0449643
0.0490319
0.0521563
0.0545982
0.0565186
0.0580276
0.0592047
0.0601099
0.0607894
0.0612793
0.0616085
0.0618005
0.0618751
0.0618501
0.0617428
0.0615723
0.0613603
0.0611329
0.0609198
0.0607519
0.0140423
0.0314308
0.0398141
0.0453963
0.0495242
0.052702
0.0551919
0.0571561
0.0587055
0.0599206
0.0608624
0.061578
0.0621049
0.0624735
0.0627088
0.0628322
0.0628628
0.0628189
0.0627192
0.0625834
0.062433
0.0622905
0.0621774
0.0141244
0.0316235
0.0400761
0.0457142
0.0498913
0.0531135
0.055644
0.0576457
0.0592302
0.0604786
0.0614526
0.0622003
0.0627601
0.0631634
0.0634364
0.0636014
0.0636783
0.0636856
0.0636411
0.0635627
0.0634684
0.0633755
0.0632994
0.0141808
0.0317589
0.0402637
0.0459454
0.0501619
0.0534205
0.0559849
0.0580183
0.0596327
0.0609099
0.0619119
0.0626875
0.063276
0.0637093
0.0640145
0.0642145
0.0643296
0.0643779
0.0643767
0.064342
0.064289
0.0642317
0.0641818
0.0142191
0.0318526
0.0403961
0.0461115
0.0503592
0.0536471
0.0562392
0.0582989
0.0599385
0.06124
0.0622659
0.0630654
0.0636784
0.0641373
0.0644697
0.0646988
0.0648449
0.0649261
0.0649586
0.0649573
0.0649352
0.064904
0.0648728
0.0142447
0.0319167
0.0404885
0.0462294
0.0505013
0.0538124
0.0564268
0.058508
0.0601683
0.06149
0.0625359
0.0633556
0.0639892
0.0644695
0.0648244
0.0650773
0.0652486
0.0653558
0.0654147
0.0654389
0.0654401
0.0654282
0.0654107
0.0142616
0.0319599
0.0405521
0.0463119
0.0506023
0.0539315
0.0565635
0.0586619
0.0603391
0.0616773
0.0627397
0.063576
0.0642266
0.0647246
0.0650978
0.06537
0.0655614
0.0656892
0.0657685
0.0658121
0.0658309
0.0658335
0.0658261
0.0142726
0.0319887
0.0405954
0.0463691
0.0506733
0.0540163
0.056662
0.058774
0.0604645
0.0618161
0.0628918
0.0637416
0.0644059
0.0649181
0.0653062
0.0655938
0.0658009
0.0659448
0.0660399
0.0660984
0.0661304
0.0661437
0.0661438
0.0142796
0.0320077
0.0406245
0.0464082
0.0507226
0.054076
0.0567322
0.0588545
0.0605555
0.0619176
0.0630039
0.0638644
0.0645397
0.0650633
0.0654631
0.0657628
0.0659823
0.0661385
0.0662457
0.0663155
0.0663575
0.0663787
0.0663844
0.0142841
0.03202
0.0406438
0.0464346
0.0507564
0.0541175
0.0567815
0.0589118
0.0606209
0.061991
0.0630855
0.0639545
0.0646384
0.0651708
0.0655798
0.0658888
0.0661179
0.0662836
0.0663999
0.0664782
0.0665275
0.0665547
0.0665645
0.014287
0.0320279
0.0406564
0.0464523
0.0507794
0.054146
0.0568158
0.0589521
0.0606672
0.0620435
0.0631443
0.0640197
0.0647103
0.0652495
0.0656655
0.0659817
0.066218
0.0663908
0.066514
0.0665986
0.0666534
0.066685
0.0666977
0.0142888
0.032033
0.0406647
0.0464639
0.0507948
0.0541654
0.0568394
0.05898
0.0606996
0.0620806
0.0631862
0.0640664
0.064762
0.0653064
0.0657277
0.0660493
0.066291
0.0664691
0.0665974
0.0666866
0.0667455
0.0667803
0.0667951
0.0142898
0.0320362
0.04067
0.0464716
0.050805
0.0541784
0.0568554
0.0589992
0.0607221
0.0621065
0.0632156
0.0640994
0.0647988
0.0653471
0.0657723
0.0660979
0.0663435
0.0665256
0.0666576
0.0667502
0.066812
0.0668491
0.0668655
0.0142905
0.0320382
0.0406734
0.0464765
0.0508118
0.0541871
0.0568662
0.0590122
0.0607375
0.0621243
0.063236
0.0641225
0.0648246
0.0653757
0.0658038
0.0661324
0.0663809
0.0665658
0.0667005
0.0667956
0.0668594
0.0668982
0.0669157
0.0142909
0.0320395
0.0406755
0.0464797
0.0508161
0.0541928
0.0568734
0.059021
0.0607479
0.0621366
0.0632501
0.0641385
0.0648426
0.0653957
0.0658259
0.0661565
0.0664072
0.0665941
0.0667307
0.0668275
0.0668929
0.0669328
0.0669511
0.0142912
0.0320402
0.0406769
0.0464817
0.050819
0.0541966
0.0568781
0.0590268
0.0607549
0.0621448
0.0632596
0.0641494
0.0648549
0.0654095
0.0658412
0.0661733
0.0664255
0.0666138
0.0667517
0.0668498
0.0669162
0.0669569
0.0669757
0.0142913
0.0320407
0.0406777
0.046483
0.0508208
0.054199
0.0568812
0.0590307
0.0607596
0.0621503
0.063266
0.0641568
0.0648633
0.0654189
0.0658516
0.0661848
0.066438
0.0666274
0.0667662
0.0668651
0.0669322
0.0669735
0.0669927
0.0142914
0.032041
0.0406783
0.0464838
0.0508219
0.0542005
0.0568832
0.0590332
0.0607627
0.062154
0.0632703
0.0641618
0.0648689
0.0654252
0.0658587
0.0661926
0.0664465
0.0666366
0.0667761
0.0668755
0.0669431
0.0669848
0.0670042
0.0142915
0.0320411
0.0406786
0.0464843
0.0508226
0.0542015
0.0568845
0.0590348
0.0607647
0.0621564
0.0632731
0.064165
0.0648727
0.0654295
0.0658634
0.0661978
0.0664522
0.0666427
0.0667827
0.0668825
0.0669505
0.0669924
0.067012
0.0142915
0.0320413
0.0406788
0.0464846
0.0508231
0.0542022
0.0568853
0.0590359
0.0607659
0.0621579
0.063275
0.0641672
0.0648751
0.0654323
0.0658665
0.0662013
0.066456
0.0666469
0.0667871
0.0668872
0.0669554
0.0669974
0.0670172
0.0142915
0.0320413
0.0406789
0.0464848
0.0508234
0.0542025
0.0568858
0.0590365
0.0607668
0.0621589
0.0632762
0.0641686
0.0648767
0.0654341
0.0658686
0.0662036
0.0664585
0.0666496
0.06679
0.0668903
0.0669586
0.0670008
0.0670206
0.0142915
0.0320414
0.040679
0.0464849
0.0508235
0.0542028
0.0568862
0.0590369
0.0607673
0.0621596
0.063277
0.0641695
0.0648778
0.0654353
0.0658699
0.066205
0.0664601
0.0666513
0.0667919
0.0668923
0.0669607
0.0670029
0.0670228
0.0142915
0.0320414
0.040679
0.046485
0.0508236
0.0542029
0.0568864
0.0590372
0.0607676
0.06216
0.0632774
0.0641701
0.0648784
0.0654361
0.0658708
0.066206
0.0664612
0.0666525
0.0667931
0.0668936
0.0669621
0.0670044
0.0670243
0.0142915
0.0320414
0.040679
0.0464851
0.0508237
0.054203
0.0568865
0.0590374
0.0607678
0.0621602
0.0632777
0.0641704
0.0648789
0.0654365
0.0658713
0.0662066
0.0664618
0.0666532
0.0667939
0.0668944
0.0669629
0.0670053
0.0670252
0.0142915
0.0320414
0.040679
0.0464851
0.0508238
0.0542031
0.0568866
0.0590375
0.060768
0.0621604
0.0632779
0.0641707
0.0648791
0.0654368
0.0658717
0.066207
0.0664623
0.0666537
0.0667944
0.066895
0.0669635
0.0670058
0.0670258
0.0142915
0.0320414
0.040679
0.0464851
0.0508238
0.0542031
0.0568866
0.0590375
0.060768
0.0621605
0.0632781
0.0641708
0.0648793
0.065437
0.0658719
0.0662072
0.0664625
0.066654
0.0667947
0.0668953
0.0669638
0.0670062
0.0670262
0.0142915
0.0320414
0.040679
0.0464851
0.0508238
0.0542031
0.0568866
0.0590376
0.0607681
0.0621606
0.0632781
0.0641709
0.0648794
0.0654372
0.065872
0.0662074
0.0664627
0.0666541
0.0667949
0.0668955
0.066964
0.0670064
0.0670264
0.0142915
0.0320414
0.0406791
0.0464851
0.0508238
0.0542031
0.0568867
0.0590376
0.0607681
0.0621606
0.0632782
0.0641709
0.0648795
0.0654372
0.0658721
0.0662075
0.0664628
0.0666542
0.066795
0.0668956
0.0669642
0.0670065
0.0670265
0.0142915
0.0320414
0.0406791
0.0464851
0.0508238
0.0542032
0.0568867
0.0590376
0.0607681
0.0621606
0.0632782
0.064171
0.0648795
0.0654373
0.0658722
0.0662075
0.0664629
0.0666543
0.0667951
0.0668957
0.0669643
0.0670066
0.0670266
0.0142915
0.0320414
0.0406791
0.0464851
0.0508238
0.0542032
0.0568867
0.0590376
0.0607682
0.0621606
0.0632782
0.064171
0.0648795
0.0654373
0.0658722
0.0662076
0.0664629
0.0666544
0.0667951
0.0668957
0.0669643
0.0670067
0.0670266
0.0142915
0.0320414
0.0406791
0.0464851
0.0508238
0.0542032
0.0568867
0.0590376
0.0607682
0.0621606
0.0632782
0.064171
0.0648795
0.0654373
0.0658722
0.0662076
0.0664629
0.0666544
0.0667951
0.0668958
0.0669643
0.0670067
0.0670267
0.0142915
0.0320414
0.0406791
0.0464851
0.0508238
0.0542032
0.0568867
0.0590376
0.0607682
0.0621606
0.0632782
0.064171
0.0648796
0.0654373
0.0658722
0.0662076
0.0664629
0.0666544
0.0667952
0.0668958
0.0669643
0.0670067
0.0670267
0.0142915
0.0320414
0.0406791
0.0464851
0.0508238
0.0542032
0.0568867
0.0590376
0.0607682
0.0621606
0.0632782
0.064171
0.0648796
0.0654373
0.0658722
0.0662076
0.0664629
0.0666544
0.0667952
0.0668958
0.0669643
0.0670067
0.0670267
0.0142915
0.0320414
0.0406791
0.0464851
0.0508238
0.0542032
0.0568867
0.0590376
0.0607682
0.0621606
0.0632782
0.064171
0.0648796
0.0654373
0.0658722
0.0662076
0.0664629
0.0666544
0.0667952
0.0668958
0.0669643
0.0670067
0.0670266
0.0142915
0.0320414
0.0406791
0.0464851
0.0508238
0.0542032
0.0568867
0.0590376
0.0607682
0.0621606
0.0632782
0.064171
0.0648796
0.0654373
0.0658722
0.0662076
0.0664629
0.0666544
0.0667952
0.0668958
0.0669643
0.0670067
0.0670266
0.0142915
0.0320414
0.0406791
0.0464851
0.0508238
0.0542032
0.0568867
0.0590376
0.0607682
0.0621606
0.0632782
0.064171
0.0648796
0.0654373
0.0658722
0.0662076
0.0664629
0.0666544
0.0667952
0.0668958
0.0669643
0.0670067
0.0670266
0.0231968
0.0195778
0.0195489
0.0230455
0.0414182
0.0406202
0.0406086
0.0413839
0.0487499
0.0485111
0.0485041
0.0487296
0.0532448
0.0531408
0.0531342
0.0532253
0.0564336
0.056375
0.0563682
0.0564132
0.0588306
0.0587927
0.0587856
0.0588093
0.0606814
0.0606547
0.0606473
0.0606591
0.0621281
0.0621083
0.0621006
0.0621048
0.0632643
0.0632489
0.0632409
0.06324
0.0641563
0.064144
0.0641357
0.0641312
0.0648543
0.064844
0.0648355
0.0648284
0.0653971
0.0653884
0.0653796
0.0653706
0.0658161
0.0658085
0.0657995
0.065789
0.0661365
0.0661296
0.0661205
0.0661089
0.066379
0.0663727
0.0663634
0.066351
0.0665605
0.0665546
0.0665452
0.0665322
0.0666948
0.0666892
0.0666797
0.0666662
0.066793
0.0667876
0.066778
0.0667642
0.0668638
0.0668586
0.066849
0.0668349
0.0669144
0.0669093
0.0668997
0.0668854
0.0669501
0.066945
0.0669354
0.0669209
0.0669749
0.0669699
0.0669602
0.0669457
0.066992
0.066987
0.0669773
0.0669628
0.0670036
0.0669987
0.066989
0.0669744
0.0670115
0.0670065
0.0669968
0.0669822
0.0670167
0.0670117
0.067002
0.0669874
0.0670201
0.0670152
0.0670055
0.0669908
0.0670224
0.0670174
0.0670077
0.066993
0.0670238
0.0670189
0.0670092
0.0669945
0.0670247
0.0670198
0.0670101
0.0669954
0.0670253
0.0670204
0.0670107
0.066996
0.0670257
0.0670208
0.067011
0.0669964
0.0670259
0.067021
0.0670113
0.0669966
0.0670261
0.0670211
0.0670114
0.0669967
0.0670261
0.0670212
0.0670115
0.0669968
0.0670262
0.0670213
0.0670115
0.0669968
0.0670262
0.0670213
0.0670116
0.0669969
0.0670262
0.0670213
0.0670115
0.0669969
0.0670262
0.0670213
0.0670115
0.0669968
0.0670262
0.0670212
0.0670115
0.0669968
0.0670261
0.0670212
0.0670115
0.0669968
0.0670261
0.0670212
0.0670114
0.0669968
0.0345534
0.0401407
0.0434712
0.0456884
0.0472045
0.0482148
0.0488305
0.0491179
0.049112
0.0488222
0.0482344
0.047311
0.0459876
0.0441664
0.0416996
0.0383526
0.0336932
0.0266172
0.0118311
0.0434976
0.0460763
0.0481213
0.049686
0.0508367
0.0516295
0.0521076
0.0522993
0.0522175
0.0518578
0.0511975
0.0501934
0.0487768
0.0468454
0.0442453
0.0407291
0.0358335
0.0283597
0.012637
0.0493926
0.0506756
0.0519289
0.0530002
0.053836
0.0544228
0.0547607
0.054851
0.0546885
0.0542571
0.053526
0.0524465
0.0509457
0.0489172
0.0462014
0.0425402
0.0374472
0.029656
0.0132316
0.0535187
0.054223
0.0550047
0.0557262
0.0563106
0.0567177
0.0569251
0.0569165
0.0566738
0.0561715
0.0553722
0.0542221
0.0526445
0.050529
0.0477111
0.0439247
0.0386663
0.030622
0.0136703
0.0565681
0.0569824
0.0574772
0.0579547
0.0583452
0.0586025
0.0586941
0.0585938
0.0582749
0.0577048
0.0568409
0.0556252
0.0539773
0.0517837
0.0488758
0.0449815
0.0395851
0.0313396
0.0139922
0.0588974
0.0591492
0.0594618
0.0597678
0.0600105
0.0601456
0.0601377
0.0599552
0.0595661
0.058933
0.058009
0.0567329
0.0550214
0.052758
0.0497712
0.0457844
0.0402737
0.031869
0.0142261
0.0607091
0.0608612
0.061053
0.0612364
0.0613664
0.0614032
0.0613111
0.0610567
0.0606045
0.0599139
0.0589353
0.0576044
0.0558357
0.0535108
0.0504555
0.0463903
0.0407857
0.0322559
0.0143942
0.0621308
0.0622177
0.0623259
0.0624202
0.0624639
0.0624217
0.0622596
0.0619432
0.0614355
0.0606937
0.059666
0.0582862
0.0564671
0.0540885
0.0509745
0.0468436
0.0411628
0.0325356
0.0145133
0.0632498
0.0632917
0.0633405
0.0633687
0.063346
0.0632409
0.0630209
0.0626519
0.0620961
0.0613094
0.0602385
0.0588159
0.0569529
0.0545281
0.0513646
0.0471794
0.0414374
0.0327353
0.0145966
0.0641296
0.0641395
0.064145
0.0641237
0.0640495
0.0638942
0.0636269
0.0632139
0.062617
0.0617917
0.0606834
0.0592238
0.0573233
0.0548596
0.0516549
0.0474256
0.0416352
0.0328761
0.014654
0.0648185
0.0648051
0.0647785
0.0647197
0.0646057
0.0644105
0.0641048
0.0636553
0.0630241
0.062166
0.061026
0.0595351
0.057603
0.0551069
0.0518686
0.047604
0.0417759
0.0329742
0.014693
0.0653546
0.065324
0.0652734
0.065186
0.0650411
0.0648145
0.0644777
0.0639985
0.0633389
0.0624535
0.0612871
0.0597701
0.057812
0.0552894
0.0520242
0.0477318
0.0418748
0.0330416
0.0147191
0.0657684
0.065725
0.0656563
0.0655472
0.0653785
0.065127
0.0647657
0.0642625
0.0635797
0.062672
0.0614839
0.0599456
0.0579663
0.0554226
0.0521361
0.0478222
0.0419435
0.0330873
0.0147364
0.0660849
0.0660319
0.0659496
0.065824
0.0656369
0.0653662
0.0649855
0.0644632
0.0637618
0.0628361
0.0616305
0.0600752
0.0580791
0.0555188
0.0522157
0.0478855
0.0419906
0.033118
0.0147478
0.0663244
0.0662643
0.0661718
0.0660336
0.0658325
0.065547
0.0651512
0.0646139
0.0638979
0.0629579
0.0617386
0.0601697
0.0581605
0.0555873
0.0522716
0.0479292
0.0420226
0.0331384
0.0147551
0.0665037
0.0664382
0.0663381
0.0661906
0.0659788
0.065682
0.0652746
0.0647257
0.0639983
0.0630473
0.0618172
0.0602379
0.0582186
0.0556356
0.0523105
0.0479592
0.0420441
0.0331518
0.0147598
0.0666363
0.0665669
0.0664611
0.0663066
0.0660869
0.0657816
0.0653653
0.0648076
0.0640715
0.0631121
0.0618737
0.0602866
0.0582596
0.0556693
0.0523373
0.0479794
0.0420584
0.0331605
0.0147628
0.0667333
0.0666609
0.066551
0.0663913
0.0661658
0.0658541
0.0654313
0.064867
0.0641243
0.0631584
0.0619139
0.0603208
0.0582882
0.0556925
0.0523555
0.047993
0.0420677
0.0331661
0.0147647
0.0668033
0.0667288
0.0666159
0.0664525
0.0662226
0.0659062
0.0654786
0.0649093
0.0641618
0.0631912
0.0619421
0.0603447
0.0583079
0.0557083
0.0523677
0.048002
0.0420738
0.0331696
0.0147658
0.0668532
0.0667773
0.0666622
0.066496
0.066263
0.0659433
0.0655121
0.0649393
0.0641882
0.0632142
0.0619617
0.0603611
0.0583213
0.055719
0.0523759
0.0480079
0.0420778
0.0331719
0.0147666
0.0668884
0.0668114
0.0666947
0.0665267
0.0662915
0.0659693
0.0655356
0.0649602
0.0642066
0.06323
0.0619752
0.0603723
0.0583304
0.0557261
0.0523812
0.0480117
0.0420803
0.0331733
0.014767
0.0669129
0.0668351
0.0667174
0.066548
0.0663112
0.0659873
0.0655518
0.0649746
0.0642192
0.0632409
0.0619844
0.0603799
0.0583365
0.0557309
0.0523848
0.0480142
0.0420819
0.0331742
0.0147673
0.0669297
0.0668514
0.066733
0.0665626
0.0663248
0.0659997
0.0655629
0.0649844
0.0642277
0.0632482
0.0619905
0.0603849
0.0583405
0.055734
0.0523871
0.0480158
0.0420829
0.0331747
0.0147675
0.0669412
0.0668626
0.0667436
0.0665726
0.066334
0.0660081
0.0655704
0.0649911
0.0642335
0.0632531
0.0619946
0.0603882
0.0583432
0.055736
0.0523885
0.0480168
0.0420836
0.0331751
0.0147676
0.0669489
0.06687
0.0667507
0.0665793
0.0663402
0.0660137
0.0655755
0.0649955
0.0642373
0.0632563
0.0619973
0.0603904
0.0583449
0.0557373
0.0523895
0.0480174
0.042084
0.0331753
0.0147676
0.066954
0.066875
0.0667555
0.0665837
0.0663443
0.0660174
0.0655788
0.0649984
0.0642399
0.0632585
0.0619991
0.0603918
0.058346
0.0557381
0.05239
0.0480178
0.0420842
0.0331754
0.0147677
0.0669574
0.0668783
0.0667586
0.0665866
0.066347
0.0660199
0.065581
0.0650003
0.0642415
0.0632599
0.0620002
0.0603927
0.0583467
0.0557386
0.0523904
0.0480181
0.0420843
0.0331755
0.0147677
0.0669596
0.0668804
0.0667606
0.0665886
0.0663487
0.0660215
0.0655824
0.0650016
0.0642426
0.0632607
0.0620009
0.0603933
0.0583471
0.055739
0.0523907
0.0480182
0.0420844
0.0331755
0.0147677
0.0669611
0.0668818
0.066762
0.0665898
0.0663499
0.0660225
0.0655833
0.0650024
0.0642432
0.0632613
0.0620014
0.0603937
0.0583474
0.0557392
0.0523908
0.0480183
0.0420845
0.0331756
0.0147677
0.066962
0.0668827
0.0667628
0.0665906
0.0663506
0.0660232
0.0655839
0.0650029
0.0642437
0.0632617
0.0620017
0.0603939
0.0583476
0.0557393
0.0523909
0.0480184
0.0420845
0.0331756
0.0147677
0.0669626
0.0668833
0.0667633
0.0665911
0.066351
0.0660236
0.0655843
0.0650032
0.0642439
0.0632619
0.0620019
0.0603941
0.0583477
0.0557394
0.0523909
0.0480184
0.0420845
0.0331756
0.0147677
0.0669629
0.0668836
0.0667637
0.0665914
0.0663513
0.0660238
0.0655845
0.0650034
0.0642441
0.063262
0.062002
0.0603942
0.0583477
0.0557394
0.052391
0.0480184
0.0420846
0.0331756
0.0147677
0.0669632
0.0668838
0.0667639
0.0665916
0.0663515
0.066024
0.0655846
0.0650035
0.0642442
0.0632621
0.062002
0.0603942
0.0583478
0.0557394
0.052391
0.0480184
0.0420846
0.0331756
0.0147677
0.0669633
0.066884
0.066764
0.0665917
0.0663516
0.0660241
0.0655847
0.0650036
0.0642443
0.0632622
0.0620021
0.0603942
0.0583478
0.0557395
0.052391
0.0480184
0.0420846
0.0331756
0.0147677
0.0669634
0.066884
0.0667641
0.0665918
0.0663517
0.0660242
0.0655848
0.0650036
0.0642443
0.0632622
0.0620021
0.0603943
0.0583478
0.0557395
0.052391
0.0480184
0.0420846
0.0331756
0.0147677
0.0669634
0.0668841
0.0667641
0.0665918
0.0663517
0.0660242
0.0655848
0.0650037
0.0642443
0.0632622
0.0620021
0.0603943
0.0583478
0.0557395
0.052391
0.0480184
0.0420846
0.0331756
0.0147677
0.0669634
0.0668841
0.0667641
0.0665918
0.0663517
0.0660242
0.0655848
0.0650037
0.0642444
0.0632622
0.0620021
0.0603943
0.0583478
0.0557395
0.052391
0.0480184
0.0420846
0.0331756
0.0147677
0.0669634
0.0668841
0.0667641
0.0665918
0.0663518
0.0660242
0.0655848
0.0650037
0.0642444
0.0632623
0.0620021
0.0603943
0.0583478
0.0557395
0.052391
0.0480184
0.0420846
0.0331756
0.0147677
0.0669634
0.0668841
0.0667641
0.0665919
0.0663518
0.0660242
0.0655848
0.0650037
0.0642444
0.0632623
0.0620021
0.0603943
0.0583478
0.0557395
0.052391
0.0480184
0.0420846
0.0331756
0.0147677
0.0669634
0.0668841
0.0667641
0.0665918
0.0663518
0.0660242
0.0655848
0.0650037
0.0642444
0.0632623
0.0620022
0.0603943
0.0583479
0.0557395
0.052391
0.0480184
0.0420846
0.0331756
0.0147677
0.0669634
0.0668841
0.0667641
0.0665918
0.0663518
0.0660242
0.0655848
0.0650037
0.0642444
0.0632623
0.0620022
0.0603943
0.0583479
0.0557395
0.052391
0.0480184
0.0420846
0.0331756
0.0147677
0.0669634
0.0668841
0.0667641
0.0665918
0.0663518
0.0660242
0.0655848
0.0650037
0.0642444
0.0632623
0.0620022
0.0603943
0.0583479
0.0557395
0.052391
0.0480184
0.0420846
0.0331756
0.0147677
)
;

boundaryField
{
    leftWall
    {
        type            kqRWallFunction;
        value           nonuniform List<scalar> 
50
(
0.00247229
0.00467706
0.00624936
0.00749181
0.00849323
0.00932034
0.0100159
0.0106082
0.0114044
0.0121955
0.0127797
0.0132114
0.0135285
0.0137591
0.0139249
0.0140423
0.0141244
0.0141808
0.0142191
0.0142447
0.0142616
0.0142726
0.0142796
0.0142841
0.014287
0.0142888
0.0142898
0.0142905
0.0142909
0.0142912
0.0142913
0.0142914
0.0142915
0.0142915
0.0142915
0.0142915
0.0142915
0.0142915
0.0142915
0.0142915
0.0142915
0.0142915
0.0142915
0.0142915
0.0142915
0.0142915
0.0142915
0.0142915
0.0142915
0.0142915
)
;
    }
    rightWall
    {
        type            kqRWallFunction;
        value           nonuniform List<scalar> 
50
(
0.00269504
0.00499959
0.00658591
0.00784539
0.00886376
0.00970621
0.0104152
0.0110192
0.0118311
0.012637
0.0132316
0.0136703
0.0139922
0.0142261
0.0143942
0.0145133
0.0145966
0.014654
0.014693
0.0147191
0.0147364
0.0147478
0.0147551
0.0147598
0.0147628
0.0147647
0.0147658
0.0147666
0.014767
0.0147673
0.0147675
0.0147676
0.0147676
0.0147677
0.0147677
0.0147677
0.0147677
0.0147677
0.0147677
0.0147677
0.0147677
0.0147677
0.0147677
0.0147677
0.0147677
0.0147677
0.0147677
0.0147677
0.0147677
0.0147677
)
;
    }
    lowerWall
    {
        type            kqRWallFunction;
        value           nonuniform List<scalar> 
62
(
0.00247229
0.00491442
0.00673301
0.00798346
0.00889068
0.00956406
0.0100673
0.0104419
0.0107168
0.0109131
0.0110455
0.0111242
0.0111542
0.011136
0.011064
0.0109258
0.010699
0.0103457
0.0098035
0.00896646
0.00765343
0.00554306
0.00197943
0.00197943
0.00499336
0.00697662
0.00865509
0.0102198
0.0119418
0.0145319
0.0204828
0.0231968
0.0195778
0.0195489
0.0230455
0.00210671
0.00529402
0.00731378
0.00903215
0.0106508
0.0124697
0.0152433
0.0213363
0.00210671
0.00586844
0.00801017
0.00928419
0.0100577
0.0105297
0.0108094
0.0109571
0.0110047
0.0109667
0.010845
0.0106316
0.0103086
0.00984749
0.00920464
0.00831182
0.00705147
0.00518357
0.00269504
)
;
    }
    atmosphere
    {
        type            inletOutlet;
        inletValue      uniform 0.1;
        value           nonuniform List<scalar> 
46
(
0.0142915
0.0320414
0.0406791
0.0464851
0.0508238
0.0542032
0.0568867
0.0590376
0.0607682
0.0621606
0.0632782
0.064171
0.0648796
0.0654373
0.0658722
0.0662076
0.0664629
0.0666544
0.0667952
0.0668958
0.0669643
0.0670067
0.0670266
0.0670261
0.0670212
0.0670114
0.0669968
0.0669634
0.0668841
0.0667641
0.0665918
0.0663518
0.0660242
0.0655848
0.0650037
0.0642444
0.0632623
0.0620022
0.0603943
0.0583479
0.0557395
0.052391
0.0480184
0.0420846
0.0331756
0.0147677
)
;
    }
    defaultFaces
    {
        type            empty;
    }
}


// ************************************************************************* //
