/*--------------------------------*- C++ -*----------------------------------*\
| =========                 |                                                 |
| \\      /  F ield         | OpenFOAM: The Open Source CFD Toolbox           |
|  \\    /   O peration     | Version:  2406                                  |
|   \\  /    A nd           | Website:  www.openfoam.com                      |
|    \\/     M anipulation  |                                                 |
\*---------------------------------------------------------------------------*/
FoamFile
{
    version     2.0;
    format      ascii;
    arch        "LSB;label=32;scalar=64";
    class       volScalarField;
    location    "0.5";
    object      k;
}
// * * * * * * * * * * * * * * * * * * * * * * * * * * * * * * * * * * * * * //

dimensions      [0 2 -2 0 0 0 0];

internalField   nonuniform List<scalar> 
2268
(
0.1
0.1
0.1
0.1
0.1
0.1
0.1
0.1
0.1
0.1
0.1
0.1
0.1
0.00776447
0.00490341
0.00629286
0.00712074
0.00753253
0.00758361
0.00724759
0.00641643
0.00484336
0.00188699
0.1
0.1
0.1
0.1
0.1
0.1
0.1
0.1
0.1
0.1
0.1
0.1
0.1
0.00907064
0.0114183
0.0143121
0.0160574
0.0169416
0.0170542
0.016335
0.0145571
0.0112238
0.00458566
0.1
0.1
0.1
0.1
0.1
0.1
0.1
0.1
0.1
0.1
0.1
0.1
0.1
0.0112209
0.0150444
0.0185371
0.0206703
0.0217734
0.0219379
0.0210865
0.0189404
0.014856
0.00623182
0.1
0.1
0.1
0.1
0.1
0.1
0.1
0.1
0.1
0.1
0.1
0.1
0.1
0.0131199
0.017769
0.0216345
0.0240093
0.0252628
0.0254903
0.0246069
0.0222975
0.0177662
0.00758394
0.1
0.1
0.1
0.1
0.1
0.1
0.1
0.1
0.1
0.1
0.1
0.1
0.1
0.014768
0.0199984
0.0241634
0.0267281
0.0281109
0.0284202
0.0275739
0.0252332
0.0204411
0.00884744
0.1
0.1
0.1
0.1
0.1
0.1
0.1
0.1
0.1
0.1
0.1
0.1
0.1
0.0162312
0.0218995
0.0263238
0.0290546
0.0305604
0.0309723
0.0302229
0.0279733
0.0231362
0.0102829
0.1
0.1
0.1
0.1
0.1
0.1
0.1
0.1
0.1
0.1
0.1
0.1
0.1
0.0175616
0.0235662
0.0282153
0.0310961
0.0327236
0.0332573
0.0326577
0.0306242
0.0260614
0.0125339
0.1
0.1
0.1
0.1
0.1
0.1
0.1
0.1
0.1
0.1
0.1
0.1
0.1
0.0187965
0.0250547
0.0298936
0.0329092
0.0346574
0.035328
0.0349196
0.0332134
0.0293583
0.0177482
0.00204226
0.00537878
0.00721171
0.00830635
0.0089793
0.00939491
0.00964386
0.00977783
0.0098257
0.00980092
0.00970496
0.00952919
0.00925583
0.00885794
0.00829735
0.00751744
0.00642125
0.00480071
0.00263792
0.00502409
0.0124642
0.0163649
0.0187117
0.020157
0.0210494
0.0215834
0.02187
0.0219708
0.0219144
0.0217037
0.0213202
0.0207254
0.0198606
0.0186408
0.0169401
0.0145475
0.0110338
0.00479534
0.0068305
0.0165315
0.0213308
0.0241959
0.0259629
0.0270571
0.0277133
0.0280644
0.028184
0.0281056
0.0278321
0.0273406
0.0265839
0.0254891
0.0239508
0.0218118
0.0188124
0.014419
0.00622021
0.00835189
0.0198175
0.025148
0.0282729
0.0301992
0.0313964
0.0321162
0.0324997
0.0326243
0.0325246
0.0322026
0.0316324
0.0307615
0.0295084
0.0277547
0.0253229
0.0219203
0.0169274
0.00733463
0.00980619
0.0228463
0.0284816
0.0317084
0.0336974
0.03494
0.0356893
0.036086
0.0362064
0.036084
0.035719
0.0350828
0.0341192
0.0327406
0.030819
0.0281616
0.024447
0.0189735
0.00823999
0.0114868
0.0258661
0.0315616
0.0347571
0.0367355
0.0379811
0.0387351
0.0391306
0.0392397
0.0390927
0.0386874
0.0379928
0.0369496
0.0354657
0.0334056
0.0305637
0.0265928
0.0207115
0.00900704
0.0140954
0.029055
0.0344841
0.0375255
0.039435
0.0406509
0.0413902
0.0417733
0.0418652
0.0416918
0.041248
0.0405004
0.0393871
0.0378125
0.035635
0.0326385
0.0284525
0.0222215
0.00968107
0.0197615
0.032503
0.0372682
0.0400571
0.0418548
0.0430167
0.0437265
0.0440883
0.0441583
0.043957
0.0434761
0.0426798
0.0415039
0.0398499
0.0375716
0.0344441
0.0300773
0.023549
0.0102909
0.1
0.1
0.1
0.1
0.1
0.1
0.1
0.1
0.1
0.1
0.1
0.1
0.1
0.0206106
0.0271463
0.0322268
0.0354311
0.0373645
0.0382626
0.03819
0.0370802
0.0346636
0.0300734
0.1
0.1
0.1
0.1
0.1
0.1
0.1
0.1
0.1
0.1
0.1
0.1
0.1
0.0226383
0.0293415
0.0346759
0.038111
0.0402933
0.0415101
0.0418995
0.0415308
0.0404492
0.0387362
0.1
0.1
0.1
0.1
0.1
0.1
0.1
0.1
0.1
0.1
0.1
0.1
0.1
0.0243363
0.0310623
0.0366034
0.040252
0.0426708
0.0441826
0.044971
0.045171
0.0449263
0.0444579
0.1
0.1
0.1
0.1
0.1
0.1
0.1
0.1
0.1
0.1
0.1
0.1
0.1
0.025793
0.0324425
0.038145
0.0419819
0.0446116
0.0463762
0.0474823
0.0480874
0.0483481
0.0484573
0.1
0.1
0.1
0.1
0.1
0.1
0.1
0.1
0.1
0.1
0.1
0.1
0.1
0.0270594
0.033566
0.0393876
0.0433826
0.046191
0.048162
0.0495107
0.0503983
0.0509712
0.0513841
0.1
0.1
0.1
0.1
0.1
0.1
0.1
0.1
0.1
0.1
0.1
0.1
0.1
0.028166
0.0344871
0.0403908
0.0445132
0.0474673
0.0496015
0.0511322
0.0522173
0.0529909
0.0535807
0.1
0.1
0.1
0.1
0.1
0.1
0.1
0.1
0.1
0.1
0.1
0.1
0.1
0.0291336
0.0352438
0.041199
0.0454204
0.0484898
0.0507508
0.052417
0.0536417
0.054549
0.0552503
0.1
0.1
0.1
0.1
0.1
0.1
0.1
0.1
0.1
0.1
0.1
0.1
0.1
0.0299784
0.0358658
0.0418479
0.0461438
0.0493026
0.0516603
0.0534271
0.0547515
0.0557504
0.0565256
0.1
0.1
0.1
0.1
0.1
0.1
0.1
0.1
0.1
0.1
0.1
0.1
0.1
0.0307143
0.0363779
0.0423686
0.0467189
0.0499453
0.0523759
0.0542167
0.0556124
0.0566752
0.0575006
0.1
0.1
0.1
0.1
0.1
0.1
0.1
0.1
0.1
0.1
0.1
0.1
0.1
0.0313549
0.0368029
0.0427894
0.0471781
0.0504545
0.0529387
0.054833
0.0562791
0.057386
0.0582455
0.1
0.1
0.1
0.1
0.1
0.1
0.1
0.1
0.1
0.1
0.1
0.1
0.1
0.0319134
0.0371627
0.0431378
0.0475526
0.0508644
0.0533862
0.0553175
0.0567977
0.0579337
0.0588151
0.1
0.1
0.1
0.1
0.1
0.1
0.1
0.1
0.1
0.1
0.1
0.1
0.1
0.0324047
0.0374803
0.0434416
0.0478731
0.0512079
0.0537534
0.0557071
0.0572075
0.0583601
0.0592534
0.1
0.1
0.1
0.1
0.1
0.1
0.1
0.1
0.1
0.1
0.1
0.1
0.1
0.0328471
0.0377832
0.0437321
0.0481723
0.0515177
0.054073
0.0560352
0.0575426
0.0587004
0.0595963
0.1
0.1
0.1
0.1
0.1
0.1
0.1
0.1
0.1
0.1
0.1
0.1
0.1
0.0332672
0.038108
0.0440479
0.0484867
0.0518279
0.0543768
0.0563322
0.0578329
0.0589842
0.0598735
0.1
0.1
0.1
0.1
0.1
0.1
0.1
0.1
0.1
0.1
0.1
0.1
0.1
0.0337099
0.0385108
0.0444408
0.0488602
0.0521748
0.0546959
0.0566257
0.058104
0.0592362
0.060109
0.1
0.1
0.1
0.1
0.1
0.1
0.1
0.1
0.1
0.1
0.1
0.1
0.1
0.0342622
0.0390853
0.0449839
0.0493454
0.0525967
0.0550598
0.0569401
0.0583777
0.0594766
0.0603221
0.1
0.1
0.1
0.1
0.1
0.1
0.1
0.1
0.1
0.1
0.1
0.1
0.1
0.0351143
0.0399928
0.0457771
0.0500015
0.0531305
0.0554938
0.0572951
0.0586706
0.0597206
0.0605272
0.1
0.1
0.1
0.1
0.1
0.1
0.1
0.1
0.1
0.1
0.1
0.1
0.1
0.0367164
0.0414933
0.0469337
0.0508791
0.0538023
0.0560144
0.0577031
0.0589935
0.0599783
0.0607345
0.1
0.1
0.1
0.1
0.1
0.1
0.1
0.1
0.1
0.1
0.1
0.1
0.1
0.0398816
0.0438266
0.0485003
0.0519854
0.0546134
0.0566231
0.0581668
0.0593502
0.0602546
0.0609495
0.1
0.1
0.1
0.1
0.1
0.1
0.1
0.1
0.1
0.1
0.1
0.1
0.0413933
0.0416616
0.0464426
0.0502985
0.0532513
0.0555327
0.0573046
0.0586787
0.0597378
0.0605493
0.0611739
0.0192972
0.0240435
0.0272938
0.0294527
0.0309249
0.0319543
0.0327066
0.033321
0.0339523
0.0348426
0.0364822
0.0397113
0.0415919
0.0455484
0.0491999
0.0521964
0.0546002
0.0565159
0.0580331
0.0592238
0.060148
0.0608585
0.0614066
0.0088758
0.0199337
0.0255255
0.0292477
0.031895
0.0338517
0.0353614
0.0366141
0.0377975
0.039142
0.040957
0.0435131
0.046281
0.0491345
0.0517622
0.0540373
0.0559445
0.0575113
0.0587771
0.059783
0.060569
0.0611753
0.0616442
0.00954077
0.0221775
0.0285125
0.0328131
0.0359532
0.0383291
0.0401917
0.0417333
0.0431262
0.044543
0.0461502
0.0480322
0.0500413
0.0520723
0.0539939
0.0557203
0.0572149
0.058473
0.0595066
0.0603368
0.060989
0.0614928
0.0618829
0.0106623
0.0243578
0.031144
0.035766
0.0391867
0.0418092
0.0438804
0.0455829
0.0470684
0.0484692
0.0498913
0.0513842
0.0529138
0.0544333
0.0558806
0.0572037
0.058371
0.0593693
0.060199
0.0608697
0.0613977
0.0618048
0.0621199
0.0115026
0.0260675
0.0332088
0.03806
0.0416701
0.0444566
0.0466637
0.0484643
0.0499943
0.0513635
0.0526539
0.0539114
0.0551419
0.0563318
0.0574549
0.0584837
0.0593973
0.060184
0.0608409
0.0613724
0.0617892
0.0621084
0.0623544
0.0121119
0.0273547
0.0347885
0.0398244
0.0435794
0.0464867
0.0487902
0.0506569
0.0522124
0.0535543
0.0547554
0.0558624
0.0568979
0.0578672
0.0587641
0.0595776
0.0602969
0.0609149
0.0614291
0.0618425
0.0621629
0.0624045
0.0625887
0.0125523
0.0283095
0.0359835
0.0411753
0.0450505
0.0480549
0.0504338
0.0523508
0.0539256
0.0552497
0.0563915
0.0573996
0.0583043
0.059122
0.0598586
0.060514
0.0610855
0.0615709
0.0619698
0.0622852
0.0625242
0.0626991
0.0628295
0.0128693
0.0290141
0.0368846
0.042211
0.0461911
0.0492795
0.0517231
0.0536835
0.0552774
0.0565929
0.0576971
0.0586396
0.0594554
0.0601674
0.0607893
0.0613284
0.0617881
0.0621705
0.0624776
0.0627135
0.0628852
0.0630042
0.0630889
0.0130982
0.0295375
0.0375715
0.0430171
0.0470927
0.0502583
0.0527616
0.0547633
0.0563785
0.0576939
0.058776
0.0596757
0.0604308
0.0610687
0.0616082
0.0620617
0.0624373
0.0627404
0.0629756
0.0631481
0.0632652
0.0633383
0.0633851
0.0132682
0.02994
0.0381161
0.0436721
0.0478391
0.0510796
0.0536413
0.0556847
0.0573241
0.0586459
0.0597171
0.0605895
0.0613034
0.0618892
0.0623695
0.0627602
0.0630729
0.0633157
0.0634953
0.0636179
0.0636917
0.0637278
0.0637438
0.0134051
0.0302777
0.0385886
0.0442545
0.0485142
0.0518307
0.0544519
0.056538
0.058204
0.0595368
0.0606041
0.0614597
0.0621455
0.0626945
0.0631318
0.0634764
0.0637422
0.0639395
0.0640766
0.0641609
0.0642009
0.064208
0.0641996
0.0135345
0.0306095
0.0390647
0.0448502
0.0492096
0.0526063
0.0552886
0.0574179
0.0591106
0.0604557
0.0615226
0.0623668
0.0630324
0.0635544
0.06396
0.0642702
0.064501
0.0646643
0.0647694
0.0648247
0.0648391
0.0648241
0.0647971
0.0136864
0.0310063
0.0396368
0.0455633
0.0500351
0.0535169
0.0562599
0.0584291
0.0601447
0.0614988
0.0625638
0.0633974
0.0640458
0.0645458
0.0649264
0.0652102
0.0654143
0.0655519
0.0656333
0.0656673
0.0656631
0.0656322
0.0655917
0.013901
0.0315644
0.0404287
0.0465301
0.0511289
0.0546971
0.0574938
0.0596921
0.0614191
0.0627721
0.0638273
0.0646455
0.0652748
0.0657534
0.0661118
0.0663734
0.0665563
0.0666744
0.0667383
0.0667573
0.0667405
0.0666994
0.0666504
0.0142389
0.0324257
0.0416158
0.0479343
0.0526691
0.0563123
0.0591413
0.0613444
0.0630596
0.0643917
0.0654219
0.0662135
0.0668165
0.0672701
0.0676052
0.0678459
0.0680105
0.068113
0.0681643
0.0681734
0.0681495
0.0681034
0.0680508
0.0147948
0.0338041
0.043448
0.0500223
0.05488
0.0585595
0.0613744
0.0635374
0.065202
0.0664819
0.0674627
0.06821
0.0687745
0.0691953
0.0695032
0.0697215
0.0698685
0.0699577
0.0699997
0.0700034
0.0699771
0.0699312
0.0698797
0.0157179
0.036021
0.0462747
0.0531107
0.0580273
0.0616577
0.0643753
0.0664272
0.0679845
0.0691685
0.0700677
0.0707473
0.071257
0.0716343
0.0719083
0.072101
0.0722294
0.0723063
0.0723414
0.072343
0.0723186
0.0722775
0.0722318
0.01724
0.039558
0.0505675
0.0575784
0.0623965
0.0658232
0.0683163
0.0701597
0.0715376
0.0725736
0.0733536
0.0739393
0.0743759
0.0746975
0.0749299
0.0750926
0.0752005
0.075265
0.0752945
0.0752964
0.0752773
0.0752448
0.0752087
0.0197468
0.0451734
0.0569458
0.0638319
0.0682442
0.0712307
0.073333
0.0748544
0.0759755
0.0768105
0.077435
0.0779016
0.0782483
0.0785028
0.0786864
0.0788147
0.0788999
0.0789512
0.0789757
0.0789792
0.0789673
0.0789458
0.078922
0.0241129
0.0542032
0.0661684
0.0722026
0.0757129
0.077962
0.0794988
0.0805934
0.081393
0.0819856
0.0824277
0.0827574
0.0830021
0.0831818
0.0833114
0.0834022
0.0834629
0.0835001
0.0835191
0.0835243
0.0835198
0.0835097
0.0834985
0.0344744
0.0692116
0.0788489
0.0826791
0.0846995
0.0859574
0.0868139
0.0874261
0.0878752
0.0882095
0.0884596
0.0886468
0.0887861
0.0888887
0.0889629
0.0890152
0.0890506
0.089073
0.0890856
0.0890911
0.0890921
0.089091
0.0890901
0.085596
0.0932419
0.0939778
0.094398
0.0947451
0.0950212
0.0952343
0.0953968
0.0955206
0.0956148
0.0956864
0.0957406
0.0957813
0.0958115
0.0958336
0.0958494
0.0958603
0.0958676
0.0958723
0.0958754
0.0958778
0.0958804
0.0958838
0.0204033
0.0173743
0.0175342
0.0210069
0.0372551
0.0367685
0.0370378
0.0380718
0.0442537
0.0442887
0.0445619
0.045072
0.0486168
0.0487929
0.0490654
0.0494339
0.051697
0.0519288
0.0522033
0.0525207
0.053975
0.0542363
0.0545141
0.0548092
0.055694
0.0559738
0.0562552
0.0565396
0.0570019
0.0572943
0.0575792
0.0578582
0.0579992
0.0583003
0.0585882
0.0588645
0.0587591
0.0590662
0.0593563
0.059631
0.059338
0.0596487
0.0599399
0.0602131
0.0597805
0.0600926
0.0603835
0.0606548
0.060123
0.0604339
0.0607228
0.0609913
0.0603947
0.0607018
0.0609867
0.0612509
0.0606193
0.0609198
0.0611983
0.0614564
0.0608157
0.0611063
0.0613758
0.0616257
0.060998
0.0612754
0.061533
0.0617723
0.0611763
0.061437
0.0616799
0.0619062
0.0613564
0.0615974
0.0618229
0.062034
0.0615413
0.0617598
0.0619657
0.0621598
0.0617309
0.0619252
0.0621098
0.0622855
0.0619239
0.0620929
0.0622555
0.0624122
0.0621181
0.062262
0.0624025
0.0625401
0.0623123
0.0624319
0.0625512
0.0626704
0.062507
0.0626039
0.0627033
0.0628053
0.0627054
0.0627818
0.0628632
0.0629496
0.0629147
0.0629732
0.0630387
0.0631113
0.0631472
0.0631902
0.0632421
0.0633028
0.0634208
0.0634509
0.0634913
0.063542
0.0637611
0.0637805
0.0638115
0.0638541
0.0642021
0.064213
0.0642365
0.0642723
0.0647881
0.0647924
0.0648098
0.0648403
0.0655744
0.0655736
0.0655863
0.0656125
0.0666275
0.0666232
0.0666323
0.0666547
0.0680251
0.0680186
0.0680249
0.068044
0.069854
0.0698465
0.0698507
0.0698665
0.0722085
0.0722013
0.0722038
0.0722161
0.0751902
0.0751841
0.0751855
0.0751941
0.0789098
0.0789056
0.078906
0.0789109
0.083493
0.0834911
0.0834909
0.0834924
0.0890903
0.0890903
0.0890899
0.089089
0.0958864
0.0958874
0.0958872
0.0958856
0.0321537
0.0378521
0.0413324
0.0436586
0.0452423
0.0462948
0.0469421
0.0472604
0.0472905
0.0470441
0.0465073
0.0456405
0.0443763
0.0426124
0.0401971
0.0368951
0.0322911
0.0253731
0.0111649
0.0405719
0.0435556
0.0458824
0.0476337
0.0489049
0.0497775
0.0503134
0.0505537
0.0505188
0.0502078
0.049599
0.0486476
0.0472819
0.045396
0.0428327
0.0393469
0.0344981
0.0271829
0.0120215
0.0461979
0.0479732
0.0495695
0.0508737
0.0518666
0.0525617
0.0529793
0.053134
0.0530288
0.052652
0.0519743
0.0509458
0.0494911
0.0475005
0.0448124
0.0411734
0.0361229
0.0284908
0.012621
0.0501759
0.0513802
0.0525264
0.0535053
0.0542705
0.0548068
0.055111
0.05518
0.0550042
0.0545626
0.0538195
0.0527204
0.0511864
0.0491043
0.0463083
0.0425385
0.037319
0.0294335
0.013042
0.0531103
0.0540167
0.0548818
0.0556298
0.0562166
0.0566183
0.0568203
0.0568088
0.0565653
0.0560619
0.0552577
0.0540942
0.0524891
0.0503264
0.0474369
0.0435552
0.0381949
0.0301093
0.0133371
0.0553256
0.0560633
0.0567486
0.0573333
0.0577833
0.0580746
0.0581879
0.0581037
0.0577977
0.0572371
0.0563768
0.0551551
0.0534869
0.0512536
0.0482832
0.0443069
0.0388311
0.0305897
0.0135422
0.0570169
0.0576532
0.0582203
0.0586891
0.0590352
0.0592376
0.0592761
0.0591283
0.0587663
0.058154
0.0572432
0.0559696
0.0542459
0.0519514
0.0489123
0.0448571
0.0392883
0.0309273
0.0136831
0.0583132
0.0588858
0.0593734
0.0597592
0.0600268
0.0601586
0.0601352
0.0599329
0.059522
0.058864
0.0579088
0.0565897
0.054818
0.0524715
0.0493749
0.0452552
0.0396127
0.0311616
0.0137785
0.059306
0.0598372
0.0602701
0.0605961
0.0608043
0.0608806
0.0608067
0.0605587
0.060106
0.0594088
0.0584151
0.0570571
0.0552447
0.0528547
0.0497109
0.0455396
0.0398399
0.0313219
0.0138422
0.0600639
0.0605671
0.0609615
0.0612439
0.0614073
0.0614403
0.0613257
0.0610402
0.0605526
0.0598221
0.0587959
0.0574053
0.0555591
0.0531335
0.0499518
0.04574
0.0399969
0.0314301
0.0138841
0.0606398
0.0611231
0.0614899
0.0617402
0.0618697
0.0618689
0.0617221
0.0614061
0.0608898
0.0601319
0.0590789
0.0576614
0.0557878
0.0533337
0.0501222
0.0458793
0.0401038
0.0315021
0.0139112
0.0610759
0.061544
0.0618903
0.0621164
0.0622201
0.0621932
0.062021
0.0616808
0.0611414
0.0603613
0.0592866
0.0578475
0.055952
0.0534755
0.0502411
0.0459749
0.0401756
0.0315493
0.0139286
0.0614062
0.0618615
0.0621915
0.062399
0.0624828
0.0624358
0.0622437
0.0618844
0.0613266
0.0605289
0.059437
0.0579809
0.0560684
0.0535747
0.050323
0.0460395
0.0402233
0.0315799
0.0139395
0.0616582
0.0621012
0.0624174
0.0626098
0.062678
0.0626152
0.0624077
0.0620335
0.0614614
0.0606498
0.0595446
0.0580753
0.0561498
0.0536432
0.0503788
0.0460828
0.0402545
0.0315995
0.0139464
0.0618538
0.0622839
0.0625872
0.0627669
0.0628223
0.062747
0.0625273
0.0621415
0.0615583
0.0607361
0.0596206
0.0581414
0.0562061
0.0536899
0.0504162
0.0461114
0.0402748
0.0316119
0.0139506
0.0620105
0.0624259
0.0627163
0.0628843
0.0629288
0.0628433
0.0626141
0.0622192
0.0616274
0.0607971
0.0596738
0.0581871
0.0562446
0.0537215
0.0504411
0.04613
0.0402878
0.0316197
0.0139532
0.0621414
0.0625398
0.0628168
0.0629735
0.0630082
0.062914
0.0626769
0.0622749
0.0616765
0.06084
0.0597108
0.0582186
0.0562708
0.0537427
0.0504576
0.0461422
0.040296
0.0316246
0.0139548
0.0622563
0.0626353
0.0628977
0.0630429
0.0630685
0.0629666
0.0627229
0.0623151
0.0617115
0.0608702
0.0597367
0.0582403
0.0562886
0.0537569
0.0504685
0.0461501
0.0403013
0.0316276
0.0139558
0.0623621
0.0627192
0.0629657
0.0630992
0.0631158
0.0630069
0.0627575
0.0623447
0.0617369
0.0608919
0.059755
0.0582555
0.0563009
0.0537666
0.0504758
0.0461553
0.0403047
0.0316295
0.0139564
0.0624633
0.0627964
0.0630259
0.0631473
0.063155
0.0630393
0.0627847
0.0623677
0.0617564
0.0609084
0.0597687
0.0582668
0.05631
0.0537736
0.050481
0.0461589
0.040307
0.0316308
0.0139568
0.0625627
0.0628702
0.0630819
0.0631908
0.0631896
0.0630675
0.062808
0.0623872
0.0617728
0.0609221
0.0597802
0.0582761
0.0563174
0.0537793
0.0504852
0.0461618
0.0403089
0.0316317
0.013957
0.0626619
0.0629431
0.0631367
0.063233
0.063223
0.0630946
0.0628304
0.0624061
0.0617888
0.0609356
0.0597915
0.0582854
0.0563249
0.0537851
0.0504894
0.0461647
0.0403107
0.0316327
0.0139573
0.0627625
0.0630173
0.0631929
0.0632768
0.0632582
0.0631236
0.0628549
0.0624271
0.0618069
0.0609513
0.0598048
0.0582966
0.056334
0.0537922
0.0504946
0.0461683
0.0403129
0.0316339
0.0139577
0.0628664
0.0630957
0.0632539
0.0633258
0.0632988
0.0631583
0.0628851
0.0624538
0.0618306
0.0609722
0.0598231
0.0583122
0.0563469
0.0538024
0.0505024
0.0461737
0.0403164
0.0316357
0.0139582
0.0629765
0.0631821
0.0633239
0.0633845
0.0633496
0.0632033
0.0629257
0.0624907
0.0618642
0.0610025
0.05985
0.0583356
0.0563666
0.0538184
0.0505146
0.0461825
0.040322
0.0316387
0.0139591
0.0630984
0.0632822
0.0634091
0.0634593
0.063417
0.0632651
0.0629831
0.0625442
0.0619138
0.0610481
0.0598913
0.0583721
0.0563978
0.053844
0.0505346
0.046197
0.0403316
0.031644
0.0139606
0.0632402
0.0634048
0.0635184
0.0635593
0.0635101
0.063353
0.0630664
0.0626232
0.0619883
0.0611176
0.059955
0.0584292
0.0564475
0.0538856
0.0505676
0.0462215
0.040348
0.0316532
0.0139634
0.0634146
0.0635627
0.0636647
0.0636974
0.063642
0.0634797
0.0631886
0.0627406
0.0621005
0.0612235
0.0600535
0.0585188
0.0565266
0.0539528
0.0506219
0.0462624
0.040376
0.0316693
0.0139684
0.0636395
0.0637736
0.0638658
0.0638913
0.0638304
0.0636634
0.0633675
0.0629145
0.0622683
0.0613839
0.0602044
0.0586579
0.0566515
0.0540609
0.050711
0.046331
0.0404239
0.0316974
0.0139772
0.0639397
0.0640622
0.0641463
0.0641657
0.0640998
0.0639284
0.063628
0.0631697
0.062517
0.0616241
0.0604334
0.0588723
0.0568471
0.0542334
0.0508561
0.0464454
0.0405057
0.0317464
0.0139929
0.0643484
0.0644613
0.0645385
0.0645527
0.0644827
0.0643075
0.0640031
0.0635401
0.0628811
0.0619794
0.0607764
0.0591983
0.0571501
0.0545062
0.0510911
0.0466353
0.0406452
0.0318323
0.014021
0.0649084
0.0650133
0.0650845
0.0650943
0.0650209
0.0648429
0.0645359
0.0640696
0.0634059
0.0624971
0.0612829
0.0596874
0.0576134
0.0549328
0.0514678
0.0469484
0.040882
0.0319824
0.0140712
0.0656739
0.0657714
0.065837
0.065843
0.0657671
0.0655879
0.0652805
0.0648141
0.0641498
0.0632384
0.0620177
0.0604088
0.0583107
0.0555904
0.0520652
0.0474607
0.0412827
0.0322451
0.0141615
0.06671
0.0667999
0.0668597
0.0668621
0.0667849
0.0666069
0.0663029
0.065842
0.0651845
0.0642797
0.0630632
0.0614525
0.0593406
0.0565868
0.052998
0.0482886
0.0419551
0.0327035
0.014324
0.0680929
0.068174
0.0682271
0.0682258
0.0681488
0.0679752
0.0676803
0.0672331
0.0665939
0.0657111
0.0645182
0.0629284
0.0608277
0.0580635
0.0544252
0.0496037
0.0430689
0.0334974
0.0146163
0.0699083
0.0699784
0.0700232
0.0700179
0.0699429
0.0697779
0.0694994
0.0690774
0.0684726
0.0676338
0.0664936
0.0649621
0.0629177
0.0601931
0.0565516
0.0516423
0.0448764
0.0348516
0.0151384
0.0722497
0.0723063
0.0723407
0.0723313
0.0722602
0.0721089
0.0718556
0.0714721
0.0709217
0.0701551
0.0691064
0.0676855
0.0657659
0.0631662
0.0596172
0.0547044
0.0477276
0.0371071
0.016054
0.0752182
0.0752589
0.0752814
0.075268
0.0752032
0.075071
0.074852
0.0745217
0.074047
0.0733838
0.0724714
0.0712247
0.0695192
0.0671667
0.0638692
0.0591327
0.0520766
0.0407586
0.0176152
0.078925
0.0789486
0.0789588
0.0789422
0.0788864
0.0787785
0.0786025
0.0783384
0.0779594
0.077429
0.0766966
0.075689
0.0742955
0.0723389
0.0695157
0.0652688
0.0584837
0.0465519
0.0202197
0.0834971
0.0835048
0.0835043
0.0834866
0.0834429
0.0833635
0.083237
0.0830488
0.0827796
0.0824035
0.0818837
0.0811669
0.0801698
0.0787529
0.0766596
0.0733575
0.0675814
0.0557554
0.024781
0.0890867
0.0890831
0.0890761
0.089061
0.0890325
0.0889846
0.0889106
0.0888019
0.0886478
0.0884334
0.0881385
0.0877336
0.0871732
0.0863806
0.0852111
0.083334
0.0797788
0.0706516
0.0357429
0.0958814
0.0958752
0.0958692
0.095862
0.0958517
0.0958362
0.0958134
0.0957809
0.0957354
0.095673
0.0955884
0.0954744
0.0953208
0.0951146
0.0948395
0.0944825
0.0940434
0.093363
0.0865242
)
;

boundaryField
{
    leftWall
    {
        type            kqRWallFunction;
        value           nonuniform List<scalar> 
50
(
0.1
0.1
0.1
0.1
0.1
0.1
0.1
0.1
0.1
0.1
0.1
0.1
0.1
0.1
0.1
0.1
0.1
0.1
0.1
0.1
0.1
0.1
0.1
0.1
0.1
0.1
0.1
0.1
0.0192972
0.0088758
0.00954077
0.0106623
0.0115026
0.0121119
0.0125523
0.0128693
0.0130982
0.0132682
0.0134051
0.0135345
0.0136864
0.013901
0.0142389
0.0147948
0.0157179
0.01724
0.0197468
0.0241129
0.0344744
0.085596
)
;
    }
    rightWall
    {
        type            kqRWallFunction;
        value           nonuniform List<scalar> 
50
(
0.00263792
0.00479534
0.00622021
0.00733463
0.00823999
0.00900704
0.00968107
0.0102909
0.0111649
0.0120215
0.012621
0.013042
0.0133371
0.0135422
0.0136831
0.0137785
0.0138422
0.0138841
0.0139112
0.0139286
0.0139395
0.0139464
0.0139506
0.0139532
0.0139548
0.0139558
0.0139564
0.0139568
0.013957
0.0139573
0.0139577
0.0139582
0.0139591
0.0139606
0.0139634
0.0139684
0.0139772
0.0139929
0.014021
0.0140712
0.0141615
0.014324
0.0146163
0.0151384
0.016054
0.0176152
0.0202197
0.024781
0.0357429
0.0865242
)
;
    }
    lowerWall
    {
        type            kqRWallFunction;
        value           nonuniform List<scalar> 
62
(
0.1
0.1
0.1
0.1
0.1
0.1
0.1
0.1
0.1
0.1
0.1
0.1
0.1
0.00776447
0.00490341
0.00629286
0.00712074
0.00753253
0.00758361
0.00724759
0.00641643
0.00484336
0.00188699
0.00188699
0.00458566
0.00623182
0.00758394
0.00884744
0.0102829
0.0125339
0.0177482
0.0204033
0.0173743
0.0175342
0.0210069
0.00204226
0.00502409
0.0068305
0.00835189
0.00980619
0.0114868
0.0140954
0.0197615
0.00204226
0.00537878
0.00721171
0.00830635
0.0089793
0.00939491
0.00964386
0.00977783
0.0098257
0.00980092
0.00970496
0.00952919
0.00925583
0.00885794
0.00829735
0.00751744
0.00642125
0.00480071
0.00263792
)
;
    }
    atmosphere
    {
        type            inletOutlet;
        inletValue      uniform 0.1;
        value           uniform 0.1;
    }
    defaultFaces
    {
        type            empty;
    }
}


// ************************************************************************* //
