/*--------------------------------*- C++ -*----------------------------------*\
| =========                 |                                                 |
| \\      /  F ield         | OpenFOAM: The Open Source CFD Toolbox           |
|  \\    /   O peration     | Version:  2406                                  |
|   \\  /    A nd           | Website:  www.openfoam.com                      |
|    \\/     M anipulation  |                                                 |
\*---------------------------------------------------------------------------*/
FoamFile
{
    version     2.0;
    format      ascii;
    arch        "LSB;label=32;scalar=64";
    class       volScalarField;
    location    "0.5";
    object      nut;
}
// * * * * * * * * * * * * * * * * * * * * * * * * * * * * * * * * * * * * * //

dimensions      [0 2 -1 0 0 0 0];

internalField   nonuniform List<scalar> 
2268
(
4.12943e-05
4.37622e-05
5.14618e-05
5.62404e-05
5.95391e-05
6.19292e-05
6.37001e-05
6.50208e-05
6.59994e-05
6.67083e-05
6.71967e-05
6.74963e-05
6.76238e-05
6.75809e-05
6.73522e-05
6.69003e-05
6.61548e-05
6.49915e-05
6.31893e-05
6.03379e-05
5.5622e-05
4.71493e-05
2.75808e-05
8.93002e-05
0.000335225
0.000443438
0.000508835
0.000553897
0.000586771
0.000611371
0.00062992
0.000643817
0.000653994
0.000661088
0.000665513
0.000667492
0.000667057
0.000664023
0.00065791
0.000647799
0.000632017
0.000607488
0.000568288
0.000502185
0.000379581
9.34925e-05
0.000103895
0.000556177
0.000798296
0.000950357
0.00105723
0.00113639
0.00119639
0.00124214
0.00127674
0.00130229
0.00132024
0.00133155
0.00133675
0.00133591
0.00132859
0.00131366
0.00128886
0.00125013
0.00118987
0.00109362
0.000932716
0.000646008
0.000111351
0.000114234
0.000709566
0.00107288
0.00131017
0.00148019
0.00160773
0.00170533
0.00178033
0.00183742
0.00187983
0.0019098
0.00192884
0.0019378
0.00193679
0.0019251
0.00190088
0.0018605
0.00179731
0.00169903
0.00154255
0.00128402
0.000840807
0.000124669
0.000121997
0.000823857
0.00129207
0.00160834
0.00183898
0.00201393
0.00214894
0.00225335
0.00233328
0.00239295
0.00243538
0.00246257
0.00247566
0.00247484
0.00245915
0.00242606
0.00237064
0.00228383
0.002149
0.00193509
0.00158452
0.000998406
0.000136011
0.000128109
0.000913599
0.00147226
0.00186045
0.00214803
0.00236844
0.0025398
0.00267313
0.00277573
0.00285273
0.00290778
0.0029434
0.002961
0.00296084
0.00294177
0.0029007
0.00283157
0.00272332
0.00255568
0.00229084
0.00185827
0.00114073
0.000147552
0.00013308
0.000986649
0.00162375
0.00207701
0.00241755
0.00268103
0.00288734
0.00304879
0.00317365
0.00326783
0.00333558
0.00337985
0.00340233
0.00340339
0.00338175
0.00333391
0.00325299
0.00312645
0.00293152
0.00262562
0.00212675
0.00128885
0.000163373
0.000137214
0.0010476
0.00175322
0.00226524
0.00265477
0.00295881
0.00319847
0.00338705
0.00353364
0.00364476
0.0037252
0.00377831
0.00380607
0.00380897
0.00378571
0.00373255
0.00364214
0.00350117
0.00328584
0.00295213
0.00241325
0.00148403
0.000194707
2.84366e-05
4.85429e-05
5.69299e-05
6.14155e-05
6.40098e-05
6.5557e-05
6.64617e-05
6.69279e-05
6.70578e-05
6.6895e-05
6.64443e-05
6.56785e-05
6.45374e-05
6.29187e-05
6.06529e-05
5.74447e-05
5.27079e-05
4.4969e-05
4.45208e-05
0.000106762
0.00039975
0.000520419
0.000582959
0.000618444
0.000639391
0.000651557
0.000657733
0.000659266
0.000656717
0.000650134
0.000639161
0.000623023
0.000600401
0.000569089
0.000525144
0.000460351
0.000352138
0.000102416
0.00012646
0.000690953
0.000976405
0.00112931
0.0012165
0.00126788
0.00129761
0.00131255
0.00131599
0.00130928
0.00129257
0.00126505
0.00122498
0.00116942
0.00109352
0.000988629
0.00083699
0.000592437
0.000118318
0.000141322
0.000907636
0.00135326
0.00160009
0.00174205
0.00182579
0.00187409
0.00189813
0.00190326
0.0018917
0.0018637
0.00181803
0.00175202
0.00166122
0.00153833
0.00137057
0.00113248
0.000762178
0.00012972
0.000154135
0.00108422
0.00167742
0.00201311
0.00220738
0.00232215
0.00238822
0.00242074
0.00242703
0.00241009
0.00237029
0.00230601
0.00221373
0.00208763
0.00191834
0.00168974
0.00137065
0.000889894
0.000138337
0.000167429
0.00124358
0.00197206
0.00238664
0.0026273
0.00276986
0.00285182
0.00289167
0.00289834
0.00287551
0.0028236
0.00274062
0.0026223
0.00246166
0.00224759
0.00196138
0.00156783
0.000990739
0.00014514
0.000185848
0.00140766
0.00225739
0.00273525
0.0030134
0.00317903
0.00327426
0.00331987
0.00332597
0.00329668
0.00323244
0.00313085
0.002987
0.00279291
0.00253611
0.00219591
0.00173444
0.0010731
0.000150681
0.000220738
0.00161702
0.00255394
0.00307029
0.00337434
0.00355723
0.00366254
0.00371208
0.00371651
0.00368018
0.00360339
0.00348339
0.00331466
0.00308843
0.00279111
0.00240063
0.00187738
0.00114196
0.000155292
0.00014264
0.00112847
0.00192892
0.00252506
0.00298657
0.00335139
0.00364181
0.00387224
0.00405269
0.00419055
0.00429131
0.0043589
0.00439575
0.00440263
0.00437835
0.00431909
0.00421733
0.00405974
0.00382349
0.00346985
0.00293586
0.00214101
0.0011019
0.000147968
0.00120918
0.00210869
0.0027958
0.00333749
0.00377185
0.00412174
0.00440225
0.00462416
0.00479554
0.0049226
0.00500993
0.00506059
0.00507596
0.00505547
0.00499617
0.00489189
0.00473221
0.00450076
0.00417382
0.00372193
0.00312353
0.00240716
0.000151889
0.00127001
0.00224715
0.00300773
0.00361601
0.00410961
0.00451138
0.00483658
0.0050963
0.00529906
0.00545153
0.00555891
0.00562491
0.00565169
0.00563969
0.00558739
0.005491
0.00534414
0.00513797
0.00486233
0.00451044
0.00409099
0.00365277
0.000154806
0.00131638
0.00235453
0.00317428
0.00383745
0.00438098
0.00482742
0.00519193
0.00548565
0.00571731
0.00589396
0.00602128
0.00610366
0.00614413
0.00614433
0.0061044
0.00602309
0.005898
0.00572637
0.00550714
0.00524516
0.00495893
0.00469182
0.000156981
0.00135179
0.00243772
0.0033048
0.00401281
0.00459797
0.00508241
0.00548102
0.00580487
0.00606276
0.006262
0.00640872
0.00650793
0.00656353
0.00657834
0.00655414
0.00649193
0.0063924
0.00625696
0.00608948
0.00589916
0.00570446
0.00553659
0.000158597
0.0013787
0.00250175
0.00340634
0.0041506
0.00477007
0.0052864
0.00571421
0.00606437
0.00634569
0.00656568
0.00673081
0.00684667
0.00691795
0.00694854
0.00694159
0.00689987
0.00682623
0.00672448
0.00660065
0.00646458
0.00633152
0.00622241
0.000159787
0.00139897
0.00255053
0.00348452
0.00425772
0.0049051
0.00544788
0.00590032
0.00627312
0.00657504
0.00681371
0.0069959
0.00712767
0.0072144
0.00726084
0.00727123
0.00724958
0.00720009
0.00712779
0.00703928
0.00694353
0.00685232
0.00677955
0.000160654
0.00141405
0.00258723
0.00354394
0.00433996
0.00500976
0.00557415
0.00604709
0.00643907
0.0067588
0.00701396
0.00721157
0.00735807
0.00745939
0.00752093
0.00754773
0.00754462
0.00751658
0.00746907
0.00740853
0.00734268
0.00728044
0.00723123
0.000161277
0.00142512
0.00261445
0.00358849
0.00440225
0.00508979
0.0056716
0.00616134
0.00656931
0.00690416
0.0071736
0.00738483
0.00754458
0.00765917
0.00773452
0.00777618
0.00778952
0.00777985
0.00775272
0.00771411
0.00767052
0.00762878
0.00759545
0.00016172
0.00143311
0.00263435
0.0036214
0.00444875
0.00515014
0.00574576
0.00624905
0.00667016
0.00701761
0.00729918
0.00752216
0.0076935
0.00781981
0.00790735
0.00796203
0.00798948
0.00799517
0.00798452
0.00796297
0.00793605
0.00790907
0.00788681
0.000162029
0.0014388
0.00264866
0.00364534
0.00448295
0.00519498
0.0058014
0.00631546
0.00674716
0.00710496
0.00739661
0.0076295
0.00781073
0.0079471
0.00804509
0.00811084
0.00815011
0.00816838
0.00817085
0.00816252
0.00814812
0.00813193
0.00811755
0.000162241
0.00144279
0.0026588
0.0036625
0.00450775
0.00522783
0.00584257
0.00636504
0.00680514
0.00717126
0.00747114
0.00771222
0.00790168
0.00804647
0.00815321
0.00822813
0.00827708
0.00830545
0.00831827
0.00832011
0.00831512
0.00830687
0.00829818
0.000162386
0.00144554
0.00266587
0.00367463
0.00452546
0.00525155
0.00587258
0.00640153
0.00684819
0.00722089
0.00752736
0.00777506
0.00797124
0.00812291
0.00823678
0.00831915
0.00837586
0.00841223
0.00843308
0.00844268
0.00844476
0.00844237
0.00843783
0.000162483
0.00144741
0.00267074
0.00368307
0.00453794
0.00526844
0.00589418
0.00642803
0.00687971
0.00725753
0.00756918
0.00782213
0.00802366
0.00818084
0.00830041
0.0083887
0.00845151
0.0084941
0.00852112
0.00853661
0.00854396
0.00854589
0.00854438
0.000162547
0.00144866
0.00267405
0.00368887
0.00454661
0.00528031
0.0059095
0.006447
0.00690249
0.00728421
0.00759986
0.00785689
0.00806262
0.00822411
0.00834815
0.00844104
0.00850858
0.00855593
0.00858763
0.00860753
0.00861879
0.00862389
0.00862458
0.000162588
0.00144949
0.00267626
0.00369281
0.00455256
0.00528855
0.00592024
0.00646042
0.00691873
0.00730338
0.00762206
0.00788222
0.00809116
0.00825597
0.00838343
0.00847985
0.00855098
0.00860194
0.00863713
0.00866029
0.00867443
0.00868184
0.00868412
0.000162615
0.00145003
0.00267773
0.00369544
0.0045566
0.00529419
0.00592767
0.00646979
0.00693016
0.00731699
0.00763793
0.00790043
0.00811179
0.00827911
0.00840915
0.00850823
0.00858205
0.00863567
0.00867344
0.00869899
0.00871522
0.0087243
0.00872772
0.000162633
0.00145038
0.00267869
0.00369719
0.0045593
0.00529801
0.00593275
0.00647626
0.00693812
0.00732652
0.00764912
0.00791335
0.0081265
0.00829568
0.00842765
0.00852868
0.00860448
0.00866006
0.00869971
0.00872699
0.00874472
0.00875499
0.00875923
0.000162643
0.00145061
0.00267931
0.00369834
0.0045611
0.00530057
0.00593618
0.00648067
0.00694358
0.00733312
0.00765692
0.0079224
0.00813687
0.00830741
0.00844077
0.00854323
0.00862046
0.00867745
0.00871845
0.00874697
0.00876576
0.00877688
0.00878169
0.00016265
0.00145075
0.00267971
0.00369908
0.00456227
0.00530227
0.00593848
0.00648364
0.0069473
0.00733764
0.00766229
0.00792867
0.00814408
0.00831559
0.00844996
0.00855345
0.0086317
0.0086897
0.00873165
0.00876104
0.00878058
0.00879229
0.0087975
0.000162654
0.00145084
0.00267996
0.00369956
0.00456304
0.00530338
0.00594
0.00648563
0.0069498
0.0073407
0.00766595
0.00793297
0.00814904
0.00832124
0.00845632
0.00856053
0.00863951
0.00869821
0.00874083
0.00877082
0.00879089
0.00880301
0.00880849
0.000162657
0.0014509
0.00268012
0.00369986
0.00456353
0.0053041
0.005941
0.00648694
0.00695147
0.00734275
0.00766841
0.00793587
0.00815241
0.0083251
0.00846067
0.00856539
0.00864487
0.00870405
0.00874714
0.00877755
0.00879797
0.00881037
0.00881603
0.000162659
0.00145093
0.00268022
0.00370005
0.00456385
0.00530457
0.00594165
0.0064878
0.00695257
0.00734411
0.00767006
0.00793782
0.00815468
0.0083277
0.00846362
0.00856867
0.0086485
0.00870802
0.00875142
0.00878212
0.00880278
0.00881537
0.00882116
0.00016266
0.00145095
0.00268028
0.00370017
0.00456404
0.00530487
0.00594207
0.00648836
0.00695328
0.00734501
0.00767114
0.00793911
0.00815618
0.00832943
0.00846559
0.00857088
0.00865094
0.00871069
0.0087543
0.00878518
0.00880601
0.00881872
0.0088246
0.00016266
0.00145096
0.00268032
0.00370025
0.00456417
0.00530506
0.00594234
0.00648872
0.00695375
0.00734559
0.00767185
0.00793996
0.00815718
0.00833058
0.00846689
0.00857234
0.00865256
0.00871246
0.00875621
0.00878722
0.00880815
0.00882095
0.00882688
0.000162661
0.00145097
0.00268034
0.0037003
0.00456425
0.00530518
0.00594251
0.00648895
0.00695404
0.00734596
0.00767231
0.00794051
0.00815783
0.00833133
0.00846774
0.0085733
0.00865362
0.00871362
0.00875747
0.00878856
0.00880957
0.00882242
0.00882838
0.000162661
0.00145098
0.00268036
0.00370032
0.0045643
0.00530525
0.00594261
0.00648909
0.00695423
0.0073462
0.00767261
0.00794087
0.00815825
0.00833182
0.0084683
0.00857393
0.00865431
0.00871438
0.00875829
0.00878944
0.00881048
0.00882337
0.00882936
0.000162661
0.00145098
0.00268037
0.00370034
0.00456433
0.0053053
0.00594268
0.00648918
0.00695435
0.00734636
0.0076728
0.00794109
0.00815852
0.00833213
0.00846866
0.00857433
0.00865476
0.00871487
0.00875881
0.00879
0.00881108
0.00882399
0.00882999
0.000162661
0.00145098
0.00268037
0.00370035
0.00456434
0.00530533
0.00594272
0.00648924
0.00695443
0.00734645
0.00767292
0.00794124
0.00815869
0.00833233
0.00846889
0.00857459
0.00865505
0.00871518
0.00875915
0.00879036
0.00881146
0.00882438
0.0088304
0.000162661
0.00145098
0.00268038
0.00370036
0.00456435
0.00530534
0.00594275
0.00648927
0.00695448
0.00734651
0.00767299
0.00794133
0.0081588
0.00833246
0.00846903
0.00857475
0.00865523
0.00871538
0.00875937
0.00879059
0.0088117
0.00882463
0.00883065
0.000162661
0.00145098
0.00268038
0.00370036
0.00456436
0.00530535
0.00594276
0.0064893
0.0069545
0.00734655
0.00767304
0.00794139
0.00815886
0.00833254
0.00846912
0.00857485
0.00865534
0.0087155
0.0087595
0.00879073
0.00881185
0.00882479
0.00883082
0.000162661
0.00145098
0.00268038
0.00370036
0.00456437
0.00530536
0.00594277
0.00648931
0.00695452
0.00734657
0.00767307
0.00794142
0.00815891
0.00833258
0.00846918
0.00857491
0.00865541
0.00871558
0.00875959
0.00879082
0.00881195
0.00882489
0.00883092
0.000162661
0.00145098
0.00268038
0.00370037
0.00456437
0.00530536
0.00594278
0.00648932
0.00695453
0.00734659
0.00767309
0.00794144
0.00815893
0.00833262
0.00846921
0.00857495
0.00865546
0.00871563
0.00875964
0.00879088
0.00881201
0.00882495
0.00883098
0.000162661
0.00145098
0.00268038
0.00370037
0.00456437
0.00530537
0.00594278
0.00648932
0.00695454
0.00734659
0.0076731
0.00794146
0.00815895
0.00833263
0.00846923
0.00857498
0.00865549
0.00871566
0.00875967
0.00879092
0.00881204
0.00882499
0.00883102
0.000162661
0.00145098
0.00268038
0.00370037
0.00456437
0.00530537
0.00594278
0.00648932
0.00695454
0.0073466
0.0076731
0.00794147
0.00815896
0.00833265
0.00846925
0.008575
0.0086555
0.00871568
0.0087597
0.00879094
0.00881207
0.00882502
0.00883105
0.000162661
0.00145098
0.00268038
0.00370037
0.00456437
0.00530537
0.00594278
0.00648933
0.00695455
0.0073466
0.00767311
0.00794147
0.00815896
0.00833265
0.00846926
0.00857501
0.00865551
0.00871569
0.00875971
0.00879095
0.00881208
0.00882503
0.00883106
0.000162661
0.00145098
0.00268038
0.00370037
0.00456437
0.00530537
0.00594278
0.00648933
0.00695455
0.0073466
0.00767311
0.00794147
0.00815897
0.00833266
0.00846926
0.00857501
0.00865552
0.0087157
0.00875972
0.00879096
0.00881209
0.00882504
0.00883107
0.000162661
0.00145098
0.00268038
0.00370037
0.00456437
0.00530537
0.00594278
0.00648933
0.00695455
0.00734661
0.00767311
0.00794148
0.00815897
0.00833266
0.00846927
0.00857502
0.00865553
0.00871571
0.00875972
0.00879097
0.0088121
0.00882505
0.00883108
0.000162661
0.00145098
0.00268038
0.00370037
0.00456437
0.00530537
0.00594278
0.00648933
0.00695455
0.00734661
0.00767311
0.00794148
0.00815897
0.00833266
0.00846927
0.00857502
0.00865553
0.00871571
0.00875973
0.00879097
0.00881211
0.00882506
0.00883109
0.000162661
0.00145098
0.00268038
0.00370037
0.00456437
0.00530537
0.00594278
0.00648933
0.00695455
0.00734661
0.00767311
0.00794148
0.00815897
0.00833266
0.00846927
0.00857502
0.00865553
0.00871571
0.00875973
0.00879098
0.00881211
0.00882506
0.00883109
0.000162661
0.00145098
0.00268038
0.00370037
0.00456437
0.00530537
0.00594279
0.00648933
0.00695455
0.00734661
0.00767311
0.00794148
0.00815897
0.00833267
0.00846927
0.00857502
0.00865553
0.00871572
0.00875973
0.00879098
0.00881211
0.00882506
0.00883109
0.000162661
0.00145098
0.00268038
0.00370037
0.00456437
0.00530537
0.00594279
0.00648933
0.00695455
0.00734661
0.00767311
0.00794148
0.00815897
0.00833267
0.00846927
0.00857502
0.00865553
0.00871572
0.00875973
0.00879098
0.00881211
0.00882506
0.00883109
0.000209138
0.000192359
0.000192214
0.000208449
0.00186556
0.00177921
0.00177899
0.00186428
0.0034083
0.00333477
0.00333405
0.00340597
0.0045658
0.0045234
0.00452227
0.00456235
0.00546382
0.00543885
0.0054374
0.00545943
0.00617688
0.00616099
0.0061593
0.00617175
0.00674945
0.00673864
0.00673675
0.00674374
0.00721059
0.00720283
0.00720076
0.00720435
0.00758096
0.00757514
0.00757293
0.00757426
0.00787649
0.00787196
0.00786961
0.00786936
0.00811013
0.0081065
0.00810402
0.00810263
0.00829283
0.00828982
0.00828723
0.00828501
0.00843396
0.00843139
0.00842871
0.00842588
0.00854158
0.00853932
0.00853657
0.00853327
0.00862255
0.0086205
0.00861769
0.00861406
0.00868264
0.00868075
0.0086779
0.00867401
0.00872664
0.00872486
0.00872196
0.00871789
0.00875842
0.00875672
0.00875379
0.00874959
0.00878108
0.00877942
0.00877648
0.00877218
0.00879702
0.0087954
0.00879244
0.00878807
0.0088081
0.00880651
0.00880353
0.00879912
0.00881571
0.00881413
0.00881115
0.0088067
0.00882087
0.00881931
0.00881632
0.00881185
0.00882434
0.00882278
0.00881979
0.0088153
0.00882664
0.00882509
0.00882209
0.0088176
0.00882816
0.0088266
0.00882361
0.00881911
0.00882914
0.00882759
0.0088246
0.00882009
0.00882978
0.00882823
0.00882523
0.00882072
0.00883019
0.00882864
0.00882564
0.00882113
0.00883044
0.0088289
0.0088259
0.00882138
0.00883061
0.00882906
0.00882606
0.00882155
0.00883071
0.00882916
0.00882616
0.00882165
0.00883077
0.00882923
0.00882623
0.00882171
0.00883081
0.00882927
0.00882627
0.00882175
0.00883084
0.00882929
0.00882629
0.00882178
0.00883086
0.00882931
0.00882631
0.00882179
0.00883087
0.00882932
0.00882632
0.0088218
0.00883087
0.00882933
0.00882633
0.00882181
0.00883088
0.00882933
0.00882633
0.00882182
0.00883088
0.00882934
0.00882634
0.00882182
0.00883089
0.00882934
0.00882634
0.00882182
0.00883089
0.00882934
0.00882634
0.00882182
0.0011556
0.0022609
0.00307331
0.0035917
0.00391638
0.00411711
0.00423329
0.00428605
0.004286
0.00423739
0.00414016
0.00399098
0.00378349
0.0035079
0.00314939
0.00268445
0.00207208
0.00123349
0.000161347
0.00244197
0.00321162
0.00383242
0.00427878
0.00458237
0.00477854
0.00489253
0.00493969
0.00492802
0.00486029
0.00473541
0.00454911
0.00429414
0.00395979
0.00353038
0.0029816
0.00227201
0.00132497
0.00016729
0.00366644
0.00414534
0.00458765
0.00494016
0.00519758
0.00537003
0.00546882
0.00550202
0.00547373
0.00538447
0.00523168
0.00501008
0.00471163
0.00432508
0.00383442
0.00321524
0.00242648
0.00139401
0.000171661
0.0046938
0.00498757
0.00529208
0.00555589
0.00575931
0.00589808
0.0059733
0.00598656
0.00593799
0.00582559
0.00564522
0.0053905
0.00505277
0.00462042
0.0040774
0.0033996
0.00254661
0.00144669
0.00017491
0.00553245
0.00571536
0.00592158
0.00611142
0.00626276
0.0063648
0.0064124
0.00640237
0.00633143
0.0061953
0.00598827
0.00570298
0.00533019
0.00485813
0.00427085
0.00354466
0.00263992
0.00148695
0.00017733
0.00621469
0.00633025
0.006468
0.00659953
0.00670497
0.00677149
0.00679069
0.00675626
0.00666239
0.0065029
0.00627075
0.00595771
0.00555409
0.005048
0.00442372
0.003658
0.00271194
0.00151759
0.000179126
0.00676942
0.00684243
0.00693231
0.00701896
0.00708582
0.00712022
0.00711237
0.00705414
0.00693801
0.00675638
0.00650114
0.00616337
0.00573302
0.00519817
0.00454331
0.00374567
0.00276698
0.00154071
0.000180449
0.00721928
0.0072642
0.0073201
0.00737246
0.00740777
0.0074143
0.00738195
0.00730166
0.00716484
0.00696291
0.00668696
0.00632756
0.00587441
0.00531557
0.00463578
0.00381267
0.00280855
0.00155794
0.000181413
0.00758204
0.00760768
0.00763903
0.00766523
0.00767513
0.00765817
0.00760441
0.00750445
0.00734908
0.00712907
0.00683499
0.00645704
0.00598474
0.00540619
0.00470636
0.0038632
0.00283951
0.00157061
0.000182107
0.00787219
0.00788418
0.00789753
0.00790372
0.00789341
0.00785706
0.00778513
0.00766816
0.00749665
0.00726098
0.00695138
0.00655782
0.00606971
0.00547522
0.00475949
0.00390079
0.00286225
0.0015798
0.0001826
0.00810191
0.00810404
0.00810404
0.00809494
0.0080687
0.00801662
0.00792962
0.00779833
0.00761314
0.00736424
0.00704165
0.0066352
0.00613428
0.00552709
0.00479894
0.00392834
0.0028787
0.00158636
0.000182945
0.0082817
0.00827659
0.00826664
0.00824589
0.0082072
0.00814258
0.00804333
0.00790026
0.00770375
0.00744393
0.0071107
0.00669382
0.00618266
0.00556552
0.00482783
0.00394825
0.00289043
0.00159098
0.000183183
0.00842066
0.00841022
0.00839283
0.00836323
0.00831493
0.00824044
0.00813142
0.00797886
0.0077732
0.00750454
0.00716277
0.0067376
0.00621843
0.00559362
0.00484868
0.00396245
0.00289868
0.00159418
0.000183346
0.00852664
0.00851227
0.00848934
0.00845307
0.00839742
0.00831529
0.00819862
0.00803857
0.00782565
0.00755
0.00720149
0.00676986
0.00624452
0.00561388
0.00486354
0.00397243
0.0029044
0.00159637
0.000183455
0.0086064
0.00858912
0.0085621
0.00852084
0.00845964
0.00837167
0.00824911
0.00808325
0.0078647
0.00758361
0.0072299
0.00679332
0.0062633
0.0056283
0.004874
0.00397936
0.00290831
0.00159785
0.000183528
0.00866559
0.0086462
0.00861616
0.00857121
0.00850587
0.00841352
0.00828649
0.0081162
0.00789335
0.00760812
0.00725047
0.00681015
0.00627664
0.00563844
0.00488125
0.00398411
0.00291096
0.00159883
0.000183576
0.00870892
0.00868799
0.00865577
0.00860812
0.00853973
0.00844413
0.00831377
0.00814017
0.00791409
0.00762576
0.00726516
0.00682207
0.00628601
0.00564548
0.00488624
0.00398733
0.00291273
0.00159948
0.000183607
0.00874022
0.00871819
0.00868439
0.00863479
0.00856418
0.0084662
0.0083334
0.00815737
0.0079289
0.00763829
0.00727552
0.00683042
0.0062925
0.00565031
0.00488962
0.00398949
0.0029139
0.00159991
0.000183627
0.00876253
0.00873972
0.00870479
0.0086538
0.0085816
0.00848191
0.00834735
0.00816954
0.00793934
0.00764707
0.00728274
0.00683619
0.00629695
0.00565359
0.00489189
0.00399092
0.00291467
0.00160018
0.00018364
0.00877823
0.00875486
0.00871915
0.00866717
0.00859385
0.00849294
0.00835712
0.00817804
0.00794661
0.00765316
0.00728771
0.00684013
0.00629997
0.0056558
0.0048934
0.00399186
0.00291516
0.00160035
0.000183648
0.00878914
0.00876539
0.00872913
0.00867646
0.00860235
0.00850059
0.00836388
0.00818392
0.00795161
0.00765732
0.0072911
0.0068428
0.006302
0.00565726
0.00489439
0.00399247
0.00291548
0.00160046
0.000183653
0.00879662
0.00877262
0.00873598
0.00868284
0.00860818
0.00850584
0.00836851
0.00818793
0.00795502
0.00766015
0.00729338
0.00684459
0.00630335
0.00565823
0.00489504
0.00399286
0.00291569
0.00160053
0.000183656
0.00880171
0.00877752
0.00874062
0.00868716
0.00861214
0.00850939
0.00837164
0.00819063
0.0079573
0.00766204
0.0072949
0.00684577
0.00630423
0.00565886
0.00489546
0.00399311
0.00291581
0.00160058
0.000183658
0.00880512
0.00878081
0.00874374
0.00869007
0.00861479
0.00851177
0.00837373
0.00819244
0.00795883
0.00766329
0.0072959
0.00684655
0.00630481
0.00565926
0.00489573
0.00399327
0.00291589
0.00160061
0.000183659
0.00880738
0.008783
0.00874581
0.00869199
0.00861655
0.00851334
0.00837512
0.00819363
0.00795983
0.00766411
0.00729656
0.00684705
0.00630518
0.00565953
0.0048959
0.00399337
0.00291594
0.00160062
0.00018366
0.00880887
0.00878443
0.00874717
0.00869326
0.00861771
0.00851438
0.00837603
0.00819441
0.00796049
0.00766465
0.00729698
0.00684738
0.00630542
0.00565969
0.004896
0.00399344
0.00291598
0.00160063
0.00018366
0.00880984
0.00878537
0.00874806
0.00869408
0.00861846
0.00851505
0.00837662
0.00819492
0.00796091
0.00766499
0.00729725
0.00684759
0.00630557
0.0056598
0.00489607
0.00399348
0.00291599
0.00160064
0.00018366
0.00881047
0.00878597
0.00874863
0.00869461
0.00861894
0.00851549
0.008377
0.00819524
0.00796118
0.00766522
0.00729743
0.00684772
0.00630567
0.00565986
0.00489611
0.0039935
0.00291601
0.00160064
0.000183661
0.00881087
0.00878636
0.008749
0.00869495
0.00861925
0.00851576
0.00837724
0.00819545
0.00796135
0.00766536
0.00729754
0.0068478
0.00630573
0.0056599
0.00489614
0.00399351
0.00291601
0.00160064
0.000183661
0.00881112
0.0087866
0.00874923
0.00869517
0.00861945
0.00851594
0.00837739
0.00819558
0.00796146
0.00766544
0.00729761
0.00684785
0.00630576
0.00565993
0.00489616
0.00399352
0.00291602
0.00160065
0.000183661
0.00881128
0.00878676
0.00874937
0.00869531
0.00861957
0.00851605
0.00837749
0.00819566
0.00796153
0.0076655
0.00729765
0.00684788
0.00630579
0.00565994
0.00489616
0.00399353
0.00291602
0.00160065
0.000183661
0.00881138
0.00878685
0.00874947
0.00869539
0.00861965
0.00851612
0.00837755
0.00819571
0.00796157
0.00766553
0.00729768
0.0068479
0.0063058
0.00565995
0.00489617
0.00399353
0.00291602
0.00160065
0.000183661
0.00881144
0.00878691
0.00874952
0.00869544
0.0086197
0.00851616
0.00837759
0.00819574
0.0079616
0.00766555
0.00729769
0.00684792
0.00630581
0.00565996
0.00489617
0.00399353
0.00291602
0.00160065
0.000183661
0.00881148
0.00878695
0.00874956
0.00869548
0.00861973
0.00851619
0.00837761
0.00819576
0.00796161
0.00766557
0.0072977
0.00684792
0.00630581
0.00565996
0.00489618
0.00399354
0.00291602
0.00160065
0.000183661
0.00881151
0.00878698
0.00874958
0.0086955
0.00861975
0.0085162
0.00837762
0.00819578
0.00796163
0.00766557
0.00729771
0.00684793
0.00630582
0.00565996
0.00489618
0.00399354
0.00291602
0.00160065
0.000183661
0.00881152
0.00878699
0.0087496
0.00869551
0.00861976
0.00851621
0.00837763
0.00819578
0.00796163
0.00766558
0.00729771
0.00684793
0.00630582
0.00565996
0.00489618
0.00399354
0.00291602
0.00160065
0.000183661
0.00881154
0.008787
0.00874961
0.00869552
0.00861977
0.00851622
0.00837764
0.00819579
0.00796164
0.00766558
0.00729771
0.00684793
0.00630582
0.00565997
0.00489618
0.00399354
0.00291602
0.00160065
0.000183661
0.00881154
0.00878701
0.00874962
0.00869553
0.00861977
0.00851623
0.00837764
0.00819579
0.00796164
0.00766558
0.00729772
0.00684793
0.00630582
0.00565997
0.00489618
0.00399354
0.00291602
0.00160065
0.000183661
0.00881155
0.00878701
0.00874962
0.00869553
0.00861978
0.00851623
0.00837765
0.0081958
0.00796164
0.00766559
0.00729772
0.00684793
0.00630582
0.00565997
0.00489618
0.00399354
0.00291602
0.00160065
0.000183661
0.00881155
0.00878702
0.00874962
0.00869554
0.00861978
0.00851623
0.00837765
0.0081958
0.00796164
0.00766559
0.00729772
0.00684793
0.00630582
0.00565997
0.00489618
0.00399354
0.00291602
0.00160065
0.000183661
0.00881155
0.00878702
0.00874963
0.00869554
0.00861978
0.00851623
0.00837765
0.0081958
0.00796164
0.00766559
0.00729772
0.00684794
0.00630582
0.00565997
0.00489618
0.00399354
0.00291602
0.00160065
0.000183661
0.00881156
0.00878702
0.00874963
0.00869554
0.00861978
0.00851623
0.00837765
0.0081958
0.00796164
0.00766559
0.00729772
0.00684794
0.00630582
0.00565997
0.00489618
0.00399354
0.00291602
0.00160065
0.000183661
)
;

boundaryField
{
    leftWall
    {
        type            nutkWallFunction;
        blending        stepwise;
        value           nonuniform List<scalar> 
50
(
1.52385e-07
4.47007e-06
6.8546e-06
8.50368e-06
9.72181e-06
1.06672e-05
1.14258e-05
1.20483e-05
1.28546e-05
1.36245e-05
1.4175e-05
1.45726e-05
1.48599e-05
1.50665e-05
1.52138e-05
1.53175e-05
1.53897e-05
1.54392e-05
1.54727e-05
1.54951e-05
1.55099e-05
1.55195e-05
1.55256e-05
1.55296e-05
1.55321e-05
1.55336e-05
1.55346e-05
1.55351e-05
1.55355e-05
1.55357e-05
1.55358e-05
1.55359e-05
1.5536e-05
1.5536e-05
1.5536e-05
1.5536e-05
1.5536e-05
1.5536e-05
1.5536e-05
1.5536e-05
1.5536e-05
1.5536e-05
1.5536e-05
1.5536e-05
1.5536e-05
1.5536e-05
1.5536e-05
1.5536e-05
1.5536e-05
1.5536e-05
)
;
    }
    rightWall
    {
        type            nutkWallFunction;
        blending        stepwise;
        value           nonuniform List<scalar> 
50
(
2.01824e-06
6.74519e-06
9.28951e-06
1.1068e-05
1.23898e-05
1.34189e-05
1.42463e-05
1.4926e-05
1.58071e-05
1.66483e-05
1.72495e-05
1.76833e-05
1.79966e-05
1.82217e-05
1.83821e-05
1.84952e-05
1.85739e-05
1.8628e-05
1.86647e-05
1.86893e-05
1.87055e-05
1.87162e-05
1.8723e-05
1.87275e-05
1.87302e-05
1.8732e-05
1.87331e-05
1.87338e-05
1.87342e-05
1.87345e-05
1.87346e-05
1.87347e-05
1.87348e-05
1.87348e-05
1.87348e-05
1.87348e-05
1.87348e-05
1.87348e-05
1.87348e-05
1.87348e-05
1.87348e-05
1.87348e-05
1.87348e-05
1.87348e-05
1.87348e-05
1.87348e-05
1.87348e-05
1.87348e-05
1.87348e-05
1.87348e-05
)
;
    }
    lowerWall
    {
        type            nutkWallFunction;
        blending        stepwise;
        value           nonuniform List<scalar> 
62
(
0
0
0
0
0
0
0
0
0
6.87037e-08
1.39631e-07
1.81508e-07
1.97463e-07
1.8777e-07
1.49487e-07
7.5562e-08
0
0
0
0
0
0
0
0
4.98307e-06
7.84048e-06
9.91083e-06
1.16424e-05
1.33809e-05
1.57447e-05
2.039e-05
2.24116e-05
1.98874e-05
1.98663e-05
2.23108e-05
0
7.24915e-06
1.03389e-05
1.25998e-05
1.4514e-05
1.64762e-05
1.91768e-05
2.42567e-05
0
0
0
0
0
0
1.28754e-08
9.23502e-08
1.17836e-07
9.74733e-08
3.2067e-08
0
0
0
0
0
0
0
0
)
;
    }
    atmosphere
    {
        type            calculated;
        value           nonuniform List<scalar> 
46
(
0.000162661
0.00145098
0.00268038
0.00370037
0.00456437
0.00530537
0.00594279
0.00648933
0.00695455
0.00734661
0.00767311
0.00794148
0.00815897
0.00833267
0.00846927
0.00857502
0.00865553
0.00871572
0.00875973
0.00879098
0.00881211
0.00882506
0.00883109
0.00883089
0.00882934
0.00882634
0.00882182
0.00881156
0.00878702
0.00874963
0.00869554
0.00861978
0.00851623
0.00837765
0.0081958
0.00796164
0.00766559
0.00729772
0.00684794
0.00630582
0.00565997
0.00489618
0.00399354
0.00291602
0.00160065
0.000183661
)
;
    }
    defaultFaces
    {
        type            empty;
    }
}


// ************************************************************************* //
