/*--------------------------------*- C++ -*----------------------------------*\
| =========                 |                                                 |
| \\      /  F ield         | OpenFOAM: The Open Source CFD Toolbox           |
|  \\    /   O peration     | Version:  2406                                  |
|   \\  /    A nd           | Website:  www.openfoam.com                      |
|    \\/     M anipulation  |                                                 |
\*---------------------------------------------------------------------------*/
FoamFile
{
    version     2.0;
    format      ascii;
    arch        "LSB;label=32;scalar=64";
    class       volScalarField;
    location    "0.5";
    object      nut;
}
// * * * * * * * * * * * * * * * * * * * * * * * * * * * * * * * * * * * * * //

dimensions      [0 2 -1 0 0 0 0];

internalField   nonuniform List<scalar> 
2268
(
0.000289337
0.000213038
0.000213038
0.000213038
0.000213038
0.000213038
0.000213038
0.000213038
0.000213038
0.000213038
0.000213038
0.000213038
0.000213038
5.81448e-05
4.26864e-05
4.87887e-05
5.21401e-05
5.37717e-05
5.40545e-05
5.29107e-05
4.9811e-05
4.32374e-05
2.66604e-05
0.000450785
0.000254306
0.000232321
0.000225511
0.000222385
0.000220634
0.000219545
0.000218827
0.000218345
0.000218025
0.00021783
0.000217737
0.000217737
5.96698e-05
0.000269932
0.000384836
0.000434319
0.00045773
0.000462938
0.000449456
0.000410028
0.000322176
8.82671e-05
0.000450785
0.000288167
0.000251962
0.000238672
0.000232268
0.000228639
0.000226375
0.000224885
0.000223885
0.000223224
0.000222819
0.000222627
0.000222627
7.95065e-05
0.00040915
0.000642058
0.000753314
0.000807293
0.000820838
0.000793063
0.000708564
0.000522537
0.000103435
0.000450785
0.000314823
0.000270613
0.00025196
0.00024245
0.000236938
0.000233468
0.000231177
0.000229635
0.000228616
0.000227993
0.000227696
0.000227696
9.8446e-05
0.000502472
0.000821749
0.000988309
0.00107218
0.00109534
0.00105616
0.000932204
0.000662403
0.00011456
0.000450785
0.000335499
0.000287639
0.000264953
0.00025271
0.000245414
0.000240757
0.00023766
0.00023557
0.000234185
0.000233336
0.000232932
0.000232932
0.000115771
0.000574274
0.000959722
0.00117493
0.00128765
0.00132199
0.0012752
0.0011183
0.000775906
0.000124161
0.000450785
0.000351572
0.000302834
0.000277373
0.000262866
0.000253958
0.000248177
0.000244294
0.000241659
0.000239908
0.000238833
0.000238321
0.000238321
0.000131858
0.000634566
0.00107537
0.00133513
0.00147659
0.00152433
0.00147433
0.00129109
0.000882405
0.000134324
0.000450785
0.000364209
0.000316232
0.000289058
0.00027278
0.000262475
0.000255662
0.000251036
0.000247874
0.000245763
0.000244464
0.000243845
0.000243845
0.000147096
0.000688563
0.00118008
0.00148299
0.00165418
0.00171821
0.00167027
0.00146891
0.00099865
0.000148893
0.000450785
0.00037429
0.000327979
0.000299934
0.000282353
0.000270887
0.000263158
0.000257844
0.000254182
0.000251726
0.000250211
0.000249487
0.000249487
0.000161799
0.000739691
0.00128173
0.0016287
0.00183166
0.00191549
0.00187597
0.00166944
0.00115399
0.000177895
2.78281e-05
4.5997e-05
5.34361e-05
5.74436e-05
5.97954e-05
6.12224e-05
6.20735e-05
6.25279e-05
6.26777e-05
6.25635e-05
6.21882e-05
6.15231e-05
6.05091e-05
5.90504e-05
5.69964e-05
5.40914e-05
4.98276e-05
4.29035e-05
4.38624e-05
0.000103129
0.000360687
0.000461045
0.00051343
0.000543917
0.000562482
0.000573625
0.000579565
0.000581418
0.000579659
0.000574308
0.000565005
0.000551029
0.000531244
0.000503878
0.000465861
0.00041068
0.000319346
9.96532e-05
0.000121069
0.000602136
0.000821805
0.000938759
0.00100738
0.00104946
0.00107484
0.00108835
0.0010924
0.00108803
0.00107527
0.00105336
0.00102082
0.000975368
0.000913566
0.000829472
0.000710243
0.000518528
0.000114122
0.000134593
0.00077709
0.00110415
0.00128157
0.00138631
0.0014508
0.00148976
0.00151039
0.0015163
0.00150902
0.0014886
0.0014539
0.00140278
0.00133203
0.00123691
0.0011093
0.000931632
0.000654159
0.000124431
0.000146492
0.000921934
0.00134586
0.00157765
0.00171472
0.0017993
0.00185041
0.00187727
0.00188448
0.00187397
0.00184577
0.00179841
0.00172915
0.00163401
0.00150721
0.00133895
0.00110814
0.000756665
0.000132312
0.000159191
0.00105809
0.00157277
0.00185257
0.00201773
0.00211978
0.0021814
0.00221344
0.00222128
0.00220712
0.00217092
0.00211087
0.0020237
0.00190476
0.00174739
0.00154036
0.00125969
0.000841221
0.000138713
0.000177022
0.0012041
0.00180447
0.00212439
0.0023129
0.00242966
0.00250008
0.0025362
0.00254392
0.00252558
0.00248101
0.00240806
0.00230296
0.00216044
0.00197301
0.00172805
0.00139886
0.000916258
0.000144164
0.000210259
0.00139184
0.00205934
0.00240707
0.00261351
0.00274211
0.0028196
0.00285866
0.00286546
0.00284234
0.00278894
0.00270274
0.00257949
0.00241331
0.00219581
0.00191282
0.00153469
0.000987288
0.000148965
0.000450785
0.000387195
0.000344345
0.000315956
0.000296959
0.000284002
0.000275003
0.000268693
0.00026429
0.000261312
0.000259464
0.000258579
0.000258579
0.000184448
0.000819457
0.00144535
0.00186624
0.00212425
0.00224583
0.00223101
0.00205038
0.00163701
0.000931545
0.000450785
0.000399213
0.000361271
0.000333994
0.000314484
0.000300479
0.000290379
0.000283101
0.000277923
0.000274374
0.000272154
0.000271085
0.000271085
0.000211325
0.000900612
0.00161008
0.00211352
0.00244212
0.00262408
0.00266853
0.00256891
0.00231026
0.0018977
0.000450785
0.00040801
0.000374622
0.000349177
0.000330022
0.000315683
0.000304997
0.0002971
0.000291376
0.000287401
0.000284893
0.000283679
0.000283679
0.000235238
0.000962967
0.00173464
0.00230616
0.00270006
0.00294533
0.00305811
0.00304684
0.00292147
0.0027116
0.000450785
0.000414731
0.000385376
0.00036202
0.000343727
0.000329559
0.000318698
0.000310492
0.000304442
0.000300187
0.000297479
0.000296162
0.000296162
0.000256892
0.00101319
0.00183373
0.00246238
0.00291509
0.00322074
0.00339923
0.00346582
0.00343789
0.00334319
0.000450785
0.000420036
0.000394196
0.000372954
0.000355793
0.000342127
0.000331402
0.000323139
0.000316953
0.000312554
0.000309731
0.000308352
0.000308352
0.000276632
0.00105445
0.00191413
0.00259076
0.00309488
0.00345456
0.00369094
0.00382114
0.00386268
0.00383652
0.000450785
0.000424322
0.000401533
0.000382318
0.000366407
0.000353447
0.000343073
0.000334947
0.000328783
0.000324353
0.000321491
0.000320086
0.000320086
0.000294619
0.00108854
0.00197955
0.00269602
0.00324384
0.00364979
0.00393476
0.00411547
0.00420744
0.00422608
0.000450785
0.000427844
0.000407702
0.000390372
0.000375736
0.000363592
0.00035371
0.00034586
0.000339835
0.000335468
0.000332628
0.000331229
0.000331229
0.000310936
0.00111665
0.00203242
0.00278144
0.00336543
0.00380968
0.00413415
0.00435437
0.00448361
0.00453356
0.000450785
0.000430772
0.000412924
0.000397317
0.000383921
0.000372638
0.00036333
0.000355847
0.000350047
0.00034581
0.00034304
0.000341671
0.000341671
0.000325648
0.00113973
0.00207474
0.00284984
0.00346305
0.00393812
0.0042939
0.00454453
0.00470143
0.00477385
0.000450785
0.000433225
0.000417362
0.000403307
0.000391084
0.000380659
0.000371961
0.000364898
0.000359378
0.000355318
0.000352651
0.00035133
0.00035133
0.000338831
0.00115865
0.00210837
0.00290399
0.00354033
0.00403962
0.00441962
0.00469323
0.00487045
0.00495894
0.000450785
0.000435286
0.000421138
0.000408464
0.000397324
0.000387724
0.000379638
0.000373017
0.000367806
0.000363952
0.00036141
0.000360147
0.000360147
0.000350581
0.00117424
0.00213512
0.00294676
0.0036011
0.00411905
0.00451735
0.00480795
0.00499977
0.00509949
0.000450785
0.00043702
0.000424343
0.000412886
0.000402726
0.000393896
0.0003864
0.000380219
0.000375326
0.000371689
0.000369283
0.000368085
0.000368085
0.000361025
0.00118736
0.00215686
0.00298105
0.00364935
0.00418143
0.00459326
0.00489603
0.00509798
0.0052052
0.000450785
0.000438471
0.00042705
0.000416651
0.000407362
0.000399233
0.000392286
0.000386526
0.000381943
0.000378524
0.000376254
0.000375123
0.000375123
0.000370336
0.00119892
0.00217553
0.00300988
0.0036891
0.0042318
0.00465333
0.00496443
0.00517295
0.00528473
0.000450785
0.000439678
0.000429315
0.000419823
0.000411294
0.000403786
0.000397337
0.000391963
0.000387671
0.000384458
0.00038232
0.000381253
0.000381253
0.000378757
0.00121001
0.00219328
0.00303648
0.00372454
0.00427516
0.00470328
0.00501953
0.00523168
0.00534558
0.000450785
0.000440669
0.000431184
0.000422455
0.000414572
0.000407602
0.000401588
0.000396559
0.000392528
0.000389503
0.000387487
0.000386479
0.000386479
0.000386679
0.00122205
0.00221277
0.00306458
0.0037602
0.00431656
0.00474858
0.00506711
0.00528022
0.00539402
0.000450785
0.000441464
0.000432692
0.000424587
0.00041724
0.00041072
0.000405075
0.00040034
0.000396535
0.000393673
0.000391763
0.000390807
0.000390807
0.000394785
0.0012372
0.00223772
0.00309903
0.00380142
0.00436142
0.00479453
0.00511239
0.00532373
0.00543517
0.000450785
0.000442082
0.000433867
0.000426254
0.000419333
0.000413173
0.000407827
0.000403331
0.000399711
0.000396985
0.000395162
0.00039425
0.00039425
0.000404431
0.00125929
0.00227423
0.00314689
0.00385498
0.00441576
0.00484641
0.00516006
0.00536653
0.00547313
0.000450785
0.000442535
0.000434731
0.000427482
0.000420879
0.00041499
0.000409868
0.000405555
0.000402076
0.000399453
0.000397698
0.000396819
0.000396819
0.000418688
0.00129651
0.00233393
0.00321945
0.00393001
0.00448648
0.00490943
0.00521427
0.00541213
0.00551102
0.000450785
0.000442832
0.000435298
0.000428291
0.000421898
0.000416189
0.000411219
0.000407027
0.000403644
0.000401091
0.000399382
0.000398525
0.000398525
0.00044625
0.00137091
0.00244152
0.00333531
0.00403845
0.00458092
0.00498828
0.00527827
0.00546306
0.00555102
0.000450785
0.000442979
0.000435579
0.000428692
0.000422404
0.000416786
0.00041189
0.00040776
0.000404425
0.000401907
0.000400221
0.000399376
0.000399376
0.000525062
0.00155539
0.0026496
0.00352165
0.00419308
0.00470513
0.00508601
0.00535388
0.00552066
0.00559432
0.000450785
0.000442979
0.000435579
0.000428692
0.000422404
0.000416786
0.000411891
0.00040776
0.000404425
0.000401908
0.000400222
0.000399376
0.000416699
0.00110821
0.00210833
0.00303876
0.0038
0.00439908
0.00485992
0.00520244
0.00544085
0.00558489
0.00564115
0.000195612
0.000259943
0.000306128
0.000337251
0.000358561
0.000373448
0.000384329
0.000393297
0.000402742
0.000416538
0.000444042
0.000523858
0.00110747
0.00191878
0.00275225
0.00350195
0.00413185
0.00464049
0.00503742
0.00533321
0.00553666
0.00565439
0.00569089
0.000124933
0.000538288
0.000743206
0.000876329
0.000972631
0.00104617
0.00110501
0.00115536
0.00120387
0.0012609
0.00135018
0.00154565
0.00210289
0.00274987
0.00339071
0.00397539
0.0044799
0.00489657
0.00522592
0.00547149
0.00563733
0.00572684
0.00574231
0.000128708
0.000819122
0.00122413
0.0014852
0.00167449
0.00182117
0.00194047
0.00204313
0.0021398
0.0022455
0.00238752
0.00262006
0.00302372
0.00349607
0.00397465
0.00442226
0.00481749
0.00514953
0.00541406
0.0056102
0.00573851
0.0057997
0.00579402
0.000136749
0.00098219
0.00155556
0.00194039
0.00222388
0.0024458
0.00262741
0.00278312
0.00292609
0.00307211
0.00324332
0.00346971
0.00377504
0.00412443
0.0044825
0.00482294
0.005128
0.00538672
0.00559294
0.00574342
0.00583644
0.00587073
0.00584482
0.000142619
0.00108451
0.0017802
0.00226707
0.00263394
0.00292492
0.00316438
0.00336861
0.00355142
0.00372725
0.00391248
0.00412377
0.00436981
0.00463817
0.00491042
0.00516973
0.00540296
0.00560077
0.00575691
0.00586719
0.00592859
0.00593846
0.00589404
0.000146829
0.00115471
0.00193877
0.00250522
0.00294104
0.00329128
0.00358115
0.00382723
0.00404285
0.00424062
0.00443293
0.00463047
0.00483835
0.00505249
0.00526393
0.00546275
0.00564011
0.00578885
0.0059035
0.00597975
0.00601392
0.00600248
0.00594172
0.000149884
0.00120513
0.00205413
0.00268172
0.0031728
0.00357197
0.00390408
0.00418511
0.0044274
0.00464187
0.00483856
0.00502566
0.00520778
0.00538472
0.00555284
0.00570696
0.00584162
0.00595182
0.00603311
0.00608146
0.00609295
0.00606353
0.00598884
0.00015212
0.00124222
0.00213969
0.00281424
0.00334901
0.0037878
0.00415459
0.00446436
0.00472831
0.00495605
0.00515625
0.00533612
0.00550056
0.0056516
0.00578881
0.00591014
0.00601272
0.00609329
0.00614844
0.00617455
0.00616771
0.00612355
0.00603732
0.000153781
0.0012701
0.00220447
0.00291551
0.00348498
0.00395577
0.00435088
0.00468424
0.00496596
0.00520468
0.00540825
0.00558356
0.00573598
0.00586899
0.00598423
0.00608179
0.00616063
0.00621889
0.00625403
0.00626286
0.00624156
0.00618565
0.00609013
0.000155062
0.00129195
0.00225555
0.00299592
0.00359367
0.00409082
0.00450938
0.00486234
0.00515892
0.00540704
0.00561409
0.00578691
0.00593138
0.00605199
0.00615179
0.00623232
0.0062939
0.00633568
0.00635582
0.00635153
0.00631912
0.00625408
0.00615131
0.000156142
0.00131062
0.00229931
0.00306497
0.00368714
0.00420697
0.00464565
0.00501534
0.00532464
0.00558099
0.0057916
0.00596344
0.00610281
0.00621502
0.00630407
0.00637258
0.00642178
0.00645161
0.00646075
0.00644675
0.00640604
0.00633416
0.00622598
0.000157204
0.00132906
0.00234226
0.0031323
0.00377753
0.00431829
0.00477508
0.00515953
0.00547989
0.00574344
0.00595746
0.00612914
0.00626525
0.00637174
0.00645333
0.00651339
0.00655382
0.00657512
0.00657639
0.00655541
0.00650878
0.00643209
0.00632025
0.000158467
0.00135069
0.00239183
0.00320862
0.00387799
0.00443958
0.00491348
0.00531118
0.005641
0.00591049
0.00612721
0.0062988
0.00643251
0.00653483
0.00661105
0.00666506
0.00669928
0.00671459
0.00671039
0.00668468
0.0066342
0.0065546
0.0064409
0.000160227
0.00137988
0.00245712
0.00330658
0.0040035
0.00458703
0.00507739
0.00548663
0.00582379
0.00609715
0.00631502
0.00648561
0.00661676
0.0067154
0.00678729
0.00683671
0.00686641
0.00687756
0.00686978
0.00684125
0.00678882
0.00670828
0.00659476
0.000162899
0.00142234
0.00254953
0.00344146
0.00417133
0.00477836
0.00528396
0.00570187
0.00604287
0.00631672
0.00653286
0.00670036
0.00682766
0.00692212
0.00698981
0.00703527
0.00706146
0.00706973
0.00705988
0.00703022
0.00697778
0.00689848
0.00678762
0.000167076
0.00148515
0.00268289
0.0036313
0.00440092
0.00503227
0.00554994
0.00597133
0.00631038
0.00657929
0.00678916
0.0069501
0.00707112
0.00715992
0.00722273
0.00726419
0.00728734
0.00729361
0.00728292
0.00725377
0.00720335
0.00712781
0.00702267
0.000173548
0.00157628
0.00287298
0.00389649
0.00471306
0.00536701
0.00588984
0.00630572
0.00663384
0.0068899
0.00708708
0.00723657
0.00734784
0.0074287
0.00748531
0.00752221
0.00754236
0.00754721
0.00753677
0.00750969
0.00746344
0.00739449
0.00729867
0.000183316
0.00170405
0.0031383
0.00426074
0.00512958
0.00579866
0.00631338
0.00670948
0.00701382
0.00724652
0.00742291
0.007555
0.00765234
0.00772246
0.00777114
0.0078026
0.00781955
0.00782333
0.00781402
0.00779049
0.00775055
0.00769112
0.0076085
0.000197759
0.00187983
0.00350798
0.00475778
0.00567551
0.00633989
0.00682298
0.00717826
0.00744214
0.007639
0.00778561
0.00789399
0.00797309
0.00802963
0.00806864
0.0080937
0.00810712
0.00811003
0.00810255
0.0080838
0.00805202
0.00800472
0.00793887
0.000219907
0.00213166
0.00404944
0.00544934
0.00638391
0.00699826
0.0074109
0.00769715
0.00790135
0.00804962
0.00815806
0.00823725
0.00829455
0.00833527
0.00836323
0.00838115
0.00839073
0.00839285
0.00838761
0.00837442
0.00835201
0.00831862
0.00827202
0.000264102
0.00255677
0.00494804
0.00645674
0.00729475
0.0077682
0.00805414
0.00823942
0.00836619
0.00845594
0.00852059
0.00856735
0.00860098
0.00862479
0.0086411
0.00865156
0.00865718
0.00865849
0.00865559
0.00864812
0.00863538
0.00861634
0.00858968
0.00041704
0.00368632
0.0068007
0.00798533
0.00841715
0.0086062
0.00870624
0.00876711
0.00880755
0.0088358
0.00885601
0.00887057
0.00888104
0.00888844
0.00889352
0.00889679
0.00889857
0.00889902
0.00889818
0.00889596
0.00889213
0.00888637
0.00887818
0.000192876
0.000178487
0.000179556
0.000196588
0.00152976
0.00146781
0.00148125
0.00156914
0.00255396
0.00250662
0.00253248
0.00262737
0.00325951
0.0032344
0.00326879
0.00335646
0.00378828
0.00377732
0.00381829
0.00390423
0.00419972
0.0041985
0.00424488
0.00433162
0.00452247
0.00452845
0.00457925
0.00466759
0.00477374
0.00478505
0.00483944
0.00492954
0.00496658
0.00498174
0.00503894
0.00513076
0.00511239
0.00513021
0.00518953
0.00528285
0.00522144
0.00524097
0.00530177
0.00539629
0.00530281
0.00532326
0.00538495
0.00548027
0.00536421
0.00538491
0.00544691
0.00554258
0.00541201
0.00543229
0.00549403
0.00558954
0.00545129
0.00547046
0.00553132
0.00562614
0.005486
0.00550332
0.00556263
0.00565618
0.0055191
0.00553372
0.00559078
0.00568246
0.00555264
0.00556367
0.00561774
0.00570693
0.0055878
0.00559436
0.00564472
0.00573085
0.00562497
0.00562628
0.00567232
0.00575489
0.00566389
0.00565936
0.00570062
0.00577928
0.00570386
0.00569318
0.00572941
0.00580397
0.00574406
0.0057272
0.00575839
0.00582885
0.00578381
0.005761
0.00578737
0.00585388
0.00582283
0.00579455
0.00581645
0.00587933
0.00586147
0.00582831
0.00584624
0.00590587
0.0059008
0.00586345
0.00587795
0.00593478
0.0059428
0.00590193
0.00591356
0.00596804
0.00599037
0.00594666
0.00595593
0.00600849
0.00604749
0.00600156
0.00600896
0.00605993
0.00611923
0.00607166
0.0060776
0.00612727
0.0062117
0.00616308
0.0061679
0.00621641
0.00633184
0.00628279
0.00628676
0.0063341
0.00648676
0.00643803
0.00644136
0.00648731
0.00668272
0.00663525
0.00663809
0.00668216
0.0069235
0.00687848
0.00688094
0.0069223
0.00720844
0.00716735
0.00716947
0.00720701
0.00753077
0.00749524
0.00749702
0.00752941
0.007877
0.0078486
0.00785002
0.00787593
0.00822843
0.0082083
0.00820933
0.00822777
0.008565
0.00855353
0.00855415
0.00856479
0.00887072
0.00886736
0.0088676
0.00887097
0.00104487
0.00193654
0.00252811
0.00288905
0.00311523
0.0032586
0.00334485
0.00338688
0.00339091
0.00335912
0.00329068
0.00318249
0.00302952
0.00282481
0.00255827
0.00221277
0.00175327
0.00109736
0.000155627
0.00206102
0.00268119
0.00315092
0.00347836
0.00370044
0.00384643
0.00393432
0.00397418
0.0039709
0.00392565
0.00383677
0.00370032
0.00351043
0.00325914
0.00293489
0.002518
0.00196918
0.0012017
0.000162073
0.00292135
0.00335748
0.0037238
0.00400367
0.00420548
0.00434206
0.00442348
0.00445595
0.00444218
0.00438195
0.00427252
0.00410914
0.00388529
0.00359243
0.0032183
0.00274213
0.00212296
0.00127365
0.00016658
0.00359517
0.00393563
0.00423025
0.00446596
0.00464192
0.00476241
0.00483188
0.0048531
0.00482657
0.00475051
0.00462107
0.00443271
0.00417842
0.00384939
0.00343319
0.00290881
0.00223492
0.00132498
0.000169774
0.00412568
0.00441708
0.00466457
0.00486422
0.00501444
0.00511621
0.00517084
0.00517859
0.00513809
0.00504615
0.00489787
0.004687
0.00440617
0.00404649
0.00359568
0.00303289
0.00231697
0.00136206
0.000172049
0.00454706
0.00481185
0.00502822
0.00519977
0.00532689
0.00540999
0.00544894
0.0054425
0.0053879
0.00528076
0.00511531
0.00488471
0.00458132
0.00419631
0.00371762
0.00312479
0.00237696
0.00138887
0.000173666
0.00488114
0.00513068
0.00532615
0.00547626
0.00558382
0.00564981
0.00567375
0.00565356
0.00558556
0.00546451
0.00528391
0.00503646
0.00471436
0.00430885
0.00380818
0.00319224
0.00242049
0.0014081
0.000174805
0.00514315
0.0053838
0.00556511
0.00569914
0.00579077
0.00584198
0.00585243
0.00581975
0.00573966
0.00560634
0.00541277
0.00515132
0.00481404
0.00439229
0.00387458
0.00324113
0.00245169
0.00142175
0.000175598
0.00534546
0.00558107
0.00575283
0.00587498
0.00595407
0.00599306
0.00599201
0.00594849
0.00585797
0.00571421
0.00550984
0.005237
0.00488766
0.00445329
0.0039226
0.00327611
0.00247376
0.00143129
0.000176142
0.00549909
0.00573201
0.00589739
0.00601092
0.0060804
0.00610964
0.00609916
0.00604664
0.00594742
0.00579504
0.00558192
0.00530001
0.00494128
0.00449725
0.00395685
0.00330077
0.00248914
0.00143787
0.000176511
0.00561406
0.0058456
0.00600673
0.00611409
0.00617635
0.00619803
0.00618006
0.00612029
0.00601404
0.00585475
0.00563468
0.00534571
0.00497979
0.00452851
0.00398094
0.00331791
0.00249971
0.00144233
0.000176757
0.00569921
0.00592997
0.0060882
0.00619113
0.00624804
0.00626397
0.0062402
0.00617475
0.00606298
0.00589827
0.00567281
0.00537844
0.0050071
0.00455045
0.00399765
0.00332966
0.00250686
0.00144531
0.000176919
0.00576212
0.00599218
0.00614826
0.00624794
0.00630088
0.00631249
0.0062843
0.00621449
0.00609846
0.00592958
0.00570002
0.00540158
0.00502622
0.00456566
0.0040091
0.00333762
0.00251164
0.00144727
0.000177023
0.00580896
0.00603807
0.00619233
0.00628948
0.00633942
0.00634778
0.00631625
0.00624314
0.00612388
0.00595186
0.00571922
0.00541777
0.00503947
0.00457607
0.00401686
0.00334294
0.00251479
0.00144855
0.000177091
0.00584465
0.00607231
0.00622478
0.00631982
0.00636739
0.00637325
0.0063392
0.0062636
0.00614193
0.00596755
0.00573264
0.00542897
0.00504855
0.00458314
0.00402206
0.00334646
0.00251685
0.00144937
0.000177133
0.00587293
0.00609853
0.00624904
0.00634212
0.00638772
0.0063916
0.00635561
0.00627812
0.00615464
0.00597852
0.00574193
0.00543667
0.00505472
0.00458788
0.00402551
0.00334877
0.00251817
0.0014499
0.00017716
0.00589658
0.00611942
0.00626768
0.00635881
0.00640264
0.00640489
0.00636736
0.00628843
0.00616357
0.00598617
0.00574835
0.00544193
0.00505889
0.00459106
0.00402779
0.00335027
0.00251903
0.00145023
0.000177177
0.00591758
0.00613695
0.00628261
0.0063717
0.00641386
0.00641467
0.00637587
0.0062958
0.0061699
0.00599152
0.0057528
0.00544553
0.00506172
0.00459319
0.00402929
0.00335125
0.00251957
0.00145043
0.000177187
0.00593722
0.00615246
0.00629518
0.00638211
0.00642261
0.0064221
0.00638222
0.0063012
0.00617447
0.00599535
0.00575595
0.00544806
0.00506368
0.00459464
0.00403031
0.00335189
0.00251993
0.00145057
0.000177194
0.00595631
0.00616688
0.00630635
0.00639099
0.00642983
0.00642806
0.00638719
0.00630537
0.00617796
0.00599824
0.00575831
0.00544993
0.00506512
0.00459569
0.00403104
0.00335235
0.00252017
0.00145066
0.000177198
0.00597528
0.00618077
0.00631679
0.00639904
0.00643621
0.00643323
0.00639144
0.0063089
0.00618089
0.00600066
0.00576027
0.00545148
0.00506631
0.00459656
0.00403162
0.00335272
0.00252037
0.00145073
0.000177201
0.00599431
0.00619454
0.006327
0.00640684
0.00644233
0.00643817
0.00639551
0.00631229
0.00618373
0.00600302
0.0057622
0.00545302
0.00506749
0.00459742
0.00403221
0.00335308
0.00252056
0.0014508
0.000177204
0.00601353
0.00620851
0.00633744
0.0064149
0.00644876
0.00644345
0.00639994
0.00631606
0.00618694
0.00600574
0.00576447
0.00545487
0.00506893
0.00459849
0.00403295
0.00335354
0.0025208
0.00145088
0.000177208
0.00603314
0.00622309
0.00634865
0.00642382
0.00645612
0.00644969
0.00640535
0.0063208
0.0061911
0.00600936
0.00576755
0.00545742
0.00507096
0.00460002
0.00403403
0.00335423
0.00252117
0.00145102
0.000177215
0.00605358
0.00623888
0.00636131
0.00643437
0.0064652
0.00645771
0.00641253
0.00632728
0.00619693
0.00601454
0.00577206
0.00546122
0.00507405
0.00460239
0.00403573
0.00335532
0.00252177
0.00145124
0.000177225
0.00607565
0.0062568
0.00637645
0.0064476
0.00647708
0.00646857
0.00642257
0.00633656
0.00620545
0.00602224
0.00577888
0.00546708
0.00507887
0.00460617
0.00403848
0.00335713
0.00252278
0.00145161
0.000177243
0.00610069
0.00627826
0.00639548
0.00646497
0.00649323
0.00648377
0.00643692
0.00635008
0.00621806
0.00603383
0.00578929
0.00547616
0.00508648
0.00461222
0.00404296
0.00336014
0.00252449
0.00145226
0.000177275
0.00613068
0.00630523
0.00642042
0.00648848
0.00651568
0.00650532
0.00645762
0.00636984
0.00623675
0.00605123
0.00580514
0.00549018
0.00509842
0.00462189
0.00405027
0.00336514
0.00252738
0.00145338
0.00017733
0.00616839
0.00634043
0.00645395
0.00652083
0.0065471
0.00653591
0.00648733
0.00639855
0.00626421
0.00607711
0.00582903
0.00551165
0.00511701
0.00463722
0.0040621
0.00337341
0.00253226
0.00145531
0.000177426
0.00621752
0.00638745
0.00649957
0.00656546
0.00659094
0.00657899
0.00652957
0.00643974
0.00630401
0.00611507
0.00586458
0.00554409
0.00514563
0.00466132
0.00408109
0.00338699
0.00254047
0.00145863
0.000177595
0.00628274
0.00645074
0.00656162
0.00662664
0.00665143
0.00663882
0.00658865
0.00649783
0.00636072
0.00616982
0.00591659
0.00559239
0.00518908
0.0046987
0.00411129
0.00340915
0.00255423
0.00146433
0.000177889
0.00636968
0.0065356
0.00664515
0.00670929
0.00673346
0.00672034
0.00666963
0.00657808
0.00643985
0.00624718
0.00599122
0.00566298
0.00525395
0.00475589
0.00415872
0.00344494
0.0025771
0.00147407
0.000178405
0.00648465
0.00664783
0.00675563
0.00681867
0.00684221
0.00682879
0.00677794
0.00668623
0.00654759
0.00635391
0.00609589
0.00576396
0.00534891
0.0048418
0.00423205
0.00350201
0.00261475
0.00149061
0.000179306
0.00663397
0.00679308
0.00689822
0.00695966
0.00698246
0.006969
0.00691866
0.00682781
0.00669011
0.00649707
0.00623875
0.0059047
0.00548457
0.00496803
0.00434314
0.00359135
0.00267574
0.00151836
0.000180875
0.00682299
0.00697576
0.00707669
0.00713565
0.00715746
0.0071443
0.0070954
0.00700698
0.00687245
0.00668288
0.00642761
0.00609497
0.00567281
0.00514841
0.00450706
0.00372768
0.00277209
0.00156383
0.000183573
0.00705441
0.00719756
0.00729207
0.00734725
0.00736761
0.00735513
0.00730891
0.00722507
0.00709688
0.00691506
0.00666818
0.00634307
0.00592506
0.00539762
0.00474101
0.00392876
0.00291884
0.00163549
0.000188105
0.00732659
0.00745591
0.00754116
0.00759087
0.00760917
0.00759777
0.00755568
0.00747907
0.00736127
0.00719287
0.00696185
0.00665346
0.00624982
0.00572882
0.00506235
0.00421364
0.00313208
0.00174205
0.000195408
0.00763211
0.00774287
0.00781572
0.0078581
0.00787362
0.00786368
0.00782727
0.00776078
0.00765794
0.00750967
0.00730378
0.0070243
0.00664988
0.00615111
0.00548697
0.00460219
0.00342832
0.0018904
0.000206559
0.00795754
0.00804534
0.0081029
0.00813628
0.00814835
0.00814021
0.00811089
0.00805728
0.0079739
0.00785263
0.00768203
0.00744591
0.00712029
0.00666796
0.00603041
0.00512103
0.00383322
0.00208942
0.000222927
0.00828528
0.00834708
0.00838745
0.00841072
0.00841896
0.0084129
0.00839175
0.00835313
0.0082928
0.00820439
0.00807843
0.00790051
0.00764693
0.00727585
0.00671099
0.00581941
0.00441153
0.00236937
0.000248004
0.00859741
0.00863253
0.00865537
0.00866842
0.00867289
0.00866915
0.00865669
0.00863404
0.00859863
0.00854645
0.00847138
0.00836346
0.00820465
0.00795859
0.00754589
0.00678967
0.00533886
0.00284009
0.000298874
0.0088808
0.00889132
0.00889814
0.008902
0.00890325
0.00890199
0.00889806
0.00889098
0.00887992
0.00886364
0.00884014
0.0088061
0.00875506
0.00867225
0.00851752
0.00816073
0.00712519
0.0040592
0.000465854
)
;

boundaryField
{
    leftWall
    {
        type            nutkWallFunction;
        blending        stepwise;
        value           nonuniform List<scalar> 
50
(
0
0
0
0
0
0
0
0
0
0
0
0
0
0
0
0
0
0
0
0
0
0
0
0
0
0
0
5.36008e-05
1.95329e-05
1.01653e-05
1.0911e-05
1.21041e-05
1.29518e-05
1.35446e-05
1.39624e-05
1.42581e-05
1.44691e-05
1.46244e-05
1.47486e-05
1.48654e-05
1.50016e-05
1.51926e-05
1.549e-05
1.59708e-05
1.67467e-05
1.79716e-05
1.98614e-05
2.28514e-05
2.88916e-05
4.92388e-05
)
;
    }
    rightWall
    {
        type            nutkWallFunction;
        blending        stepwise;
        value           nonuniform List<scalar> 
50
(
1.87561e-06
6.38551e-06
8.73716e-06
1.0368e-05
1.15912e-05
1.25686e-05
1.3389e-05
1.41035e-05
1.50869e-05
1.60087e-05
1.66319e-05
1.70596e-05
1.73546e-05
1.75575e-05
1.76958e-05
1.77891e-05
1.78511e-05
1.78918e-05
1.79182e-05
1.7935e-05
1.79456e-05
1.79523e-05
1.79564e-05
1.79589e-05
1.79604e-05
1.79613e-05
1.79619e-05
1.79623e-05
1.79626e-05
1.79628e-05
1.79632e-05
1.79637e-05
1.79645e-05
1.7966e-05
1.79687e-05
1.79735e-05
1.79821e-05
1.79973e-05
1.80244e-05
1.80729e-05
1.81597e-05
1.83152e-05
1.85925e-05
1.908e-05
1.99123e-05
2.12714e-05
2.33943e-05
2.67665e-05
3.36414e-05
5.55386e-05
)
;
    }
    lowerWall
    {
        type            nutkWallFunction;
        blending        stepwise;
        value           nonuniform List<scalar> 
62
(
0
0
0
0
0
0
0
0
0
0
0
0
2.16739e-05
0
0
0
0
0
0
0
0
0
0
0
4.31814e-06
6.83003e-06
8.6195e-06
1.01328e-05
1.17089e-05
1.39452e-05
1.83667e-05
2.04852e-05
1.82182e-05
1.83432e-05
2.09135e-05
0
6.78776e-06
9.64921e-06
1.17369e-05
1.35377e-05
1.54379e-05
1.80962e-05
2.30326e-05
0
0
0
0
0
0
0
0
0
0
0
0
0
0
0
0
0
0
0
)
;
    }
    atmosphere
    {
        type            calculated;
        value           uniform 0.009;
    }
    defaultFaces
    {
        type            empty;
    }
}


// ************************************************************************* //
