/*--------------------------------*- C++ -*----------------------------------*\
| =========                 |                                                 |
| \\      /  F ield         | OpenFOAM: The Open Source CFD Toolbox           |
|  \\    /   O peration     | Version:  2406                                  |
|   \\  /    A nd           | Website:  www.openfoam.com                      |
|    \\/     M anipulation  |                                                 |
\*---------------------------------------------------------------------------*/
FoamFile
{
    version     2.0;
    format      ascii;
    arch        "LSB;label=32;scalar=64";
    class       surfaceScalarField;
    location    "0.5";
    object      phi;
}
// * * * * * * * * * * * * * * * * * * * * * * * * * * * * * * * * * * * * * //

dimensions      [0 3 -1 0 0 0 0];

oriented        oriented;

internalField   nonuniform List<scalar> 
4432
(
-2.3926e-304
-1.19013e-304
-4.80115e-304
-5.64183e-304
-7.41332e-304
-7.60542e-304
-1.03208e-303
-7.73507e-304
-1.36143e-303
-5.63511e-304
-1.73224e-303
-3.17246e-305
-2.13748e-303
9.84066e-304
-2.55072e-303
2.73697e-303
-2.89821e-303
5.62458e-303
-2.93848e-303
1.03125e-302
-1.65878e-303
1.80186e-302
6.20752e-303
3.08749e-302
8.61292e-303
5.28487e-302
-3.8508e-303
1.80649e-302
-5.39129e-303
2.63542e-303
-3.14046e-303
-1.14598e-303
-1.732e-303
-1.38673e-303
-9.50944e-304
-9.53513e-304
-5.21818e-304
-5.15785e-304
-2.80353e-304
-2.12647e-304
-1.3919e-304
-3.45558e-305
-5.0771e-305
4.89543e-305
4.83609e-305
-7.43833e-304
-2.17232e-304
-1.4785e-303
-1.01161e-303
-2.26596e-303
-1.38386e-303
-3.14151e-303
-1.39004e-303
-4.12904e-303
-9.43719e-304
-5.23465e-303
1.48165e-304
-6.43468e-303
2.20134e-303
-7.64898e-303
5.70032e-303
-8.67478e-303
1.13951e-302
-8.99974e-303
2.04902e-302
-7.04688e-303
3.50829e-302
-2.97413e-303
5.93554e-302
4.216e-303
9.68668e-302
-7.68659e-303
2.90735e-302
-7.31441e-303
4.18374e-303
-4.5237e-303
-4.94946e-304
-2.69154e-303
-1.16041e-303
-1.57633e-303
-8.90172e-304
-9.16524e-304
-4.95708e-304
-5.23776e-304
-1.89376e-304
-2.83202e-304
6.58534e-306
-1.20974e-304
1.09995e-304
1.11711e-304
-1.26253e-303
-3.33541e-304
-2.52073e-303
-1.44116e-303
-3.8694e-303
-1.98031e-303
-5.36926e-303
-1.97236e-303
-7.06325e-303
-1.27913e-303
-8.96746e-303
3.85446e-304
-1.1054e-302
3.48059e-303
-1.3216e-302
8.70582e-303
-1.51921e-302
1.71248e-302
-1.64037e-302
3.04118e-302
-1.53006e-302
5.13811e-302
-1.59308e-302
8.53769e-302
-2.13965e-303
1.35157e-301
-1.12346e-302
3.71116e-302
-8.73126e-303
5.73738e-303
-5.57069e-303
2.3305e-304
-3.45838e-303
-8.17379e-304
-2.10949e-303
-7.35781e-304
-1.2737e-303
-4.19543e-304
-7.57352e-304
-1.36835e-304
-4.312e-304
6.10598e-305
-2.01971e-304
1.79191e-304
1.89958e-304
-1.81866e-303
-4.58422e-304
-3.64534e-303
-1.87732e-303
-5.60431e-303
-2.58385e-303
-7.7828e-303
-2.55964e-303
-1.02465e-302
-1.61054e-303
-1.30285e-302
6.38948e-304
-1.61094e-302
4.78375e-303
-1.93813e-302
1.17174e-302
-2.25793e-302
2.27819e-302
-2.51678e-302
4.00442e-302
-2.57822e-302
6.68594e-302
-3.15282e-302
1.09087e-301
-9.84195e-303
1.67819e-301
-1.48823e-302
4.39273e-302
-1.03097e-302
7.35161e-303
-6.66548e-303
9.4512e-304
-4.24798e-303
-4.61109e-304
-2.66929e-303
-5.5922e-304
-1.66147e-303
-3.26905e-304
-1.02192e-303
-7.58576e-305
-6.08475e-304
1.18653e-304
-3.07581e-304
2.5207e-304
2.8356e-304
-2.4334e-303
-5.94171e-304
-4.88975e-303
-2.3447e-303
-7.52338e-303
-3.23099e-303
-1.04496e-302
-3.19522e-303
-1.37605e-302
-1.98601e-303
-1.75121e-302
8.59898e-304
-2.17052e-302
6.06273e-303
-2.6251e-302
1.46918e-302
-3.09157e-302
2.83274e-302
-3.52461e-302
4.93569e-302
-3.80288e-302
8.15178e-302
-4.89757e-302
1.30848e-301
-1.86283e-302
1.96924e-301
-1.88897e-302
5.03194e-302
-1.21873e-302
8.9797e-303
-7.91562e-303
1.62553e-303
-5.13299e-303
-1.19721e-304
-3.29989e-303
-3.84642e-304
-2.10692e-303
-2.34372e-304
-1.33519e-303
-1.79975e-305
-8.28276e-304
1.6912e-304
-4.48254e-304
3.16499e-304
3.78686e-304
-3.12681e-303
-7.46637e-304
-6.29115e-303
-2.86601e-303
-9.67984e-303
-3.95688e-303
-1.34379e-302
-3.9237e-303
-1.76865e-302
-2.45555e-303
-2.25105e-302
9.95398e-304
-2.79394e-302
7.26658e-303
-3.3918e-302
1.75819e-302
-4.02622e-302
3.37231e-302
-4.66077e-302
5.83239e-302
-5.18161e-302
9.53796e-302
-6.79448e-302
1.51022e-301
-2.84204e-302
2.24123e-301
-2.33535e-302
5.65566e-302
-1.43912e-302
1.06157e-302
-9.36361e-303
2.28568e-303
-6.14967e-303
2.05514e-304
-4.02642e-303
-2.18763e-304
-2.62652e-303
-1.49182e-304
-1.70842e-303
2.92755e-305
-1.10051e-303
2.02047e-304
-6.36836e-304
3.53179e-304
4.34785e-304
-3.9186e-303
-9.25382e-304
-7.88719e-303
-3.46352e-303
-1.21281e-302
-4.79873e-303
-1.68171e-302
-4.79353e-303
-2.21073e-302
-3.07576e-303
-2.81159e-302
9.85819e-304
-3.49079e-302
8.33634e-303
-4.24708e-302
2.0336e-302
-5.06801e-302
3.89296e-302
-5.92598e-302
6.69301e-302
-6.71042e-302
1.08488e-301
-8.84319e-302
1.69821e-301
-3.92713e-302
2.49938e-301
-2.8301e-302
6.26099e-302
-1.69184e-302
1.22696e-302
-1.10294e-302
2.94851e-303
-7.32062e-303
5.25098e-304
-4.86687e-303
-5.98936e-305
-3.2326e-303
-7.3648e-305
-2.14922e-303
6.12301e-305
-1.43093e-303
2.0789e-304
-8.89363e-304
3.34271e-304
3.58204e-304
-4.8284e-303
-1.1404e-303
-9.71653e-303
-4.15184e-303
-1.49244e-302
-5.78475e-303
-2.06592e-302
-5.84718e-303
-2.71077e-302
-3.90249e-303
-3.44224e-302
7.63061e-304
-4.27077e-302
9.19292e-303
-5.19991e-302
2.28664e-302
-6.22372e-302
4.3854e-302
-7.32375e-302
7.50885e-302
-8.38284e-302
1.20777e-301
-1.1076e-301
1.87051e-301
-5.08653e-302
2.72455e-301
-3.37038e-302
6.822e-302
-1.97338e-302
1.39537e-302
-1.29049e-302
3.64611e-303
-8.64802e-303
8.60648e-304
-5.82493e-303
1.03984e-304
-3.92668e-303
-1.66877e-306
-2.65455e-303
8.02337e-305
-1.80944e-303
1.8572e-304
-1.22138e-303
2.54039e-304
1.78183e-304
-2.95307e-308
-1.67427e-307
-3.75701e-308
-8.44238e-307
-2.41202e-308
-6.80662e-307
-2.53803e-308
-3.38076e-307
-2.41956e-308
-1.27674e-307
-1.81564e-308
-3.74077e-308
-1.13384e-308
-6.81772e-309
-6.20323e-309
1.0617e-309
-3.07177e-309
1.98408e-309
-1.40408e-309
1.38436e-309
-5.99147e-310
7.62158e-310
-2.39999e-310
3.72819e-310
-9.03044e-311
1.68729e-310
-3.17742e-311
7.17109e-311
-1.03306e-311
2.86631e-311
-3.02428e-312
1.06768e-311
-7.49576e-313
3.6168e-312
-1.29655e-313
1.02584e-312
1.40102e-313
-6.78663e-308
-5.40577e-307
-1.23463e-307
-1.84124e-306
-1.13835e-307
-1.33272e-306
-1.04171e-307
-6.34342e-307
-8.17405e-308
-2.3278e-307
-5.4819e-308
-6.45573e-308
-3.2401e-308
-8.71117e-309
-1.73484e-308
4.75202e-309
-8.57742e-309
5.43938e-309
-3.96466e-309
3.57881e-309
-1.72577e-309
1.95007e-309
-7.09852e-310
9.57605e-310
-2.75856e-310
4.37608e-310
-1.00842e-310
1.88516e-310
-3.43141e-311
7.67365e-311
-1.06269e-311
2.93434e-311
-2.83923e-312
1.03623e-311
-5.44263e-313
3.17848e-312
5.31267e-313
-1.48426e-307
-1.47036e-306
-2.96269e-307
-3.56794e-306
-2.92068e-307
-2.3053e-306
-2.48831e-307
-1.03582e-306
-1.79445e-307
-3.65353e-307
-1.13377e-307
-9.55432e-308
-6.46674e-308
-8.62694e-309
-3.40091e-308
1.09752e-308
-1.67225e-308
1.0751e-308
-7.75549e-309
6.90611e-309
-3.40968e-309
3.76251e-309
-1.42401e-309
1.86326e-309
-5.64493e-310
8.62434e-310
-2.11485e-310
3.77559e-310
-7.41614e-311
1.56803e-310
-2.38556e-311
6.15604e-311
-6.70895e-312
2.25833e-311
-1.38706e-312
7.3878e-312
1.43973e-312
-3.6405e-307
-3.8174e-306
-6.76845e-307
-6.64633e-306
-6.56939e-307
-3.81723e-306
-5.22422e-307
-1.61017e-306
-3.53837e-307
-5.44508e-307
-2.13793e-307
-1.34516e-307
-1.18573e-307
-6.5059e-309
-6.14282e-308
2.06257e-308
-3.00439e-308
1.87095e-308
-1.39608e-308
1.18903e-308
-6.18458e-309
6.50503e-309
-2.61462e-309
3.25449e-309
-1.05349e-309
1.52706e-309
-4.02801e-310
6.79562e-310
-1.4483e-310
2.87826e-310
-4.80766e-311
1.15826e-310
-1.41018e-311
4.39614e-311
-3.10162e-312
1.51879e-311
3.35626e-312
-9.62929e-307
-9.74e-306
-1.50805e-306
-1.1946e-305
-1.38463e-306
-6.08175e-306
-1.02641e-306
-2.41043e-306
-6.59055e-307
-7.84541e-307
-3.84138e-307
-1.84759e-307
-2.0842e-307
-2.31613e-309
-1.06752e-307
3.45096e-308
-5.20319e-308
3.00817e-308
-2.42411e-308
1.90719e-308
-1.0818e-308
1.05101e-308
-4.62544e-309
5.31912e-309
-1.89151e-309
2.53115e-309
-7.36586e-310
1.14481e-309
-2.70822e-310
4.94097e-310
-9.24323e-311
2.03445e-310
-2.81275e-311
7.96094e-311
-6.52867e-312
2.88325e-311
7.12148e-312
-2.64974e-306
-2.4338e-305
-3.29129e-306
-2.05127e-305
-2.77766e-306
-9.26869e-306
-1.91684e-306
-3.4738e-306
-1.1737e-306
-1.09764e-306
-6.64124e-307
-2.49942e-307
-3.54275e-307
3.60581e-309
-1.80035e-307
5.33169e-308
-8.76428e-308
4.56522e-308
-4.09875e-308
2.90485e-308
-1.84342e-308
1.61638e-308
-7.96975e-309
8.28325e-309
-3.3053e-309
3.99822e-309
-1.30928e-309
1.83715e-309
-4.91354e-310
8.07134e-310
-1.71988e-310
3.39373e-310
-5.41027e-311
1.36398e-310
-1.31885e-311
5.1356e-311
1.39275e-311
-7.39686e-306
-6.14117e-305
-7.05593e-306
-3.28854e-305
-5.33592e-306
-1.33554e-305
-3.42713e-306
-4.8046e-306
-2.01213e-306
-1.49377e-306
-1.11164e-306
-3.35405e-307
-5.85757e-307
9.53529e-309
-2.96348e-307
7.6955e-308
-1.4443e-307
6.58258e-308
-6.79067e-308
4.2251e-308
-3.08066e-308
2.37856e-308
-1.3472e-308
1.23491e-308
-5.66574e-309
6.04429e-309
-2.28159e-309
2.81857e-309
-8.73044e-310
1.25816e-309
-3.12858e-310
5.38553e-310
-1.01438e-310
2.21096e-310
-2.58568e-311
8.55407e-311
2.47744e-311
-2.00126e-305
-1.06303e-304
-1.46997e-305
-4.60872e-305
-9.68632e-306
-1.7764e-305
-5.8208e-306
-6.28285e-306
-3.30092e-306
-1.94384e-306
-1.79127e-306
-4.33231e-307
-9.36349e-307
1.78714e-308
-4.72977e-307
1.06284e-307
-2.31188e-307
9.09924e-308
-1.09382e-307
5.8893e-308
-5.0066e-308
3.35008e-308
-2.21386e-308
1.75889e-308
-9.43315e-309
8.70899e-309
-3.85637e-309
4.10936e-309
-1.50147e-309
1.8568e-309
-5.49252e-310
8.05031e-310
-1.82807e-310
3.34995e-310
-4.85797e-311
1.31305e-310
3.88651e-311
-1.36578e-302
-1.70236e-303
-2.74703e-302
-5.87133e-303
-4.21179e-302
-8.3275e-303
-5.81492e-302
-8.74009e-303
-7.60777e-302
-6.53036e-303
-9.63526e-302
-8.26871e-304
-1.19335e-301
9.59178e-303
-1.45271e-301
2.63876e-302
-1.74258e-301
5.17947e-302
-2.06219e-301
8.8815e-302
-2.36242e-301
1.41505e-301
-3.1792e-301
2.15237e-301
-1.4745e-301
3.06032e-301
-9.06972e-302
7.76606e-302
-5.19212e-302
1.725e-302
-3.41185e-302
5.1189e-303
-2.31375e-302
1.5997e-303
-1.58228e-302
4.73353e-304
-1.08376e-302
1.56804e-304
-7.43242e-303
1.0731e-304
-5.11667e-303
1.11649e-304
-3.5275e-303
7.09766e-305
-8.37676e-305
-2.13315e-303
-1.84983e-302
-2.42621e-303
-3.71878e-302
-8.04747e-303
-5.69453e-302
-1.16679e-302
-7.84852e-302
-1.28155e-302
-1.025e-301
-1.07766e-302
-1.29629e-301
-4.54486e-303
-1.60443e-301
7.23257e-303
-1.95428e-301
2.63242e-302
-2.34972e-301
5.50071e-302
-2.79351e-301
9.61786e-302
-3.22479e-301
1.53503e-301
-4.3294e-301
2.31359e-301
-2.09569e-301
3.2397e-301
-1.18048e-301
8.35726e-302
-6.58792e-302
1.97001e-302
-4.31885e-302
6.30656e-303
-2.94304e-302
2.23153e-303
-2.02827e-302
8.01674e-304
-1.39925e-302
2.99328e-304
-9.6147e-303
1.29828e-304
-6.53996e-303
5.47807e-305
-4.32267e-303
-2.72865e-305
-1.50939e-304
-2.58114e-303
-2.35449e-302
-3.40249e-303
-4.72772e-302
-1.09868e-302
-7.23119e-302
-1.62953e-302
-9.95445e-302
-1.87214e-302
-1.29858e-301
-1.74246e-302
-1.6409e-301
-1.12792e-302
-2.03015e-301
1.16758e-303
-2.47336e-301
2.17448e-302
-2.9767e-301
5.27083e-302
-3.54536e-301
9.67818e-302
-4.10924e-301
1.5719e-301
-5.48372e-301
2.37414e-301
-2.73142e-301
3.30483e-301
-1.46567e-301
8.65309e-302
-8.03738e-302
2.11334e-302
-5.23691e-302
7.02965e-303
-3.5646e-302
2.63159e-303
-2.45894e-302
1.01641e-303
-1.69736e-302
3.94866e-304
-1.16329e-302
1.48587e-304
-7.83803e-303
3.11806e-305
-5.08355e-303
-5.56677e-305
-1.34758e-304
-3.01128e-303
-2.88287e-302
-4.74244e-303
-5.77779e-302
-1.50274e-302
-8.82467e-302
-2.27551e-302
-1.21324e-301
-2.71856e-302
-1.58091e-301
-2.73519e-302
-1.99582e-301
-2.20163e-302
-2.46765e-301
-9.63817e-303
-3.00527e-301
1.16545e-302
-3.61661e-301
4.40837e-302
-4.30842e-301
9.021e-302
-5.00007e-301
1.52897e-301
-6.6367e-301
2.3497e-301
-3.37159e-301
3.2875e-301
-1.76134e-301
8.72189e-302
-9.54863e-302
2.16114e-302
-6.18006e-302
7.2501e-303
-4.19224e-302
2.75131e-303
-2.88653e-302
1.08024e-303
-1.98913e-302
4.20521e-304
-1.3593e-302
1.50508e-304
-9.11142e-303
2.60833e-305
-5.87005e-303
-4.76863e-305
-9.49391e-305
-3.47582e-303
-3.43752e-302
-6.57491e-303
-6.87253e-302
-2.05526e-302
-1.04784e-301
-3.16697e-302
-1.43845e-301
-3.90424e-302
-1.87199e-301
-4.15703e-302
-2.36078e-301
-3.78978e-302
-2.91631e-301
-2.63933e-302
-3.54911e-301
-5.13241e-303
-4.26848e-301
2.80971e-302
-5.08232e-301
7.5756e-302
-5.89893e-301
1.40483e-301
-7.79377e-301
2.24711e-301
-4.02004e-301
3.20359e-301
-2.06756e-301
8.59573e-302
-1.11233e-301
2.11558e-302
-7.15491e-302
6.93496e-303
-4.83415e-302
2.54893e-303
-3.31914e-302
9.557e-304
-2.28185e-302
3.45693e-304
-1.55551e-302
1.09338e-304
-1.03983e-302
1.24711e-305
-6.685e-303
-3.41527e-305
-5.60756e-305
-3.96495e-303
-4.02076e-302
-9.05094e-303
-8.01515e-302
-2.80088e-302
-1.21962e-301
-4.37645e-302
-1.67155e-301
-5.52689e-302
-2.17244e-301
-6.12683e-302
-2.73667e-301
-6.02744e-302
-3.37756e-301
-5.05468e-302
-4.10717e-301
-3.00838e-302
-4.93604e-301
3.36798e-303
-5.87301e-301
5.22587e-302
-6.81521e-301
1.19159e-301
-8.96882e-301
2.06359e-301
-4.68603e-301
3.0557e-301
-2.38572e-301
8.26722e-302
-1.27635e-301
1.9663e-302
-8.16492e-302
5.99787e-303
-5.49472e-302
1.95593e-303
-3.76135e-302
5.88988e-304
-2.57959e-302
1.27814e-304
-1.75487e-302
-9.92381e-306
-1.17118e-302
-3.98828e-305
-7.52436e-303
-4.01082e-305
-3.19729e-305
-4.47005e-303
-4.63394e-302
-1.23506e-302
-9.20701e-302
-3.79235e-302
-1.39797e-301
-5.98978e-302
-1.91286e-301
-7.70211e-302
-2.48299e-301
-8.78566e-302
-3.12497e-301
-9.07582e-302
-3.85403e-301
-8.38544e-302
-4.68379e-301
-6.50301e-302
-5.626e-301
-3.19325e-302
-6.69043e-301
1.79826e-302
-7.76295e-301
8.73775e-302
-1.01808e-300
1.78628e-301
-5.38237e-301
2.83393e-301
-2.71841e-301
7.68715e-302
-1.44743e-301
1.68613e-302
-9.21261e-302
4.26675e-303
-6.17629e-302
8.56364e-304
-4.21541e-302
-1.0089e-304
-2.88424e-302
-2.91405e-304
-1.95857e-302
-2.50472e-304
-1.30554e-302
-1.63346e-304
-8.38465e-303
-8.82257e-305
-3.44806e-305
-4.98682e-303
-5.27584e-302
-1.66912e-302
-1.04442e-301
-5.09278e-302
-1.58237e-301
-8.10937e-302
-2.16196e-301
-1.05677e-301
-2.80371e-301
-1.23013e-301
-3.52674e-301
-1.31274e-301
-4.34838e-301
-1.28431e-301
-5.28391e-301
-1.12229e-301
-6.34634e-301
-8.01534e-302
-7.54637e-301
-2.94674e-302
-8.75864e-301
4.27434e-302
-1.14514e-300
1.39164e-301
-6.12396e-301
2.51557e-301
-3.06903e-301
6.76006e-302
-1.62625e-301
1.2281e-302
-1.02998e-301
1.46467e-303
-6.87956e-302
-9.24402e-304
-4.68183e-302
-1.22763e-303
-3.19616e-302
-9.87728e-304
-2.16674e-302
-6.63754e-304
-1.44273e-302
-3.92894e-304
-9.26232e-303
-2.01049e-304
-7.58161e-305
-5.51248e-303
-5.94009e-302
-2.2339e-302
-1.17124e-301
-6.77852e-302
-1.77079e-301
-1.08586e-301
-2.41667e-301
-1.42883e-301
-3.13281e-301
-1.68734e-301
-3.94127e-301
-1.84101e-301
-4.86175e-301
-1.86796e-301
-5.91132e-301
-1.74402e-301
-7.10433e-301
-1.44207e-301
-8.45241e-301
-9.31891e-302
-9.81902e-301
-1.80355e-302
-1.28032e-300
8.44796e-302
-6.92655e-301
2.06401e-301
-3.4413e-301
5.33706e-302
-1.81341e-301
5.22507e-303
-1.14269e-301
-2.80163e-303
-7.6035e-302
-3.62326e-303
-5.15953e-302
-2.93753e-303
-3.51445e-302
-2.05289e-303
-2.37863e-302
-1.30802e-303
-1.58212e-302
-7.65541e-304
-1.01524e-302
-4.01333e-304
-1.68607e-304
-6.04397e-303
-6.61143e-302
-2.96264e-302
-1.29793e-301
-8.94347e-302
-1.95868e-301
-1.43874e-301
-2.67171e-301
-1.9062e-301
-3.46511e-301
-2.27387e-301
-4.36436e-301
-2.5192e-301
-5.39184e-301
-2.6189e-301
-6.56656e-301
-2.54747e-301
-7.90424e-301
-2.27567e-301
-9.4175e-301
-1.76987e-301
-1.09586e-300
-9.91617e-302
-1.42566e-300
9.89587e-303
-7.80485e-301
1.42744e-301
-3.83852e-301
3.20685e-302
-2.00917e-301
-5.25438e-303
-1.25909e-301
-9.04255e-303
-8.34475e-302
-7.53258e-303
-5.64571e-302
-5.40154e-303
-3.83704e-302
-3.58804e-303
-2.59272e-302
-2.24379e-303
-1.72261e-302
-1.31774e-303
-1.10473e-302
-7.10705e-304
-3.24915e-304
-6.57687e-303
-7.26025e-302
-3.89804e-302
-1.41841e-301
-1.17056e-301
-2.13746e-301
-1.88815e-301
-2.91698e-301
-2.51285e-301
-3.79012e-301
-3.01774e-301
-4.78628e-301
-3.37837e-301
-5.93073e-301
-3.57087e-301
-7.24452e-301
-3.56911e-301
-8.74474e-301
-3.34227e-301
-1.0445e-300
-2.8531e-301
-1.21863e-300
-2.05699e-301
-1.58271e-300
-9.04427e-302
-8.77019e-301
5.37906e-302
-4.26264e-301
8.82765e-304
-2.21293e-301
-2.03562e-302
-1.3784e-301
-1.7863e-302
-9.09688e-302
-1.29754e-302
-6.13566e-302
-8.79524e-303
-4.16058e-302
-5.68976e-303
-2.80668e-302
-3.52512e-303
-1.86259e-302
-2.08032e-303
-1.19365e-302
-1.14687e-303
-5.54627e-304
-7.10472e-303
-7.83451e-302
-5.09733e-302
-1.52213e-301
-1.52179e-301
-2.29246e-301
-2.45747e-301
-3.13528e-301
-3.27808e-301
-4.08972e-301
-3.95209e-301
-5.18939e-301
-4.45422e-301
-6.46242e-301
-4.76163e-301
-7.93178e-301
-4.8493e-301
-9.61587e-301
-4.68593e-301
-1.15292e-300
-4.23123e-301
-1.35018e-300
-3.43421e-301
-1.752e-300
-2.23443e-301
-9.82699e-301
-6.88152e-302
-4.71286e-301
-4.36977e-302
-2.42276e-301
-4.14671e-302
-1.49915e-301
-2.98928e-302
-9.84963e-302
-2.02501e-302
-6.62242e-302
-1.32609e-302
-4.48032e-302
-8.42653e-303
-3.01722e-302
-5.18591e-303
-1.9998e-302
-3.07095e-303
-1.28047e-302
-1.71961e-303
-8.63386e-304
-7.61817e-303
-8.24626e-302
-6.64216e-302
-1.59168e-301
-1.96869e-301
-2.40001e-301
-3.17706e-301
-3.29938e-301
-4.23819e-301
-4.33545e-301
-5.11613e-301
-5.5457e-301
-5.78711e-301
-6.96046e-301
-6.23249e-301
-8.6041e-301
-6.4311e-301
-1.04961e-300
-6.35324e-301
-1.26519e-300
-5.95686e-301
-1.48909e-300
-5.18538e-301
-1.93255e-300
-3.96742e-301
-1.09686e-300
-2.34694e-301
-5.18395e-301
-1.05709e-301
-2.6349e-301
-6.99675e-302
-1.61898e-301
-4.56347e-302
-1.05881e-301
-2.95296e-302
-7.09627e-302
-1.88474e-302
-4.78964e-302
-1.18051e-302
-3.2197e-302
-7.22206e-303
-2.13098e-302
-4.28496e-303
-1.36299e-302
-2.42615e-303
-1.25026e-303
-8.1035e-303
-8.34743e-302
-8.65935e-302
-1.59853e-301
-2.5405e-301
-2.42294e-301
-4.08738e-301
-3.36819e-301
-5.43869e-301
-4.48563e-301
-6.556e-301
-5.81468e-301
-7.42198e-301
-7.38608e-301
-8.02729e-301
-9.2244e-301
-8.35873e-301
-1.13498e-300
-8.39105e-301
-1.3779e-300
-8.08249e-301
-1.63208e-300
-7.37274e-301
-2.12125e-300
-6.18166e-301
-1.21724e-300
-4.54067e-301
-5.66411e-301
-1.8918e-301
-2.84308e-301
-1.06792e-301
-1.73443e-301
-6.51843e-302
-1.12915e-301
-4.07045e-302
-7.54347e-302
-2.54291e-302
-5.07897e-302
-1.57309e-302
-3.40733e-302
-9.57245e-303
-2.25134e-302
-5.68621e-303
-1.43797e-302
-3.24663e-303
-1.70548e-303
-8.54029e-303
-7.87867e-302
-1.1367e-301
-1.49533e-301
-3.28086e-301
-2.30348e-301
-5.24382e-301
-3.28177e-301
-6.93685e-301
-4.4825e-301
-8.32535e-301
-5.94194e-301
-9.40742e-301
-7.68753e-301
-1.01908e-300
-9.74225e-301
-1.06754e-300
-1.21265e-300
-1.08439e-300
-1.48584e-300
-1.06569e-300
-1.77377e-300
-1.00533e-300
-2.31247e-300
-8.94912e-301
-1.3395e-300
-7.3666e-301
-6.13186e-301
-2.96899e-301
-3.03769e-301
-1.51567e-301
-1.84047e-301
-8.77854e-302
-1.19288e-301
-5.31804e-302
-7.94303e-302
-3.26202e-302
-5.33341e-302
-1.99732e-302
-3.56949e-302
-1.21048e-302
-2.35351e-302
-7.20086e-303
-1.50051e-302
-4.14099e-303
-2.20865e-303
-8.8985e-303
-6.34747e-302
-1.51697e-301
-1.20046e-301
-4.2576e-301
-1.95175e-301
-6.72295e-301
-2.95534e-301
-8.80372e-301
-4.25053e-301
-1.04845e-300
-5.85981e-301
-1.17936e-300
-7.80171e-301
-1.2766e-300
-1.00955e-300
-1.34209e-300
-1.27619e-300
-1.37512e-300
-1.58212e-300
-1.37217e-300
-1.90656e-300
-1.3273e-300
-2.4978e-300
-1.23251e-300
-1.45663e-300
-1.09013e-300
-6.54975e-301
-4.27545e-301
-3.20361e-301
-2.01051e-301
-1.9292e-301
-1.11239e-301
-1.24496e-301
-6.56876e-302
-8.26017e-302
-3.97239e-302
-5.5287e-302
-2.41548e-302
-3.68955e-302
-1.46145e-302
-2.42643e-302
-8.71716e-303
-1.54357e-302
-5.04839e-303
-2.72787e-303
-9.13634e-303
-2.69271e-302
-2.08202e-301
-5.66033e-302
-5.57654e-301
-1.22789e-301
-8.62734e-301
-2.27393e-301
-1.11222e-300
-3.6981e-301
-1.30959e-300
-5.49202e-301
-1.46276e-300
-7.65919e-301
-1.57908e-300
-1.02152e-300
-1.66285e-300
-1.31828e-300
-1.7145e-300
-1.65866e-300
-1.73083e-300
-2.02116e-300
-1.7061e-300
-2.66646e-300
-1.63368e-300
-1.55779e-300
-1.51794e-300
-6.84694e-301
-5.6841e-301
-3.31525e-301
-2.46684e-301
-1.98681e-301
-1.31393e-301
-1.27654e-301
-7.62577e-302
-8.43615e-302
-4.57818e-302
-5.62643e-302
-2.77878e-302
-3.743e-302
-1.68425e-302
-2.45486e-302
-1.00932e-302
-1.55797e-302
-5.88996e-303
-3.22034e-303
-9.20184e-303
5.76221e-302
-2.67202e-301
6.88085e-302
-7.13008e-301
8.14689e-303
-1.08201e-300
-1.0933e-301
-1.37154e-300
-2.72752e-301
-1.59528e-300
-4.76439e-301
-1.76842e-300
-7.19323e-301
-1.90301e-300
-1.0033e-300
-2.00593e-300
-1.33154e-300
-2.07856e-300
-1.70716e-300
-2.11752e-300
-2.10767e-300
-2.11663e-300
-2.80669e-300
-2.06623e-300
-1.62543e-300
-2.0156e-300
-6.87351e-301
-6.68713e-301
-3.32737e-301
-2.70695e-301
-1.98802e-301
-1.42357e-301
-1.27231e-301
-8.26324e-302
-8.37951e-302
-4.97849e-302
-5.57296e-302
-3.03657e-302
-3.69878e-302
-1.8514e-302
-2.42101e-302
-1.11731e-302
-1.53373e-302
-6.57587e-303
-3.63549e-303
-9.04146e-303
2.66791e-301
-6.22556e-301
3.08919e-301
-1.19483e-300
2.26323e-301
-1.6262e-300
7.2668e-302
-1.9511e-300
-1.26825e-301
-2.19718e-300
-3.62872e-301
-2.38781e-300
-6.35392e-301
-2.53986e-300
-9.48942e-301
-2.66265e-300
-1.30928e-300
-2.75823e-300
-1.72071e-300
-2.82249e-300
-2.15371e-300
-2.84799e-300
-2.91063e-300
-2.83216e-300
-1.63574e-300
-1.70221e-300
-6.35171e-301
-5.8402e-301
-3.1493e-301
-2.5603e-301
-1.88536e-301
-1.40453e-301
-1.20913e-301
-8.34336e-302
-7.97637e-302
-5.10304e-302
-5.31141e-302
-3.14857e-302
-3.52795e-302
-1.93887e-302
-2.30996e-302
-1.18114e-302
-1.46315e-302
-7.01828e-303
-3.92188e-303
-8.61715e-303
7.8932e-301
-8.26471e-302
7.12035e-301
-5.33281e-301
5.36565e-301
-8.3909e-301
3.10798e-301
-1.06088e-300
5.86535e-302
-1.22607e-300
-2.15228e-301
-1.35288e-300
-5.17165e-301
-1.45365e-300
-8.58291e-301
-1.53488e-300
-1.24986e-300
-1.5972e-300
-1.69884e-300
-1.63496e-300
-2.20228e-300
-1.63503e-300
-1.82028e-300
-1.58262e-300
-8.58487e-301
-8.27349e-301
-4.27661e-301
-3.92969e-301
-2.5398e-301
-2.14485e-301
-1.61755e-301
-1.27552e-301
-1.06823e-301
-7.87607e-302
-7.16299e-302
-4.93222e-302
-4.81845e-302
-3.09519e-302
-3.22167e-302
-1.93197e-302
-2.11843e-302
-1.19075e-302
-1.34516e-302
-7.15133e-303
-4.03864e-303
-7.92687e-303
3.67719e-301
-2.96374e-301
2.58828e-301
-4.62341e-301
1.71199e-301
-5.50037e-301
8.17674e-302
-6.135e-301
-1.03079e-302
-6.60772e-301
-1.08753e-301
-6.9562e-301
-2.18212e-301
-7.20758e-301
-3.42766e-301
-7.37457e-301
-4.82468e-301
-7.44837e-301
-6.25085e-301
-7.38466e-301
-7.17793e-301
-7.06856e-301
-6.14258e-301
-6.30336e-301
-4.05548e-301
-4.20678e-301
-2.71852e-301
-2.67028e-301
-1.85409e-301
-1.69044e-301
-1.27426e-301
-1.08362e-301
-8.79108e-302
-6.98799e-302
-6.05746e-302
-4.50354e-302
-4.14825e-302
-2.88612e-302
-2.80732e-302
-1.83139e-302
-1.86117e-302
-1.14423e-302
-1.18796e-302
-6.95301e-303
-3.96788e-303
-7.01587e-303
3.84715e-302
-1.86601e-301
2.16934e-302
-2.6165e-301
6.39251e-303
-2.9538e-301
-1.59739e-302
-3.2195e-301
-4.46605e-302
-3.42305e-301
-7.96517e-302
-3.5667e-301
-1.21192e-301
-3.65632e-301
-1.68717e-301
-3.69684e-301
-2.19056e-301
-3.68846e-301
-2.63763e-301
-3.62262e-301
-2.851e-301
-3.47591e-301
-2.66225e-301
-3.18654e-301
-2.20409e-301
-2.53357e-301
-1.72028e-301
-1.83914e-301
-1.29342e-301
-1.28048e-301
-9.48746e-302
-8.73503e-302
-6.84001e-302
-5.87628e-302
-4.85921e-302
-3.904e-302
-3.40033e-302
-2.5602e-302
-2.33698e-302
-1.65445e-302
-1.56639e-302
-1.04918e-302
-1.00706e-302
-6.45474e-303
-3.72122e-303
-5.9676e-303
-3.24889e-302
-9.93245e-302
-2.86852e-302
-1.5402e-301
-2.82825e-302
-1.79851e-301
-3.34874e-302
-1.97527e-301
-4.3814e-302
-2.10053e-301
-5.86915e-302
-2.1836e-301
-7.75488e-302
-2.23066e-301
-9.92849e-302
-2.24653e-301
-1.21567e-301
-2.23352e-301
-1.40231e-301
-2.18885e-301
-1.49443e-301
-2.09973e-301
-1.45616e-301
-1.93158e-301
-1.30873e-301
-1.62975e-301
-1.10237e-301
-1.27342e-301
-8.82788e-302
-9.44682e-302
-6.8072e-302
-6.76951e-302
-5.09976e-302
-4.7287e-302
-3.7302e-302
-3.23443e-302
-2.66862e-302
-2.17053e-302
-1.86487e-302
-1.42898e-302
-1.26537e-302
-9.20125e-303
-8.20342e-303
-5.73162e-303
-3.33622e-303
-4.88025e-303
-3.45999e-302
-5.21223e-302
-3.31802e-302
-9.12066e-302
-3.1554e-302
-1.12223e-301
-3.24329e-302
-1.26014e-301
-3.63315e-302
-1.35286e-301
-4.30533e-302
-1.41184e-301
-5.21455e-302
-1.44398e-301
-6.27856e-302
-1.45407e-301
-7.35849e-302
-1.44454e-301
-8.25346e-302
-1.41404e-301
-8.73868e-302
-1.3548e-301
-8.67964e-302
-1.25036e-301
-8.09272e-302
-1.08481e-301
-7.11291e-302
-8.83855e-302
-5.93968e-302
-6.8427e-302
-4.75521e-302
-5.09176e-302
-3.67715e-302
-3.67099e-302
-2.76026e-302
-2.5774e-302
-2.01618e-302
-1.76732e-302
-1.43215e-302
-1.18452e-302
-9.8392e-303
-7.74085e-303
-6.43397e-303
-4.87995e-303
-2.8653e-303
-3.84249e-303
-2.56765e-302
-2.78342e-302
-2.66362e-302
-5.40363e-302
-2.6108e-302
-7.00531e-302
-2.6252e-302
-8.09035e-302
-2.78399e-302
-8.82067e-302
-3.09676e-302
-9.28477e-302
-3.5428e-302
-9.54196e-302
-4.07492e-302
-9.63312e-302
-4.61782e-302
-9.57949e-302
-5.07333e-302
-9.37475e-302
-5.34078e-302
-8.97574e-302
-5.35161e-302
-8.30705e-302
-5.08884e-302
-7.32136e-302
-4.59213e-302
-6.12213e-302
-3.94737e-302
-4.8815e-302
-3.25077e-302
-3.73767e-302
-2.57902e-302
-2.76512e-302
-1.97939e-302
-1.98556e-302
-1.47299e-302
-1.38805e-302
-1.06232e-302
-9.45722e-303
-7.38559e-303
-6.266e-303
-4.86977e-303
-3.99412e-303
-2.36291e-303
-2.91819e-303
-1.7103e-302
-1.51164e-302
-1.88505e-302
-3.19923e-302
-1.91447e-302
-4.34779e-302
-1.93725e-302
-5.17007e-302
-2.0159e-302
-5.74138e-302
-2.16857e-302
-6.11427e-302
-2.3905e-302
-6.33002e-302
-2.65909e-302
-6.41895e-302
-2.93632e-302
-6.3976e-302
-3.17366e-302
-6.26446e-302
-3.32144e-302
-5.99807e-302
-3.34103e-302
-5.56577e-302
-3.21448e-302
-4.95518e-302
-2.95203e-302
-4.21538e-302
-2.59078e-302
-3.43216e-302
-2.18005e-302
-2.68555e-302
-1.76556e-302
-2.02834e-302
-1.38059e-302
-1.48428e-302
-1.04421e-302
-1.05518e-302
-7.63428e-303
-7.29511e-303
-5.36573e-303
-4.89378e-303
-3.56495e-303
-3.15043e-303
-1.87538e-303
-2.14183e-303
-1.07798e-302
-8.29948e-303
-1.24668e-302
-1.88994e-302
-1.30801e-302
-2.6774e-302
-1.34343e-302
-3.27481e-302
-1.39365e-302
-3.70805e-302
-1.47458e-302
-4.00187e-302
-1.58817e-302
-4.18052e-302
-1.72543e-302
-4.26376e-302
-1.86847e-302
-4.26332e-302
-1.99335e-302
-4.18029e-302
-2.07443e-302
-4.00539e-302
-2.0895e-302
-3.72575e-302
-2.02531e-302
-3.34049e-302
-1.88281e-302
-2.87589e-302
-1.6779e-302
-2.37737e-302
-1.43562e-302
-1.89124e-302
-1.18211e-302
-1.45219e-302
-9.38838e-303
-1.07941e-302
-7.20061e-303
-7.78394e-303
-5.32794e-303
-5.45031e-303
-3.78129e-303
-3.69625e-303
-2.52919e-303
-2.40002e-303
-1.43556e-303
-1.52202e-303
-6.54322e-303
-4.58239e-303
-7.87336e-303
-1.11195e-302
-8.50064e-303
-1.63384e-302
-8.88264e-303
-2.05172e-302
-9.25664e-303
-2.36852e-302
-9.73119e-303
-2.59235e-302
-1.03407e-302
-2.73509e-302
-1.10585e-302
-2.80812e-302
-1.18066e-302
-2.81904e-302
-1.24689e-302
-2.76979e-302
-1.29113e-302
-2.65725e-302
-1.30071e-302
-2.47738e-302
-1.2669e-302
-2.2328e-302
-1.18817e-302
-1.93888e-302
-1.07117e-302
-1.62089e-302
-9.28529e-303
-1.30591e-302
-7.74876e-303
-1.01598e-302
-6.23411e-303
-7.64895e-303
-4.83839e-303
-5.58242e-303
-3.61745e-303
-3.95143e-303
-2.58927e-303
-2.70497e-303
-1.74187e-303
-1.76916e-303
-1.06184e-303
-1.04886e-303
-3.85332e-303
-2.53414e-303
-4.79499e-303
-6.50259e-303
-5.30896e-303
-9.86741e-303
-5.64489e-303
-1.26952e-302
-5.93194e-303
-1.49311e-302
-6.23454e-303
-1.65744e-302
-6.58147e-303
-1.76688e-302
-6.97029e-303
-1.82711e-302
-7.36989e-303
-1.84255e-302
-7.72543e-303
-1.81506e-302
-7.96719e-303
-1.74424e-302
-8.02397e-303
-1.62972e-302
-7.84172e-303
-1.47475e-302
-7.40259e-303
-1.28883e-302
-6.73337e-303
-1.08659e-302
-5.89732e-303
-8.84051e-303
-4.97524e-303
-6.94968e-303
-4.04584e-303
-5.28689e-303
-3.17166e-303
-3.89711e-303
-2.39253e-303
-2.78384e-303
-1.72512e-303
-1.92085e-303
-1.16611e-303
-1.26385e-303
-7.60137e-304
-7.0186e-304
-2.21011e-303
-1.39909e-303
-2.83075e-303
-3.77192e-303
-3.20466e-303
-5.88978e-303
-3.46489e-303
-7.7474e-303
-3.6785e-303
-9.27409e-303
-3.88014e-303
-1.04378e-302
-4.08869e-303
-1.12434e-302
-4.30833e-303
-1.17134e-302
-4.52804e-303
-1.18707e-302
-4.7226e-303
-1.1729e-302
-4.85619e-303
-1.12941e-302
-4.88953e-303
-1.05749e-302
-4.79046e-303
-9.60036e-303
-4.54496e-303
-8.43106e-303
-4.16309e-303
-7.154e-303
-3.67648e-303
-5.8649e-303
-3.1293e-303
-4.64869e-303
-2.56746e-303
-3.56636e-303
-2.02977e-303
-2.65052e-303
-1.54282e-303
-1.90783e-303
-1.11942e-303
-1.32512e-303
-7.5962e-304
-8.76075e-304
-5.27363e-304
-4.56546e-304
-1.23783e-303
-7.68942e-304
-1.62542e-303
-2.1659e-303
-1.87668e-303
-3.46944e-303
-2.0611e-303
-4.65682e-303
-2.21233e-303
-5.66731e-303
-2.34755e-303
-6.46354e-303
-2.47746e-303
-7.03425e-303
-2.60642e-303
-7.38379e-303
-2.73115e-303
-7.52181e-303
-2.84026e-303
-7.45705e-303
-2.91557e-303
-7.19695e-303
-2.93578e-303
-6.75274e-303
-2.8823e-303
-6.14712e-303
-2.74562e-303
-5.41905e-303
-2.52911e-303
-4.62119e-303
-2.24855e-303
-3.81105e-303
-1.9279e-303
-3.0406e-303
-1.5935e-303
-2.3486e-303
-1.26876e-303
-1.75724e-303
-9.70596e-304
-1.27283e-303
-7.07963e-304
-8.88873e-304
-4.81865e-304
-5.89852e-304
-3.54976e-304
-2.88917e-304
-6.78591e-304
-4.19641e-304
-9.1031e-304
-1.22883e-303
-1.06932e-303
-2.01392e-303
-1.19133e-303
-2.75336e-303
-1.29285e-303
-3.40276e-303
-1.38184e-303
-3.93016e-303
-1.46371e-303
-4.32019e-303
-1.5414e-303
-4.56922e-303
-1.61418e-303
-4.67967e-303
-1.67694e-303
-4.65623e-303
-1.72048e-303
-4.50509e-303
-1.73337e-303
-4.23595e-303
-1.70514e-303
-3.86522e-303
-1.62982e-303
-3.41791e-303
-1.50829e-303
-2.92613e-303
-1.34842e-303
-2.42446e-303
-1.16314e-303
-1.94444e-303
-9.67342e-304