/*--------------------------------*- C++ -*----------------------------------*\
| =========                 |                                                 |
| \\      /  F ield         | OpenFOAM: The Open Source CFD Toolbox           |
|  \\    /   O peration     | Version:  2406                                  |
|   \\  /    A nd           | Website:  www.openfoam.com                      |
|    \\/     M anipulation  |                                                 |
\*---------------------------------------------------------------------------*/
FoamFile
{
    version     2.0;
    format      ascii;
    arch        "LSB;label=32;scalar=64";
    class       volVectorField;
    location    "0.5";
    object      U;
}
// * * * * * * * * * * * * * * * * * * * * * * * * * * * * * * * * * * * * * //

dimensions      [0 1 -1 0 0 0 0];

internalField   nonuniform List<vector> 
2268
(
(-1.4052e-300 -4.14465e-301 0)
(-4.05747e-300 -1.79793e-300 0)
(-6.9043e-300 -2.3645e-300 0)
(-1.00215e-299 -2.4417e-300 0)
(-1.35425e-299 -1.93003e-300 0)
(-1.7541e-299 -5.58e-301 0)
(-2.20087e-299 2.13049e-300 0)
(-2.67932e-299 6.8457e-300 0)
(-3.14437e-299 1.47431e-299 0)
(-3.47268e-299 2.78547e-299 0)
(-3.23632e-299 5.02135e-299 0)
(-6.20978e-300 8.64392e-299 0)
(1.69554e-298 1.59961e-298 0)
(-1.09907e-299 6.21938e-299 0)
(-7.69291e-299 9.92458e-300 0)
(-4.61623e-299 -7.73349e-300 0)
(-2.55392e-299 -7.82681e-300 0)
(-1.4005e-299 -5.1239e-300 0)
(-7.70656e-300 -2.7233e-300 0)
(-4.20735e-300 -1.1521e-300 0)
(-2.19353e-300 -2.72588e-301 0)
(-9.84385e-301 1.10364e-301 0)
(-1.74795e-301 1.05819e-301 0)
(-4.39209e-300 -8.69686e-301 0)
(-1.25908e-299 -4.28962e-300 0)
(-2.11658e-299 -5.84176e-300 0)
(-3.05696e-299 -5.90445e-300 0)
(-4.1156e-299 -4.15026e-300 0)
(-5.31165e-299 2.15691e-301 0)
(-6.63986e-299 8.4876e-300 0)
(-8.05151e-299 2.26862e-299 0)
(-9.41228e-299 4.59462e-299 0)
(-1.03936e-298 8.34174e-299 0)
(-1.01542e-298 1.44208e-298 0)
(-6.23501e-299 2.46702e-298 0)
(6.01963e-299 4.10278e-298 0)
(-7.30586e-299 1.32726e-298 0)
(-1.02438e-298 1.85116e-299 0)
(-6.45611e-299 -4.63162e-300 0)
(-3.87221e-299 -7.136e-300 0)
(-2.273e-299 -5.16452e-300 0)
(-1.32601e-299 -2.84203e-300 0)
(-7.66555e-300 -1.14237e-300 0)
(-4.29306e-300 -1.0027e-301 0)
(-2.17287e-300 4.17854e-301 0)
(-5.89162e-301 4.15996e-301 0)
(-7.39257e-300 -1.47425e-300 0)
(-2.14329e-299 -6.62569e-300 0)
(-3.61192e-299 -9.09011e-300 0)
(-5.22252e-299 -9.09408e-300 0)
(-7.03633e-299 -6.03248e-300 0)
(-9.09018e-299 1.38301e-300 0)
(-1.13839e-298 1.52649e-299 0)
(-1.38542e-298 3.88203e-299 0)
(-1.632e-298 7.70067e-299 0)
(-1.83658e-298 1.37672e-298 0)
(-1.90863e-298 2.34337e-298 0)
(-1.63475e-298 3.93744e-298 0)
(-9.06655e-299 6.34916e-298 0)
(-1.35371e-298 1.80977e-298 0)
(-1.21133e-298 2.6631e-299 0)
(-7.82155e-299 -7.08856e-301 0)
(-4.89719e-299 -5.38482e-300 0)
(-2.99882e-299 -4.44045e-300 0)
(-1.81747e-299 -2.50666e-300 0)
(-1.09057e-299 -9.01007e-301 0)
(-6.38578e-300 1.71326e-301 0)
(-3.45918e-300 7.68998e-301 0)
(-1.15214e-300 7.89364e-301 0)
(-1.05759e-299 -2.12467e-300 0)
(-3.09469e-299 -8.92442e-300 0)
(-5.2282e-299 -1.22774e-299 0)
(-7.5673e-299 -1.21877e-299 0)
(-1.0202e-298 -7.76936e-300 0)
(-1.31924e-298 2.77595e-300 0)
(-1.65537e-298 2.22908e-299 0)
(-2.02266e-298 5.51156e-299 0)
(-2.40238e-298 1.07771e-298 0)
(-2.75283e-298 1.90472e-298 0)
(-2.99336e-298 3.20066e-298 0)
(-2.96313e-298 5.27474e-298 0)
(-2.70107e-298 8.23434e-298 0)
(-1.97109e-298 2.19458e-298 0)
(-1.42675e-298 3.52755e-299 0)
(-9.27109e-299 3.22346e-300 0)
(-5.94723e-299 -3.43472e-300 0)
(-3.75156e-299 -3.49865e-300 0)
(-2.34284e-299 -2.02021e-300 0)
(-1.45055e-299 -5.7545e-301 0)
(-8.82653e-300 4.8751e-301 0)
(-5.06589e-300 1.16448e-300 0)
(-1.95665e-300 1.26028e-300 0)
(-1.40869e-299 -2.82171e-300 0)
(-4.14714e-299 -1.13319e-299 0)
(-7.01692e-299 -1.56024e-299 0)
(-1.01601e-298 -1.54309e-299 0)
(-1.3698e-298 -9.60835e-300 0)
(-1.77193e-298 4.11831e-300 0)
(-2.22636e-298 2.93259e-299 0)
(-2.72928e-298 7.13152e-299 0)
(-3.26423e-298 1.38047e-298 0)
(-3.79431e-298 2.41606e-298 0)
(-4.25292e-298 4.01348e-298 0)
(-4.51967e-298 6.49573e-298 0)
(-4.68973e-298 9.87338e-298 0)
(-2.625e-298 2.54518e-298 0)
(-1.68781e-298 4.40485e-299 0)
(-1.09473e-298 6.97439e-300 0)
(-7.12527e-299 -1.54066e-300 0)
(-4.59413e-299 -2.53534e-300 0)
(-2.94003e-299 -1.5071e-300 0)
(-1.87039e-299 -2.43055e-301 0)
(-1.17805e-299 7.92759e-301 0)
(-7.13034e-300 1.55536e-300 0)
(-3.10399e-300 1.79933e-300 0)
(-1.80537e-299 -3.5894e-300 0)
(-5.33361e-299 -1.39676e-299 0)
(-9.03006e-299 -1.926e-299 0)
(-1.30705e-298 -1.90457e-299 0)
(-1.76103e-298 -1.18208e-299 0)
(-2.27708e-298 5.16001e-300 0)
(-2.86242e-298 3.6091e-299 0)
(-3.51658e-298 8.72092e-299 0)
(-4.22742e-298 1.67606e-298 0)
(-4.96505e-298 2.90956e-298 0)
(-5.67621e-298 4.7823e-298 0)
(-6.26424e-298 7.62281e-298 0)
(-6.83777e-298 1.13747e-297 0)
(-3.33613e-298 2.88429e-298 0)
(-1.99583e-298 5.28427e-299 0)
(-1.28991e-298 1.05651e-299 0)
(-8.47949e-299 2.48864e-301 0)
(-5.56115e-299 -1.61495e-300 0)
(-3.63179e-299 -1.02178e-300 0)
(-2.36497e-299 4.8862e-302 0)
(-1.53562e-299 1.03205e-300 0)
(-9.77027e-300 1.85967e-300 0)
(-4.76967e-300 2.2867e-300 0)
(-2.25961e-299 -4.46683e-300 0)
(-6.68715e-299 -1.69568e-299 0)
(-1.13205e-298 -2.34348e-299 0)
(-1.63698e-298 -2.32912e-299 0)
(-2.20263e-298 -1.46746e-299 0)
(-2.84481e-298 5.58035e-300 0)
(-3.57449e-298 4.23155e-299 0)
(-4.39553e-298 1.025e-298 0)
(-5.30122e-298 1.96267e-298 0)
(-6.26983e-298 3.3836e-298 0)
(-7.2601e-298 5.50917e-298 0)
(-8.19087e-298 8.67252e-298 0)
(-9.15032e-298 1.28082e-297 0)
(-4.11323e-298 3.21818e-298 0)
(-2.34832e-298 6.17014e-299 0)
(-1.51442e-298 1.40974e-299 0)
(-1.00376e-298 1.96863e-300 0)
(-6.67655e-299 -7.45515e-301 0)
(-4.43526e-299 -5.87899e-301 0)
(-2.94526e-299 2.67021e-301 0)
(-1.96175e-299 1.14804e-300 0)
(-1.30529e-299 1.95115e-300 0)
(-7.25263e-300 2.40463e-300 0)
(-2.78263e-299 -5.51806e-300 0)
(-8.24136e-299 -2.04147e-299 0)
(-1.3943e-298 -2.83436e-299 0)
(-2.01317e-298 -2.84311e-299 0)
(-2.70365e-298 -1.85129e-299 0)
(-3.48545e-298 5.05665e-300 0)
(-4.37373e-298 4.76337e-299 0)
(-5.37711e-298 1.16926e-298 0)
(-6.4951e-298 2.23784e-298 0)
(-7.71461e-298 3.83817e-298 0)
(-9.00664e-298 6.19671e-298 0)
(-1.03101e-297 9.65115e-298 0)
(-1.16633e-297 1.41601e-297 0)
(-4.95598e-298 3.53744e-298 0)
(-2.73912e-298 7.0688e-299 0)
(-1.76642e-298 1.77171e-299 0)
(-1.17996e-298 3.69718e-300 0)
(-7.94513e-299 9.92617e-302 0)
(-5.35409e-299 -2.06764e-301 0)
(-3.61113e-299 3.93653e-301 0)
(-2.44961e-299 1.0951e-300 0)
(-1.68162e-299 1.65565e-300 0)
(-1.10699e-299 1.4604e-300 0)
(-9.06005e-305 -2.78091e-304 0)
(-5.8363e-304 -2.25062e-303 0)
(-2.74155e-304 -1.97799e-303 0)
(-2.76547e-304 -1.00428e-303 0)
(-3.02923e-304 -3.84664e-304 0)
(-2.495e-304 -1.17436e-304 0)
(-1.65038e-304 -2.611e-305 0)
(-9.38359e-305 -1.29609e-306 0)
(-4.77934e-305 3.00806e-306 0)
(-2.23399e-305 2.45386e-306 0)
(-9.71738e-306 1.39643e-306 0)
(-3.96208e-306 6.8664e-307 0)
(-1.51746e-306 3.09569e-307 0)
(-5.44326e-307 1.30445e-307 0)
(-1.81127e-307 5.13766e-308 0)
(-5.47367e-308 1.86429e-308 0)
(-1.43123e-308 6.01129e-309 0)
(-2.80163e-309 1.5223e-309 0)
(-1.5858e-310 1.462e-310 0)
(-4.26949e-305 -1.34791e-303 0)
(-1.5068e-303 -5.94836e-303 0)
(-1.31206e-303 -4.6324e-303 0)
(-1.28696e-303 -2.279e-303 0)
(-1.09143e-303 -8.55269e-304 0)
(-7.74827e-304 -2.45856e-304 0)
(-4.76776e-304 -4.01017e-305 0)
(-2.62989e-304 1.1607e-305 0)
(-1.33101e-304 1.62607e-305 0)
(-6.27344e-305 1.09906e-305 0)
(-2.77848e-305 6.00542e-306 0)
(-1.16172e-305 2.93406e-306 0)
(-4.58984e-306 1.32907e-306 0)
(-1.70839e-306 5.6599e-307 0)
(-5.94e-307 2.2699e-307 0)
(-1.89445e-307 8.5047e-308 0)
(-5.31844e-308 2.9114e-308 0)
(-1.16397e-308 8.44033e-309 0)
(-7.86714e-310 1.21443e-309 0)
(-7.94768e-305 -3.90201e-303 0)
(-3.30932e-303 -1.19332e-302 0)
(-3.45496e-303 -8.31058e-303 0)
(-3.2134e-303 -3.88153e-303 0)
(-2.4678e-303 -1.40542e-303 0)
(-1.62921e-303 -3.81105e-304 0)
(-9.59374e-304 -4.44986e-305 0)
(-5.17082e-304 3.45432e-305 0)
(-2.59398e-304 3.65649e-305 0)
(-1.22402e-304 2.37657e-305 0)
(-5.46681e-305 1.29331e-305 0)
(-2.31801e-305 6.36591e-306 0)
(-9.33221e-306 2.92084e-306 0)
(-3.55604e-306 1.26482e-306 0)
(-1.2725e-306 5.18251e-307 0)
(-4.20718e-307 1.99927e-307 0)
(-1.23943e-307 7.15215e-308 0)
(-2.92326e-308 2.24281e-308 0)
(-2.4362e-309 3.94508e-309 0)
(-8.97812e-304 -1.03777e-302 0)
(-7.41401e-303 -2.27176e-302 0)
(-8.03941e-303 -1.40778e-302 0)
(-6.95952e-303 -6.17801e-303 0)
(-4.96818e-303 -2.14278e-303 0)
(-3.11047e-303 -5.46782e-304 0)
(-1.77075e-303 -3.92837e-305 0)
(-9.3647e-304 7.20447e-305 0)
(-4.66032e-304 6.78454e-305 0)
(-2.19916e-304 4.33043e-305 0)
(-9.88303e-305 2.36073e-305 0)
(-4.23731e-305 1.17295e-305 0)
(-1.73227e-305 5.45486e-306 0)
(-6.73005e-306 2.40192e-306 0)
(-2.46652e-306 1.00457e-306 0)
(-8.40174e-307 3.9793e-307 0)
(-2.5749e-307 1.478e-307 0)
(-6.4475e-308 4.932e-308 0)
(-6.33976e-309 1.00372e-308 0)
(-5.13755e-303 -2.66958e-302 0)
(-1.68476e-302 -4.18296e-302 0)
(-1.75835e-302 -2.29939e-302 0)
(-1.40298e-302 -9.4595e-303 0)
(-9.40486e-303 -3.14531e-303 0)
(-5.64237e-303 -7.59596e-304 0)
(-3.12808e-303 -2.38997e-305 0)
(-1.63048e-303 1.28266e-304 0)
(-8.06842e-304 1.13856e-304 0)
(-3.81126e-304 7.21706e-305 0)
(-1.72336e-304 3.95676e-305 0)
(-7.46561e-305 1.98772e-305 0)
(-3.09498e-305 9.37547e-306 0)
(-1.22362e-305 4.19778e-306 0)
(-4.58115e-306 1.7907e-306 0)
(-1.60214e-306 7.26933e-307 0)
(-5.08233e-307 2.7914e-307 0)
(-1.33962e-307 9.818e-308 0)
(-1.50982e-308 2.25578e-308 0)
(-2.19768e-302 -6.78962e-302 0)
(-3.85208e-302 -7.41867e-302 0)
(-3.66245e-302 -3.60701e-302 0)
(-2.67938e-302 -1.39498e-302 0)
(-1.69706e-302 -4.47391e-303 0)
(-9.82684e-303 -1.03473e-303 0)
(-5.33613e-303 1.40617e-306 0)
(-2.75252e-303 2.06881e-304 0)
(-1.35796e-303 1.78288e-304 0)
(-6.43058e-304 1.1305e-304 0)
(-2.92751e-304 6.25034e-305 0)
(-1.2813e-304 3.17805e-305 0)
(-5.38319e-305 1.52063e-305 0)
(-2.16332e-305 6.92027e-306 0)
(-8.25973e-306 3.00782e-306 0)
(-2.95864e-306 1.24886e-306 0)
(-9.68119e-307 4.94003e-307 0)
(-2.67131e-307 1.81832e-307 0)
(-3.3983e-308 4.66039e-308 0)
(-8.07664e-302 -1.68467e-301 0)
(-8.81152e-302 -1.25026e-301 0)
(-7.29827e-302 -5.39446e-302 0)
(-4.88447e-302 -1.97867e-302 0)
(-2.94019e-302 -6.18604e-303 0)
(-1.65381e-302 -1.39264e-303 0)
(-8.84244e-303 3.36124e-305 0)
(-4.5313e-303 3.10916e-304 0)
(-2.23478e-303 2.65072e-304 0)
(-1.06278e-303 1.69061e-304 0)
(-4.87631e-304 9.44746e-305 0)
(-2.15732e-304 4.86639e-305 0)
(-9.18542e-305 2.36232e-305 0)
(-3.75034e-305 1.09216e-305 0)
(-1.4589e-305 4.83082e-306 0)
(-5.34399e-306 2.04703e-306 0)
(-1.79904e-306 8.30649e-307 0)
(-5.16959e-307 3.16921e-307 0)
(-7.33913e-308 8.86557e-308 0)
(-2.58177e-301 -4.27945e-301 0)
(-1.98742e-301 -1.94347e-301 0)
(-1.36874e-301 -7.57589e-302 0)
(-8.42799e-302 -2.68741e-302 0)
(-4.86181e-302 -8.32102e-303 0)
(-2.6747e-302 -1.86471e-303 0)
(-1.41504e-302 5.89915e-305 0)
(-7.22785e-303 4.36447e-304 0)
(-3.57094e-303 3.74208e-304 0)
(-1.70744e-303 2.41268e-304 0)
(-7.89908e-304 1.36524e-304 0)
(-3.53176e-304 7.12664e-305 0)
(-1.52284e-304 3.50771e-305 0)
(-6.30897e-305 1.64515e-305 0)
(-2.49572e-305 7.38809e-306 0)
(-9.32362e-306 3.18323e-306 0)
(-3.21665e-306 1.31657e-306 0)
(-9.571e-307 5.13824e-307 0)
(-1.52048e-307 1.51946e-307 0)
(-3.69818e-299 -7.50194e-300 0)
(-1.0962e-298 -2.66205e-299 0)
(-1.85246e-298 -3.73031e-299 0)
(-2.66847e-298 -3.81703e-299 0)
(-3.57325e-298 -2.64589e-299 0)
(-4.59291e-298 2.11746e-300 0)
(-5.74956e-298 5.37695e-299 0)
(-7.05989e-298 1.37058e-298 0)
(-8.53351e-298 2.63837e-298 0)
(-1.01714e-297 4.50381e-298 0)
(-1.19641e-297 7.19499e-298 0)
(-1.38883e-297 1.10278e-297 0)
(-1.59515e-297 1.58452e-297 0)
(-6.34897e-298 3.98472e-298 0)
(-3.38645e-298 8.50479e-299 0)
(-2.18676e-298 2.38264e-299 0)
(-1.47552e-298 6.65542e-300 0)
(-1.00806e-298 1.54311e-300 0)
(-6.90354e-299 4.11642e-301 0)
(-4.72952e-299 5.1626e-301 0)
(-3.24842e-299 8.03861e-301 0)
(-2.2438e-299 7.64123e-301 0)
(-1.54261e-299 -1.00313e-301 0)
(-5.00805e-299 -1.08665e-299 0)
(-1.4848e-298 -3.67313e-299 0)
(-2.50693e-298 -5.25508e-299 0)
(-3.60556e-298 -5.61354e-299 0)
(-4.81902e-298 -4.40037e-299 0)
(-6.18326e-298 -1.10394e-299 0)
(-7.73104e-298 4.9726e-299 0)
(-9.49087e-298 1.47665e-298 0)
(-1.14864e-297 2.95029e-298 0)
(-1.37354e-297 5.07934e-298 0)
(-1.625e-297 8.07338e-298 0)
(-1.90376e-297 1.21962e-297 0)
(-2.208e-297 1.71757e-297 0)
(-8.36446e-298 4.39486e-298 0)
(-4.30682e-298 1.0108e-298 0)
(-2.76464e-298 3.14066e-299 0)
(-1.87121e-298 1.06054e-299 0)
(-1.28785e-298 3.56437e-300 0)
(-8.89291e-299 1.28028e-300 0)
(-6.12659e-299 6.41616e-301 0)
(-4.1938e-299 4.00832e-301 0)
(-2.82617e-299 1.71609e-303 0)
(-1.81377e-299 -8.03541e-301 0)
(-6.38312e-299 -1.53124e-299 0)
(-1.889e-298 -5.0101e-299 0)
(-3.18573e-298 -7.33462e-299 0)
(-4.57622e-298 -8.21445e-299 0)
(-6.10888e-298 -7.22765e-299 0)
(-7.83007e-298 -3.79998e-299 0)
(-9.78327e-298 2.83136e-299 0)
(-1.20083e-297 1.36374e-298 0)
(-1.45407e-297 2.98499e-298 0)
(-1.74111e-297 5.29834e-298 0)
(-2.06447e-297 8.48964e-298 0)
(-2.42644e-297 1.27675e-297 0)
(-2.8226e-297 1.77807e-297 0)
(-1.04607e-297 4.62263e-298 0)
(-5.27179e-298 1.11485e-298 0)
(-3.35551e-298 3.66412e-299 0)
(-2.26578e-298 1.34728e-299 0)
(-1.56045e-298 5.0857e-300 0)
(-1.07897e-298 1.94948e-300 0)
(-7.4298e-299 7.59227e-301 0)
(-5.05697e-299 1.90253e-301 0)
(-3.35636e-299 -2.96138e-301 0)
(-2.10032e-299 -8.25088e-301 0)
(-7.83557e-299 -2.14006e-299 0)
(-2.31091e-298 -6.84463e-299 0)
(-3.89096e-298 -1.0248e-298 0)
(-5.58142e-298 -1.1986e-298 0)
(-7.44144e-298 -1.15736e-298 0)
(-9.52801e-298 -8.37025e-299 0)
(-1.18951e-297 -1.57154e-299 0)
(-1.45926e-297 9.82532e-299 0)
(-1.76659e-297 2.70224e-298 0)
(-2.11547e-297 5.14444e-298 0)
(-2.50918e-297 8.4712e-298 0)
(-2.95074e-297 1.28495e-297 0)
(-3.43414e-297 1.78785e-297 0)
(-1.26234e-297 4.71407e-298 0)
(-6.28288e-298 1.16545e-298 0)
(-3.9666e-298 3.92088e-299 0)
(-2.66706e-298 1.49221e-299 0)
(-1.83288e-298 5.88135e-300 0)
(-1.26551e-298 2.31113e-300 0)
(-8.69614e-299 8.44025e-301 0)
(-5.89456e-299 1.46186e-301 0)
(-3.88561e-299 -3.04518e-301 0)
(-2.41529e-299 -6.28955e-301 0)
(-9.37514e-299 -2.97704e-299 0)
(-2.75231e-298 -9.36995e-299 0)
(-4.62465e-298 -1.43048e-298 0)
(-6.62283e-298 -1.73473e-298 0)
(-8.81747e-298 -1.79391e-298 0)
(-1.12765e-297 -1.53854e-298 0)
(-1.40641e-297 -8.82806e-299 0)
(-1.72396e-297 2.74987e-299 0)
(-2.08565e-297 2.0544e-298 0)
(-2.49613e-297 4.58924e-298 0)
(-2.95922e-297 8.02645e-298 0)
(-3.47832e-297 1.25038e-297 0)
(-4.04679e-297 1.75936e-297 0)
(-1.48542e-297 4.69687e-298 0)
(-7.33895e-298 1.16642e-298 0)
(-4.60075e-298 3.90199e-299 0)
(-3.07932e-298 1.47646e-299 0)
(-2.10964e-298 5.7745e-300 0)
(-1.45312e-298 2.2263e-300 0)
(-9.96217e-299 7.79956e-301 0)
(-6.73467e-299 1.35253e-301 0)
(-4.42685e-299 -2.10018e-301 0)
(-2.74882e-299 -3.9544e-301 0)
(-1.10111e-298 -4.11729e-299 0)
(-3.21476e-298 -1.28064e-298 0)
(-5.38869e-298 -1.98669e-298 0)
(-7.70266e-298 -2.47795e-298 0)
(-1.02397e-297 -2.69153e-298 0)
(-1.30793e-297 -2.55064e-298 0)
(-1.62961e-297 -1.96503e-298 0)
(-1.99586e-297 -8.28775e-299 0)
(-2.41276e-297 9.7729e-299 0)
(-2.88557e-297 3.58484e-298 0)
(-3.41851e-297 7.13166e-298 0)
(-4.01534e-297 1.17426e-297 0)
(-4.6693e-297 1.69732e-297 0)
(-1.71673e-297 4.57794e-298 0)
(-8.44093e-298 1.11629e-298 0)
(-5.25942e-298 3.58084e-299 0)
(-3.50478e-298 1.27384e-299 0)
(-2.39324e-298 4.53752e-300 0)
(-1.64418e-298 1.50373e-300 0)
(-1.12474e-298 3.99799e-301 0)
(-7.58929e-299 -6.89852e-304 0)
(-4.98215e-299 -1.5849e-301 0)
(-3.09448e-299 -2.09617e-301 0)
(-1.27508e-298 -5.64869e-299 0)
(-3.69897e-298 -1.74152e-298 0)
(-6.18381e-298 -2.73551e-298 0)
(-8.822e-298 -3.48557e-298 0)
(-1.17106e-297 -3.91933e-298 0)
(-1.49418e-297 -3.95298e-298 0)
(-1.86016e-297 -3.48898e-298 0)
(-2.27675e-297 -2.41727e-298 0)
(-2.75081e-297 -6.13885e-299 0)
(-3.28812e-297 2.05388e-298 0)
(-3.89337e-297 5.72566e-298 0)
(-4.57058e-297 1.05236e-297 0)
(-5.31323e-297 1.59979e-297 0)
(-1.95868e-297 4.3424e-298 0)
(-9.5926e-298 1.00535e-298 0)
(-5.94413e-298 2.89087e-299 0)
(-3.94467e-298 8.36614e-300 0)
(-2.68494e-298 1.81767e-300 0)
(-1.83987e-298 -1.24613e-301 0)
(-1.25606e-298 -5.06877e-301 0)
(-8.46266e-299 -4.29646e-301 0)
(-5.55102e-299 -2.74278e-301 0)
(-3.44905e-299 -1.3537e-301 0)
(-1.45955e-298 -7.67763e-299 0)
(-4.20352e-298 -2.35043e-298 0)
(-7.00724e-298 -3.72747e-298 0)
(-9.97787e-298 -4.82501e-298 0)
(-1.32286e-297 -5.56041e-298 0)
(-1.68664e-297 -5.83984e-298 0)
(-2.09895e-297 -5.55893e-298 0)
(-2.56859e-297 -4.59949e-298 0)
(-3.10315e-297 -2.83164e-298 0)
(-3.709e-297 -1.1356e-299 0)
(-4.39125e-297 3.70238e-298 0)
(-5.15425e-297 8.75035e-298 0)
(-5.99167e-297 1.45803e-297 0)
(-2.21432e-297 3.95204e-298 0)
(-1.07997e-297 8.13988e-299 0)
(-6.65636e-298 1.71296e-299 0)
(-4.39946e-298 8.74051e-301 0)
(-2.98504e-298 -2.90627e-300 0)
(-2.04043e-298 -3.01966e-300 0)
(-1.39032e-298 -2.19572e-300 0)
(-9.35455e-299 -1.33286e-300 0)
(-6.1317e-299 -6.77678e-301 0)
(-3.81045e-299 -2.36676e-301 0)
(-1.65341e-298 -1.03322e-298 0)
(-4.72267e-298 -3.14469e-298 0)
(-7.84939e-298 -5.02255e-298 0)
(-1.11582e-297 -6.57751e-298 0)
(-1.47822e-297 -7.71274e-298 0)
(-1.88453e-297 -8.32461e-298 0)
(-2.34602e-297 -8.29885e-298 0)
(-2.87257e-297 -7.51002e-298 0)
(-3.47263e-297 -5.81693e-298 0)
(-4.15314e-297 -3.06598e-298 0)
(-4.91967e-297 9.09635e-299 0)
(-5.77683e-297 6.26548e-298 0)
(-6.71827e-297 1.25628e-297 0)
(-2.48706e-297 3.34208e-298 0)
(-1.20683e-297 5.11131e-299 0)
(-7.3969e-298 -1.32578e-300 0)
(-4.86868e-298 -1.08484e-299 0)
(-3.2929e-298 -1.03399e-299 0)
(-2.24533e-298 -7.63795e-300 0)
(-1.52708e-298 -4.9662e-300 0)
(-1.02613e-298 -2.90647e-300 0)
(-6.7211e-299 -1.49164e-300 0)
(-4.17642e-299 -5.81381e-301 0)
(-1.85331e-298 -1.37716e-298 0)
(-5.24339e-298 -4.16934e-298 0)
(-8.68858e-298 -6.69387e-298 0)
(-1.23359e-297 -8.83955e-298 0)
(-1.63422e-297 -1.04937e-297 0)
(-2.08523e-297 -1.15399e-297 0)
(-2.59948e-297 -1.18565e-297 0)
(-3.18811e-297 -1.13079e-297 0)
(-3.86042e-297 -9.74302e-298 0)
(-4.62398e-297 -6.98914e-298 0)
(-5.48475e-297 -2.85566e-298 0)
(-6.44772e-297 2.84989e-298 0)
(-7.50575e-297 9.70797e-298 0)
(-2.78008e-297 2.41662e-298 0)
(-1.34018e-297 5.26544e-300 0)
(-8.1646e-298 -2.89039e-299 0)
(-5.35041e-298 -2.82467e-299 0)
(-3.60683e-298 -2.13561e-299 0)
(-2.45326e-298 -1.45128e-299 0)
(-1.66541e-298 -9.14731e-300 0)
(-1.11761e-298 -5.35374e-300 0)
(-7.31434e-299 -2.83875e-300 0)
(-4.54383e-299 -1.23789e-300 0)
(-2.05239e-298 -1.81953e-298 0)
(-5.74075e-298 -5.48068e-298 0)
(-9.48442e-298 -8.83018e-298 0)
(-1.3459e-297 -1.17284e-297 0)
(-1.78518e-297 -1.40413e-297 0)
(-2.28313e-297 -1.56422e-297 0)
(-2.85446e-297 -1.64015e-297 0)
(-3.51157e-297 -1.61793e-297 0)
(-4.26468e-297 -1.48115e-297 0)
(-5.12191e-297 -1.21078e-297 0)
(-6.08972e-297 -7.8439e-298 0)
(-7.17338e-297 -1.78212e-298 0)
(-8.36405e-297 5.69416e-298 0)
(-3.09565e-297 1.04357e-298 0)
(-1.47985e-297 -6.19603e-299 0)
(-8.95501e-298 -6.86653e-299 0)
(-5.84071e-298 -5.303e-299 0)
(-3.92386e-298 -3.69266e-299 0)
(-2.66214e-298 -2.42022e-299 0)
(-1.80382e-298 -1.50632e-299 0)
(-1.20886e-298 -8.86473e-300 0)
(-7.90441e-299 -4.82977e-300 0)
(-4.9082e-299 -2.26795e-300 0)
(-2.23819e-298 -2.38647e-298 0)
(-6.17135e-298 -7.14969e-298 0)
(-1.01672e-297 -1.15429e-297 0)
(-1.444e-297 -1.53853e-297 0)
(-1.9214e-297 -1.85201e-297 0)
(-2.46849e-297 -2.08105e-297 0)
(-3.10179e-297 -2.21282e-297 0)
(-3.83496e-297 -2.23315e-297 0)
(-4.67899e-297 -2.12517e-297 0)
(-5.64266e-297 -1.86772e-297 0)
(-6.73278e-297 -1.43511e-297 0)
(-7.9552e-297 -7.97666e-298 0)
(-9.29764e-297 1.09857e-299 0)
(-3.43406e-297 -9.48323e-299 0)
(-1.62471e-297 -1.57683e-298 0)
(-9.75884e-298 -1.24076e-298 0)
(-6.33301e-298 -8.69749e-299 0)
(-4.23956e-298 -5.79742e-299 0)
(-2.86893e-298 -3.71904e-299 0)
(-1.94024e-298 -2.29729e-299 0)
(-1.29844e-298 -1.3582e-299 0)
(-8.48138e-299 -7.54496e-300 0)
(-5.26311e-299 -3.71649e-300 0)
(-2.38949e-298 -3.11356e-298 0)
(-6.46202e-298 -9.27048e-298 0)
(-1.0623e-297 -1.49732e-297 0)
(-1.51386e-297 -1.99852e-297 0)
(-2.02769e-297 -2.4123e-297 0)
(-2.62597e-297 -2.72506e-297 0)
(-3.32677e-297 -2.92498e-297 0)
(-4.14457e-297 -2.99925e-297 0)
(-5.09105e-297 -2.93096e-297 0)
(-6.17543e-297 -2.69779e-297 0)
(-7.40513e-297 -2.27041e-297 0)
(-8.78664e-297 -1.61328e-297 0)
(-1.03024e-296 -7.53503e-298 0)
(-3.79219e-297 -3.76666e-298 0)
(-1.77225e-297 -2.89747e-298 0)
(-1.05605e-297 -1.98468e-298 0)
(-6.81761e-298 -1.31524e-298 0)
(-4.54767e-298 -8.51115e-299 0)
(-3.06945e-298 -5.3732e-299 0)
(-2.07174e-298 -3.29832e-299 0)
(-1.38428e-298 -1.95537e-299 0)
(-9.03106e-299 -1.10097e-299 0)
(-5.59928e-299 -5.59946e-300 0)
(-2.46997e-298 -4.05334e-298 0)
(-6.49014e-298 -1.19717e-297 0)
(-1.06685e-297 -1.93073e-297 0)
(-1.53393e-297 -2.57449e-297 0)
(-2.08147e-297 -3.10801e-297 0)
(-2.73339e-297 -3.51924e-297 0)
(-3.50808e-297 -3.79989e-297 0)
(-4.42013e-297 -3.93991e-297 0)
(-5.48133e-297 -3.9242e-297 0)
(-6.70156e-297 -3.72967e-297 0)
(-8.08875e-297 -3.32462e-297 0)
(-9.65073e-297 -2.66757e-297 0)
(-1.13622e-296 -1.77885e-297 0)
(-4.16174e-297 -7.63931e-298 0)
(-1.9181e-297 -4.65204e-298 0)
(-1.13366e-297 -2.93932e-298 0)
(-7.28079e-298 -1.87101e-298 0)
(-4.83945e-298 -1.18252e-298 0)
(-3.25769e-298 -7.36454e-299 0)
(-2.19406e-298 -4.4943e-299 0)
(-1.46336e-298 -2.66812e-299 0)
(-9.53227e-299 -1.51685e-299 0)
(-5.90286e-299 -7.89086e-300 0)
(-2.41388e-298 -5.29012e-298 0)
(-6.04307e-298 -1.54404e-297 0)
(-1.00078e-297 -2.47956e-297 0)
(-1.47177e-297 -3.29387e-297 0)
(-2.05088e-297 -3.96593e-297 0)
(-2.76063e-297 -4.48909e-297 0)
(-3.61743e-297 -4.86157e-297 0)
(-4.63435e-297 -5.07917e-297 0)
(-5.82297e-297 -5.12976e-297 0)
(-7.1936e-297 -4.99135e-297 0)
(-8.75534e-297 -4.63058e-297 0)
(-1.05178e-296 -4.00245e-297 0)
(-1.24458e-296 -3.12053e-297 0)
(-4.52658e-297 -1.27733e-297 0)
(-2.05535e-297 -6.87088e-298 0)
(-1.2053e-297 -4.09408e-298 0)
(-7.70261e-298 -2.52102e-298 0)
(-5.10169e-298 -1.56128e-298 0)
(-3.42434e-298 -9.60915e-299 0)
(-2.30053e-298 -5.8344e-299 0)
(-1.53095e-298 -3.46731e-299 0)
(-9.95304e-299 -1.98626e-299 0)
(-6.15338e-299 -1.05113e-299 0)
(-2.08307e-298 -6.97488e-298 0)
(-4.7303e-298 -1.99601e-297 0)
(-8.15537e-298 -3.17853e-297 0)
(-1.27947e-297 -4.191e-297 0)
(-1.89279e-297 -5.01715e-297 0)
(-2.66972e-297 -5.66153e-297 0)
(-3.6202e-297 -6.13427e-297 0)
(-4.75415e-297 -6.43962e-297 0)
(-6.08236e-297 -6.5708e-297 0)
(-7.61621e-297 -6.50748e-297 0)
(-9.36627e-297 -6.21698e-297 0)
(-1.1345e-296 -5.65366e-297 0)
(-1.35061e-296 -4.82804e-297 0)
(-4.85745e-297 -1.92622e-297 0)
(-2.17304e-297 -9.48325e-298 0)
(-1.26571e-297 -5.37798e-298 0)
(-8.05093e-298 -3.21715e-298 0)
(-5.31244e-298 -1.95845e-298 0)
(-3.55401e-298 -1.1942e-298 0)
(-2.38049e-298 -7.22674e-299 0)
(-1.57987e-298 -4.30243e-299 0)
(-1.02466e-298 -2.48187e-299 0)
(-6.32202e-299 -1.33201e-299 0)
(-1.11392e-298 -9.3933e-298 0)
(-1.77643e-298 -2.59794e-297 0)
(-4.29936e-298 -4.07554e-297 0)
(-8.88077e-298 -5.30822e-297 0)
(-1.55275e-297 -6.2956e-297 0)
(-2.41678e-297 -7.06374e-297 0)
(-3.47835e-297 -7.64024e-297 0)
(-4.74302e-297 -8.04154e-297 0)
(-6.22193e-297 -8.26674e-297 0)
(-7.92847e-297 -8.29823e-297 0)
(-9.87553e-297 -8.10456e-297 0)
(-1.20786e-296 -7.64519e-297 0)
(-1.44812e-296 -6.9345e-297 0)
(-5.09669e-297 -2.68701e-297 0)
(-2.25281e-297 -1.22102e-297 0)
(-1.30577e-297 -6.62477e-298 0)
(-8.26861e-298 -3.87055e-298 0)
(-5.43372e-298 -2.32777e-298 0)
(-3.62163e-298 -1.4121e-298 0)
(-2.41777e-298 -8.5423e-299 0)
(-1.59996e-298 -5.1034e-299 0)
(-1.03508e-298 -2.96535e-299 0)
(-6.37243e-299 -1.61137e-299 0)
(1.71644e-298 -1.30718e-297 0)
(4.46871e-298 -3.41916e-297 0)
(2.91718e-298 -5.23337e-297 0)
(-2.0427e-298 -6.69268e-297 0)
(-9.69273e-298 -7.83485e-297 0)
(-1.95844e-297 -8.71946e-297 0)
(-3.15565e-297 -9.39806e-297 0)
(-4.56555e-297 -9.90065e-297 0)
(-6.20381e-297 -1.02328e-296 0)
(-8.08889e-297 -1.03774e-296 0)
(-1.02358e-296 -1.03043e-296 0)
(-1.26599e-296 -9.98228e-297 0)
(-1.53027e-296 -9.44415e-297 0)
(-5.11504e-297 -3.44614e-297 0)
(-2.26297e-297 -1.4407e-297 0)
(-1.30862e-297 -7.55251e-298 0)
(-8.25318e-298 -4.35767e-298 0)
(-5.40376e-298 -2.61209e-298 0)
(-3.59079e-298 -1.58621e-298 0)
(-2.39122e-298 -9.6308e-299 0)
(-1.57905e-298 -5.7872e-299 0)
(-1.01966e-298 -3.38992e-299 0)
(-6.26645e-299 -1.86339e-299 0)
(1.10308e-297 -1.80058e-297 0)
(1.76065e-297 -4.56332e-297 0)
(1.55529e-297 -6.73064e-297 0)
(8.74054e-298 -8.39537e-297 0)
(-9.40369e-299 -9.66732e-297 0)
(-1.2673e-297 -1.0651e-296 0)
(-2.62776e-297 -1.14246e-296 0)
(-4.19253e-297 -1.20324e-296 0)
(-5.9934e-297 -1.24841e-296 0)
(-8.06039e-297 -1.27598e-296 0)
(-1.04097e-296 -1.28234e-296 0)
(-1.30402e-296 -1.26501e-296 0)
(-1.58882e-296 -1.23042e-296 0)
(-4.67741e-297 -3.76928e-297 0)
(-2.14051e-297 -1.4801e-297 0)
(-1.23994e-297 -7.80787e-298 0)
(-7.83795e-298 -4.55838e-298 0)
(-5.14087e-298 -2.75971e-298 0)
(-3.42095e-298 -1.69026e-298 0)
(-2.28031e-298 -1.03459e-298 0)
(-1.50658e-298 -6.26864e-299 0)
(-9.72922e-299 -3.70545e-299 0)
(-5.97622e-299 -2.05931e-299 0)
(4.27178e-297 -2.65632e-297 0)
(4.20076e-297 -6.004e-297 0)
(3.44221e-297 -8.49109e-297 0)
(2.31727e-297 -1.0332e-296 0)
(1.01883e-297 -1.17153e-296 0)
(-3.89243e-298 -1.27886e-296 0)
(-1.92101e-297 -1.36556e-296 0)
(-3.63022e-297 -1.43726e-296 0)
(-5.58266e-297 -1.49523e-296 0)
(-7.83331e-297 -1.53699e-296 0)
(-1.0402e-296 -1.55808e-296 0)
(-1.32373e-296 -1.55339e-296 0)
(-6.30157e-297 -6.06275e-297 0)
(-2.91341e-297 -2.53231e-297 0)
(-1.6771e-297 -1.28247e-297 0)
(-1.04912e-297 -7.34701e-298 0)
(-6.87153e-298 -4.44412e-298 0)
(-4.59481e-298 -2.74648e-298 0)
(-3.09393e-298 -1.70706e-298 0)
(-2.07818e-298 -1.05746e-298 0)
(-1.37995e-298 -6.47592e-299 0)
(-8.93963e-299 -3.86728e-299 0)
(-5.49929e-299 -2.17241e-299 0)
(2.32616e-297 -1.8887e-297 0)
(1.62093e-297 -3.20936e-297 0)
(1.15733e-297 -3.94336e-297 0)
(6.80319e-298 -4.44942e-297 0)
(1.97371e-298 -4.81895e-297 0)
(-3.08016e-298 -5.09366e-297 0)
(-8.59332e-298 -5.2994e-297 0)
(-1.48295e-297 -5.44705e-297 0)
(-2.19629e-297 -5.52804e-297 0)
(-2.98251e-297 -5.50175e-297 0)
(-3.72713e-297 -5.26098e-297 0)
(-3.97765e-297 -4.63497e-297 0)
(-2.61578e-297 -2.86436e-297 0)
(-1.73737e-297 -1.70783e-297 0)
(-1.18069e-297 -1.03183e-297 0)
(-8.09492e-298 -6.41589e-298 0)
(-5.58296e-298 -4.05417e-298 0)
(-3.85337e-298 -2.57539e-298 0)
(-2.6487e-298 -1.63265e-298 0)
(-1.80402e-298 -1.02715e-298 0)
(-1.20935e-298 -6.37225e-299 0)
(-7.88426e-299 -3.84902e-299 0)
(-4.8673e-299 -2.18529e-299 0)
(2.6572e-298 -1.30917e-297 0)
(1.47232e-298 -1.77931e-297 0)
(8.56255e-299 -1.99155e-297 0)
(-1.70084e-299 -2.17026e-297 0)
(-1.54455e-298 -2.3108e-297 0)
(-3.2493e-298 -2.41209e-297 0)
(-5.3005e-298 -2.4776e-297 0)
(-7.7082e-298 -2.51012e-297 0)
(-1.04019e-297 -2.50877e-297 0)
(-1.31115e-297 -2.46631e-297 0)
(-1.52007e-297 -2.36601e-297 0)
(-1.54018e-297 -2.16636e-297 0)
(-1.31748e-297 -1.67476e-297 0)
(-1.04839e-297 -1.17341e-297 0)
(-7.98156e-298 -7.92155e-298 0)
(-5.90194e-298 -5.27643e-298 0)
(-4.28189e-298 -3.48588e-298 0)
(-3.06017e-298 -2.28393e-298 0)
(-2.1557e-298 -1.48147e-298 0)
(-1.49421e-298 -9.48928e-299 0)
(-1.01431e-298 -5.97405e-299 0)
(-6.67055e-299 -3.65328e-299 0)
(-4.13926e-299 -2.09606e-299 0)
(-1.85977e-298 -7.04255e-298 0)
(-1.62758e-298 -1.0439e-297 0)
(-1.45148e-298 -1.19561e-297 0)
(-1.58435e-298 -1.30359e-297 0)
(-2.01018e-298 -1.38268e-297 0)
(-2.69282e-298 -1.43639e-297 0)
(-3.60712e-298 -1.46758e-297 0)
(-4.71696e-298 -1.47878e-297 0)
(-5.94026e-298 -1.47109e-297 0)
(-7.10875e-298 -1.4425e-297 0)
(-7.94367e-298 -1.3845e-297 0)
(-8.0975e-298 -1.27192e-297 0)
(-7.53294e-298 -1.05897e-297 0)
(-6.51491e-298 -8.11024e-298 0)
(-5.31796e-298 -5.89481e-298 0)
(-4.15788e-298 -4.14869e-298 0)
(-3.14895e-298 -2.85463e-298 0)
(-2.32512e-298 -1.92849e-298 0)
(-1.67887e-298 -1.28098e-298 0)
(-1.18562e-298 -8.36225e-299 0)
(-8.16129e-299 -5.34665e-299 0)
(-5.42118e-299 -3.31139e-299 0)
(-3.38436e-299 -1.91915e-299 0)
(-1.86331e-298 -3.67459e-298 0)
(-1.85064e-298 -6.17972e-298 0)
(-1.71092e-298 -7.44987e-298 0)
(-1.67608e-298 -8.27736e-298 0)
(-1.80525e-298 -8.83798e-298 0)
(-2.09456e-298 -9.19722e-298 0)
(-2.52678e-298 -9.3931e-298 0)
(-3.0705e-298 -9.45235e-298 0)
(-3.66889e-298 -9.38877e-298 0)
(-4.22969e-298 -9.1927e-298 0)
(-4.62956e-298 -8.81114e-298 0)
(-4.75052e-298 -8.12261e-298 0)
(-4.56619e-298 -6.99536e-298 0)
(-4.12051e-298 -5.62993e-298 0)
(-3.51447e-298 -4.29832e-298 0)
(-2.86117e-298 -3.15563e-298 0)
(-2.24306e-298 -2.24765e-298 0)
(-1.70398e-298 -1.56146e-298 0)
(-1.25887e-298 -1.06102e-298 0)
(-9.05287e-299 -7.0565e-299 0)
(-6.31977e-299 -4.58151e-299 0)
(-4.24161e-299 -2.87303e-299 0)
(-2.66461e-299 -1.68064e-299 0)
(-1.31188e-298 -1.94942e-298 0)
(-1.44423e-298 -3.66149e-298 0)
(-1.4149e-298 -4.65903e-298 0)
(-1.38753e-298 -5.31959e-298 0)
(-1.43035e-298 -5.7594e-298 0)
(-1.55798e-298 -6.03652e-298 0)
(-1.76608e-298 -6.1875e-298 0)
(-2.03676e-298 -6.23706e-298 0)
(-2.33725e-298 -6.19782e-298 0)
(-2.6195e-298 -6.06477e-298 0)
(-2.8262e-298 -5.80723e-298 0)
(-2.90659e-298 -5.36879e-298 0)
(-2.83782e-298 -4.70975e-298 0)
(-2.62453e-298 -3.90688e-298 0)
(-2.30465e-298 -3.08496e-298 0)
(-1.93246e-298 -2.33838e-298 0)
(-1.55692e-298 -1.71335e-298 0)
(-1.2114e-298 -1.21955e-298 0)
(-9.1328e-299 -8.45928e-299 0)
(-6.67823e-299 -5.72448e-299 0)
(-4.72468e-299 -3.77088e-299 0)
(-3.20299e-299 -2.39244e-299 0)
(-2.0242e-299 -1.41103e-299 0)
(-8.39173e-299 -1.0539e-298 0)
(-9.96657e-299 -2.16904e-298 0)
(-1.02675e-298 -2.89971e-298 0)
(-1.02823e-298 -3.40992e-298 0)
(-1.05121e-298 -3.75812e-298 0)
(-1.11265e-298 -3.98176e-298 0)
(-1.21509e-298 -4.10829e-298 0)
(-1.35087e-298 -4.1571e-298 0)
(-1.50338e-298 -4.13846e-298 0)
(-1.64845e-298 -4.0506e-298 0)
(-1.75814e-298 -3.87762e-298 0)
(-1.80709e-298 -3.59454e-298 0)
(-1.77917e-298 -3.19001e-298 0)
(-1.67125e-298 -2.69891e-298 0)
(-1.49745e-298 -2.18218e-298 0)
(-1.28348e-298 -1.69457e-298 0)