/*--------------------------------*- C++ -*----------------------------------*\
| =========                 |                                                 |
| \\      /  F ield         | OpenFOAM: The Open Source CFD Toolbox           |
|  \\    /   O peration     | Version:  2406                                  |
|   \\  /    A nd           | Website:  www.openfoam.com                      |
|    \\/     M anipulation  |                                                 |
\*---------------------------------------------------------------------------*/
FoamFile
{
    version     2.0;
    format      ascii;
    arch        "LSB;label=32;scalar=64";
    class       volScalarField;
    location    "0.65";
    object      epsilon;
}
// * * * * * * * * * * * * * * * * * * * * * * * * * * * * * * * * * * * * * //

dimensions      [0 2 -3 0 0 0 0];

internalField   nonuniform List<scalar> 
2268
(
3.11056
4.22461
4.22461
4.22461
4.22461
4.22461
4.22461
4.22461
4.22461
4.22461
4.22461
4.22461
4.22461
0.0856357
0.0290272
0.0438913
0.0540011
0.0595001
0.0606392
0.0570113
0.0476437
0.0311693
0.00729954
1.99652
3.53904
3.87395
3.99094
4.04704
4.07915
4.09939
4.11284
4.12192
4.12796
4.13166
4.13343
4.13343
0.102363
0.0267529
0.0294964
0.0335372
0.0359
0.0362782
0.03443
0.0299606
0.0224875
0.0131827
1.99652
3.12319
3.57196
3.77087
3.87483
3.93633
3.9757
4.00204
4.01992
4.03183
4.03915
4.04265
4.04264
0.112613
0.0314268
0.0301532
0.0324671
0.0340399
0.0342405
0.0328271
0.0295755
0.0244708
0.0212807
1.99652
2.85875
3.32579
3.572
3.71211
3.79847
3.85492
3.89313
3.91926
3.93673
3.9475
3.95264
3.95264
0.122564
0.0362315
0.032548
0.0338268
0.0349502
0.0350778
0.0339645
0.0315068
0.0279445
0.0289898
1.99652
2.68257
3.12893
3.39682
3.5614
3.66728
3.7382
3.78692
3.82053
3.84313
3.8571
3.86379
3.86379
0.131378
0.0406373
0.0352262
0.0357295
0.0365172
0.0366166
0.0357966
0.0340916
0.0320477
0.037001
1.99652
2.55993
2.97193
3.24473
3.4238
3.5439
3.62645
3.68409
3.72426
3.75145
3.76833
3.77643
3.77643
0.13925
0.0446001
0.0377904
0.0376452
0.0381501
0.0382443
0.0377302
0.036833
0.0366878
0.0469846
1.99652
2.47111
2.84601
3.11357
3.29936
3.4289
3.52027
3.58515
3.63089
3.66207
3.68152
3.69088
3.69088
0.146416
0.0481404
0.0400682
0.0393333
0.0395802
0.0396765
0.0394641
0.039411
0.041834
0.0642073
1.99652
2.40455
2.74408
3.00066
3.1875
3.32243
3.42
3.49049
3.54077
3.57531
3.59697
3.60741
3.60741
0.153039
0.051254
0.0419434
0.0406414
0.0406414
0.0407336
0.0407806
0.0414483
0.0467331
0.109864
0.00838777
0.0383558
0.0602758
0.074911
0.0844732
0.0906244
0.094403
0.0964209
0.0970207
0.0963646
0.0944833
0.0913045
0.0866738
0.0803677
0.072093
0.0614595
0.0478922
0.0304393
0.00828334
0.0140135
0.0260592
0.0357693
0.0424474
0.0468607
0.0497057
0.0514524
0.0523922
0.0526932
0.052436
0.0516342
0.0502469
0.0481862
0.0453217
0.041479
0.036431
0.0298886
0.0215799
0.0123696
0.0228048
0.027571
0.0341518
0.0389289
0.0421681
0.0442817
0.0455857
0.0462906
0.0465225
0.0463425
0.045759
0.0447358
0.0431965
0.0410258
0.0380693
0.0341358
0.0290317
0.022802
0.0186736
0.0314608
0.031035
0.0356056
0.0392351
0.0418053
0.0435209
0.0445906
0.0451708
0.0453607
0.0452083
0.0447179
0.0438548
0.042547
0.0406862
0.0381275
0.0347015
0.0302786
0.0251213
0.0243013
0.0406823
0.0352525
0.0378889
0.0405142
0.0425353
0.0439379
0.0448279
0.0453124
0.0454658
0.0453247
0.0448891
0.0441245
0.0429624
0.0412995
0.0389998
0.0359126
0.0319585
0.027562
0.029309
0.0523217
0.0399709
0.0403342
0.0419667
0.0434814
0.0446036
0.0453352
0.045735
0.0458538
0.0457166
0.0453192
0.0446273
0.0435754
0.0420659
0.0399728
0.0371649
0.0336079
0.0298615
0.0338591
0.0720588
0.0449931
0.0425543
0.0432264
0.0442754
0.0451412
0.045728
0.0460499
0.0461352
0.0459982
0.0456301
0.044997
0.0440369
0.0426591
0.0407497
0.0382
0.0350227
0.031911
0.0380905
0.120807
0.049417
0.0441804
0.0440719
0.044722
0.0453599
0.0458156
0.0460662
0.0461197
0.0459804
0.0456356
0.0450516
0.0441708
0.0429106
0.0411718
0.0388727
0.0360796
0.0336383
0.0420979
1.99652
2.32441
2.61366
2.8485
3.03072
3.169
3.27269
3.34955
3.40536
3.44417
3.46869
3.48057
3.48057
0.162585
0.0553615
0.04411
0.0419577
0.0415928
0.0416602
0.0419901
0.0431392
0.0472057
0.0623512
1.99652
2.25444
2.49121
2.69466
2.86184
2.99522
3.0994
3.17908
3.23831
3.2802
3.30696
3.32
3.32
0.173187
0.0601192
0.0468515
0.043818
0.0430494
0.0430056
0.0433916
0.0444487
0.0469606
0.0524693
1.99652
2.20583
2.40242
2.57749
2.72709
2.85096
2.95085
3.02929
3.08879
3.13152
3.15909
3.17261
3.17261
0.181865
0.0641448
0.049322
0.0456112
0.0445059
0.0443078
0.0446055
0.0454248
0.0470249
0.0497335
1.99652
2.17008
2.33538
2.48605
2.61836
2.73093
2.82399
2.89863
2.95623
2.99813
3.02543
3.03888
3.03888
0.189085
0.0675257
0.0514306
0.0471751
0.0457838
0.0454224
0.0455923
0.0462033
0.0473299
0.0490872
1.99652
2.14268
2.28313
2.41317
2.52957
2.63061
2.71575
2.78519
2.83954
2.87951
2.90576
2.91875
2.91875
0.195146
0.0703748
0.0532001
0.0484901
0.0468533
0.0463378
0.0463826
0.0468375
0.0477115
0.0490844
1.99652
2.12103
2.24141
2.35406
2.45629
2.54636
2.62336
2.687
2.73738
2.77477
2.79947
2.81175
2.81175
0.200251
0.0727813
0.0546753
0.0495779
0.0477299
0.0470769
0.0470119
0.047351
0.0480764
0.0492582
1.99652
2.10357
2.2075
2.3055
2.39531
2.47531
2.54447
2.60222
2.64835
2.68283
2.70574
2.71716
2.71716
0.204549
0.0748144
0.0559021
0.050472
0.0484428
0.0476708
0.0475129
0.0477641
0.0483917
0.0494588
1.99652
2.08927
2.17958
2.2652
2.34424
2.41522
2.4771
2.52919
2.57109
2.60259
2.62361
2.63412
2.63412
0.208163
0.0765315
0.056922
0.0512065
0.0490225
0.0481494
0.0479145
0.0480974
0.0486554
0.0496443
1.99652
2.07744
2.1564
2.23156
2.3013
2.36433
2.41962
2.46646
2.50434
2.53295
2.55211
2.56171
2.56171
0.211201
0.0779834
0.0577727
0.0518126
0.0494971
0.0485389
0.0482405
0.0483696
0.048876
0.0498085
1.99652
2.06761
2.13707
2.20338
2.26516
2.32125
2.37069
2.41277
2.44695
2.47287
2.49026
2.49899
2.49899
0.21376
0.079218
0.0584893
0.0523192
0.0498913
0.048861
0.0485101
0.0485964
0.0490633
0.0499543
1.99652
2.05941
2.12093
2.17978
2.23478
2.28487
2.32921
2.36707
2.39793
2.42139
2.43717
2.4451
2.4451
0.215934
0.0802832
0.0591061
0.0527532
0.0502272
0.0491341
0.0487383
0.0487893
0.0492255
0.0500852
1.99652
2.05259
2.10749
2.16009
2.20934
2.25433
2.29425
2.32845
2.35639
2.37767
2.39201
2.39923
2.39923
0.217819
0.0812317
0.0596596
0.0531417
0.050525
0.0493736
0.0489368
0.0489571
0.0493679
0.0502034
1.99652
2.04695
2.09636
2.14376
2.18823
2.22891
2.26509
2.29615
2.32157
2.34097
2.35406
2.36065
2.36065
0.219524
0.082127
0.0601919
0.0535132
0.0508042
0.0495928
0.0491149
0.0491058
0.0494943
0.0503098
1.99652
2.04235
2.08728
2.13041
2.17092
2.20805
2.24111
2.26954
2.29284
2.31065
2.32268
2.32873
2.32873
0.22119
0.0830552
0.0607546
0.0538981
0.0510825
0.0498023
0.049279
0.0492395
0.0496065
0.0504046
1.99652
2.03867
2.08
2.11971
2.15704
2.19128
2.22182
2.2481
2.26968
2.28617
2.29732
2.30294
2.30294
0.223043
0.0841438
0.0614108
0.0543251
0.0513722
0.0500072
0.0494315
0.0493593
0.0497051
0.0504875
1.99652
2.03582
2.07437
2.11142
2.14627
2.17827
2.20683
2.23143
2.25164
2.2671
2.27756
2.28283
2.28283
0.22549
0.0855833
0.0622228
0.0548063
0.0516703
0.0502023
0.0495684
0.0494631
0.0497891
0.0505579
1.99652
2.03374
2.07025
2.10536
2.13839
2.16874
2.19584
2.2192
2.2384
2.2531
2.26304
2.26805
2.26805
0.22937
0.0875971
0.0631845
0.0552965
0.0519401
0.050365
0.0496775
0.0495447
0.0498557
0.0506146
1.99652
2.03238
2.06755
2.10138
2.13323
2.16249
2.18863
2.21117
2.2297
2.2439
2.2535
2.25834
2.25834
0.236132
0.0899764
0.0639871
0.0556125
0.0520893
0.050451
0.0497381
0.0495949
0.0499013
0.0506566
1.99652
2.0317
2.06622
2.09942
2.13067
2.15939
2.18506
2.20719
2.2254
2.23934
2.24877
2.25353
2.25353
0.239054
0.089384
0.0634857
0.055361
0.0519759
0.0504065
0.0497291
0.0496056
0.049923
0.0506834
1.99652
2.0317
2.06622
2.09942
2.13067
2.15939
2.18506
2.20719
2.22539
2.23934
2.24877
2.25353
0.335775
0.115165
0.0733306
0.0598214
0.0541867
0.0515177
0.0502091
0.0496443
0.0495755
0.0499216
0.0506965
0.162252
0.178682
0.19058
0.199333
0.205774
0.210634
0.214482
0.217837
0.221333
0.225993
0.23342
0.236991
0.114678
0.0775004
0.0630559
0.0562596
0.0527568
0.0508841
0.0499115
0.0495035
0.0495142
0.0499024
0.0506993
0.0385474
0.0477684
0.0574772
0.0646459
0.0699465
0.0739604
0.0771286
0.0798275
0.0824301
0.0852951
0.0883109
0.0882251
0.0728005
0.0628675
0.0570265
0.0535455
0.051461
0.0502389
0.0495832
0.0493384
0.049437
0.0498739
0.0506969
0.0410225
0.0366178
0.0416277
0.0463655
0.0502154
0.0532647
0.055712
0.0577637
0.059602
0.0613148
0.0626653
0.0625775
0.0592801
0.0559709
0.0534241
0.0516259
0.0504228
0.0496728
0.0492764
0.0491775
0.0493601
0.0498455
0.0506952
0.0495137
0.0370099
0.0391656
0.042315
0.0451779
0.0475612
0.0495081
0.0511185
0.0524819
0.0536216
0.0544121
0.0545121
0.0536134
0.0523864
0.0512379
0.0503153
0.049647
0.0492209
0.0490208
0.0490415
0.0492969
0.0498258
0.0507001
0.0564824
0.0389467
0.0393771
0.0415
0.0436812
0.0455837
0.0471628
0.048457
0.0495132
0.0503463
0.0509098
0.0511026
0.0508754
0.050415
0.0499018
0.0494449
0.0490984
0.0488881
0.04883
0.0489429
0.0492573
0.0498225
0.050717
0.0619063
0.0408621
0.0401887
0.0416354
0.0433417
0.044893
0.0461975
0.0472606
0.0481102
0.0487632
0.0492131
0.0494385
0.0494436
0.0492996
0.0490919
0.0488884
0.0487359
0.0486669
0.0487083
0.0488894
0.0492487
0.049842
0.0507518
0.066108
0.0424674
0.0410519
0.0420465
0.0434238
0.0447222
0.0458247
0.0467201
0.0474274
0.0479666
0.0483489
0.0485803
0.0486767
0.0486752
0.0486219
0.0485597
0.0485247
0.0485473
0.0486567
0.0488861
0.0492781
0.0498914
0.0508109
0.0693691
0.0437525
0.0418213
0.0425116
0.043664
0.0447849
0.0457431
0.0465188
0.0471276
0.0475916
0.0479293
0.0481566
0.0482914
0.0483585
0.0483867
0.0484051
0.0484414
0.0485225
0.0486771
0.0489394
0.0493533
0.0499794
0.0509031
0.0719393
0.0447804
0.0424827
0.0429687
0.0439712
0.0449719
0.0458305
0.0465234
0.0470648
0.0474781
0.0477853
0.0480055
0.0481567
0.0482581
0.0483305
0.0483953
0.0484747
0.0485924
0.0487759
0.0490591
0.0494864
0.0501187
0.0510412
0.0740578
0.0456385
0.0430728
0.0434233
0.0443298
0.0452529
0.0460462
0.0466839
0.0471801
0.0475592
0.047845
0.0480578
0.0482153
0.048334
0.0484304
0.0485216
0.0486264
0.0487661
0.0489668
0.0492619
0.0496955
0.050328
0.0512437
0.0759764
0.0464308
0.0436574
0.0439184
0.0447665
0.0456427
0.0463952
0.0469972
0.0474634
0.0478191
0.0480893
0.048295
0.0484537
0.0485802
0.0486889
0.0487943
0.048913
0.0490647
0.0492743
0.0495742
0.0500081
0.0506353
0.0515383
0.0779886
0.047287
0.0443313
0.0445301
0.0453431
0.0461911
0.0469174
0.0474951
0.0479396
0.0482776
0.0485349
0.0487331
0.0488893
0.0490178
0.0491313
0.049243
0.049368
0.0495247
0.0497369
0.0500362
0.0504651
0.0510814
0.0519648
0.0804747
0.048384
0.0452334
0.0453766
0.0461609
0.0469846
0.0476872
0.0482419
0.0486655
0.0489859
0.0492295
0.0494179
0.0495683
0.0496941
0.0498071
0.0499196
0.0500454
0.0502019
0.0504119
0.0507059
0.0511247
0.0517239
0.0525796
0.0839695
0.0499823
0.0465724
0.0466355
0.0473713
0.0481528
0.0488163
0.0493362
0.0497303
0.0500266
0.0502513
0.0504256
0.0505658
0.0506844
0.0507926
0.0509015
0.0510238
0.051176
0.0513798
0.0516639
0.0520674
0.0526427
0.0534612
0.0892655
0.0524817
0.0486636
0.048566
0.0491877
0.0498733
0.0504568
0.0509128
0.0512572
0.0515156
0.0517118
0.0518647
0.051989
0.0520958
0.0521948
0.0522961
0.0524114
0.0525557
0.0527494
0.0530193
0.0534018
0.0539454
0.0547155
0.0975677
0.0565028
0.0519735
0.0515263
0.0518879
0.0523695
0.0527983
0.0531406
0.0534032
0.053603
0.053757
0.0538794
0.0539811
0.0540709
0.0541566
0.0542467
0.0543515
0.0544846
0.0546643
0.0549153
0.0552706
0.0557738
0.056483
0.11075
0.0630087
0.0571592
0.0559674
0.0557942
0.0558922
0.0560548
0.0562165
0.0563575
0.0564748
0.0565719
0.0566541
0.0567266
0.0567944
0.0568629
0.0569384
0.0570296
0.0571482
0.0573102
0.0575374
0.0578587
0.058312
0.0589469
0.131907
0.0735189
0.0650759
0.0623681
0.0612089
0.060676
0.0604421
0.0603557
0.0603398
0.0603555
0.0603848
0.06042
0.0604587
0.0605012
0.0605495
0.0606079
0.0606827
0.0607836
0.0609239
0.0611221
0.0614024
0.061796
0.0623431
0.166941
0.0905579
0.0766489
0.0710298
0.068278
0.0668714
0.0661508
0.0657858
0.065604
0.0655165
0.0654781
0.0654667
0.0654717
0.0654884
0.0655158
0.0655557
0.0656122
0.0656926
0.0658074
0.0659712
0.066203
0.0665271
0.0669734
0.231117
0.11858
0.0922537
0.0816139
0.0767889
0.0744813
0.073339
0.0727584
0.0724558
0.0722941
0.0722065
0.07216
0.0721383
0.0721335
0.0721422
0.0721642
0.0722017
0.0722595
0.0723451
0.072469
0.0726447
0.0728894
0.073223
0.407127
0.16435
0.109517
0.0924246
0.086062
0.0834062
0.0821946
0.081601
0.081292
0.0811221
0.0810246
0.0809674
0.0809345
0.080918
0.080914
0.0809214
0.0809409
0.080975
0.0810281
0.0811065
0.0812185
0.081374
0.0815841
1.55494
0.209662
0.115684
0.0995036
0.0951871
0.0937107
0.0931027
0.0928148
0.0926632
0.0925768
0.0925245
0.0924915
0.0924707
0.0924581
0.0924518
0.0924509
0.0924554
0.0924661
0.0924842
0.092512
0.0925522
0.0926082
0.092684
0.138101
0.109898
0.112154
0.147361
0.0602168
0.0613539
0.0619367
0.0619911
0.05241
0.0535799
0.0538262
0.0532367
0.0508196
0.0516866
0.0518253
0.0513469
0.0505056
0.0512262
0.0513121
0.0508765
0.0505262
0.0511647
0.0512174
0.0507952
0.0506299
0.0512136
0.0512432
0.0508265
0.0507469
0.0512912
0.0513039
0.05089
0.050861
0.0513763
0.0513763
0.0509639
0.0509699
0.0514639
0.0514542
0.051042
0.0510736
0.0515518
0.0515345
0.0511216
0.0511713
0.0516376
0.0516142
0.0512001
0.0512618
0.0517188
0.0516904
0.0512746
0.0513435
0.0517931
0.0517604
0.051343
0.0514155
0.0518589
0.0518227
0.0514037
0.0514767
0.0519152
0.0518763
0.0514562
0.0515266
0.0519614
0.0519209
0.0515003
0.0515647
0.0519976
0.0519567
0.0515367
0.0515915
0.0520243
0.0519846
0.0515661
0.0516084
0.0520431
0.0520059
0.0515901
0.0516181
0.0520563
0.052023
0.0516107
0.0516246
0.0520672
0.0520383
0.0516302
0.0516321
0.0520793
0.0520552
0.0516512
0.0516452
0.0520965
0.0520767
0.0516769
0.0516685
0.0521228
0.0521068
0.0517106
0.0517068
0.0521629
0.0521497
0.0517567
0.0517664
0.0522226
0.0522113
0.0518213
0.0518557
0.0523102
0.0522998
0.0519127
0.0519868
0.0524376
0.0524275
0.0520436
0.0521779
0.0526226
0.0526123
0.0522325
0.0524556
0.0528916
0.0528806
0.0525065
0.0528586
0.0532826
0.0532707
0.0529046
0.0534417
0.0538498
0.053837
0.0534821
0.0542817
0.054669
0.0546555
0.0543158
0.0554827
0.0558439
0.0558298
0.0555102
0.0571842
0.0575132
0.0574989
0.0572049
0.0595687
0.0598594
0.0598454
0.0595829
0.0628724
0.0631189
0.0631057
0.0628805
0.0673983
0.0675953
0.0675837
0.0674011
0.0735338
0.0736772
0.0736679
0.0735326
0.0817738
0.081861
0.0818546
0.0817702
0.09275
0.0927791
0.0927763
0.0927456
0.0655318
0.0492335
0.0452782
0.0445765
0.0447503
0.0450871
0.0453636
0.0455143
0.0455216
0.0453757
0.0450589
0.0445386
0.0437644
0.0426687
0.0411791
0.0392623
0.0370807
0.0357703
0.048108
0.0540549
0.0482675
0.0459175
0.045164
0.045051
0.0451425
0.0452519
0.0453021
0.04526
0.0451051
0.0448148
0.0443577
0.0436897
0.042758
0.0415162
0.0399785
0.0384032
0.0382122
0.0545109
0.0506086
0.0478248
0.0463453
0.0456898
0.0454615
0.0454143
0.0454147
0.0453943
0.0453165
0.045156
0.0448881
0.0444818
0.0438978
0.0430923
0.042036
0.0407731
0.0396228
0.0402035
0.0593743
0.0495845
0.047751
0.0466744
0.0461023
0.0458287
0.0457054
0.0456384
0.0455716
0.04547
0.0453076
0.045059
0.044694
0.0441761
0.0434673
0.0425484
0.0414821
0.0406274
0.0417458
0.0630465
0.0493447
0.0478438
0.0469439
0.0464202
0.0461282
0.0459638
0.0458569
0.0457614
0.0456456
0.0454842
0.0452521
0.0449198
0.0444525
0.0438157
0.0429959
0.042067
0.0414152
0.0429103
0.0658006
0.0493558
0.0479873
0.0471651
0.0466662
0.0463658
0.0461796
0.0460502
0.045938
0.0458146
0.045656
0.0454374
0.0451302
0.0447004
0.0441153
0.0433648
0.0425294
0.0420149
0.0437737
0.0678461
0.0494388
0.0481324
0.047346
0.0468592
0.0465549
0.0463573
0.0462155
0.0460944
0.0459675
0.0458121
0.0456042
0.0453153
0.0449122
0.0443628
0.0436588
0.0428853
0.042462
0.0444042
0.0693473
0.0495367
0.0482642
0.0474955
0.0470144
0.0467079
0.0465043
0.046356
0.0462302
0.046102
0.0459496
0.0457493
0.0454732
0.045088
0.044562
0.0438879
0.0431538
0.0427898
0.0448579
0.0704342
0.049634
0.0483814
0.0476214
0.0471426
0.0468346
0.0466274
0.0464755
0.0463472
0.0462186
0.0460683
0.0458731
0.0456051
0.0452311
0.0447195
0.0440635
0.0433533
0.0430266
0.0451799
0.0712103
0.0497276
0.0484864
0.0477301
0.0472513
0.0469414
0.0467318
0.0465775
0.0464475
0.0463185
0.0461692
0.0459769
0.0457134
0.0453458
0.0448422
0.0441962
0.0434994
0.0431953
0.0454052
0.0717564
0.0498167
0.0485812
0.0478252
0.0473448
0.0470327
0.0468208
0.0466643
0.0465328
0.046403
0.0462538
0.0460625
0.045801
0.0454363
0.0449364
0.0442951
0.0436052
0.0433141
0.0455608
0.0721355
0.0499004
0.0486667
0.047909
0.0474259
0.0471109
0.0468964
0.0467378
0.0466046
0.0464734
0.0463235
0.0461319
0.0458707
0.0455066
0.0450077
0.0443679
0.0436808
0.0433966
0.045667
0.072395
0.0499775
0.0487432
0.0479825
0.0474959
0.0471777
0.0469604
0.0467994
0.0466641
0.0465312
0.04638
0.0461873
0.0459253
0.0455604
0.045061
0.0444209
0.0437342
0.0434533
0.0457384
0.0725705
0.0500468
0.0488106
0.0480462
0.0475557
0.0472341
0.0470137
0.0468502
0.0467127
0.0465779
0.0464249
0.0462307
0.0459672
0.045601
0.0451002
0.0444588
0.0437715
0.0434919
0.045786
0.0726878
0.0501079
0.0488691
0.0481008
0.0476064
0.0472811
0.0470578
0.0468916
0.0467518
0.046615
0.0464602
0.0462642
0.0459991
0.0456312
0.0451287
0.0444858
0.0437972
0.0435178
0.0458174
0.0727653
0.0501607
0.0489193
0.0481471
0.0476488
0.0473201
0.0470937
0.0469249
0.0467829
0.0466441
0.0464874
0.0462897
0.0460228
0.0456533
0.0451492
0.0445046
0.0438148
0.0435351
0.045838
0.0728162
0.0502057
0.0489621
0.0481863
0.0476843
0.0473522
0.0471228
0.0469516
0.0468074
0.0466666
0.0465082
0.0463089
0.0460405
0.0456694
0.0451638
0.0445178
0.0438268
0.0435465
0.0458513
0.0728493
0.0502438
0.0489986
0.0482195
0.047714
0.0473787
0.0471466
0.046973
0.0468267
0.0466842
0.0465242
0.0463234
0.0460535
0.0456811
0.0451742
0.044527
0.043835
0.0435541
0.04586
0.072871
0.0502762
0.0490301
0.0482482
0.0477394
0.0474011
0.0471663
0.0469904
0.0468423
0.0466981
0.0465366
0.0463345
0.0460634
0.0456898
0.0451818
0.0445336
0.0438407
0.0435593
0.0458657
0.0728855
0.0503045
0.0490582
0.0482738
0.0477619
0.0474207
0.0471834
0.0470054
0.0468554
0.0467098
0.0465469
0.0463436
0.0460714
0.0456967
0.0451877
0.0445386
0.0438449
0.043563
0.0458698
0.0728957
0.0503304
0.0490845
0.0482978
0.0477831
0.047439
0.0471993
0.0470192
0.0468676
0.0467204
0.0465563
0.0463518
0.0460785
0.0457028
0.0451928
0.0445429
0.0438485
0.0435661
0.0458731
0.0729041
0.0503558
0.0491108
0.048322
0.0478044
0.0474577
0.0472155
0.0470335
0.0468801
0.0467315
0.0465661
0.0463604
0.046086
0.0457093
0.0451983
0.0445474
0.0438522
0.0435693
0.0458765
0.0729126
0.0503831
0.0491391
0.0483483
0.047828
0.0474785
0.047234
0.04705
0.0468949
0.0467448
0.0465781
0.0463711
0.0460954
0.0457175
0.0452052
0.0445532
0.043857
0.0435734
0.0458808
0.0729235
0.0504149
0.049172
0.0483793
0.0478563
0.0475041
0.0472573
0.0470712
0.0469143
0.0467626
0.0465944
0.0463859
0.0461087
0.0457291
0.0452153
0.0445616
0.043864
0.0435795
0.0458873
0.0729398
0.0504547
0.049213
0.0484185
0.0478928
0.047538
0.0472888
0.0471005
0.0469418
0.0467883
0.0466182
0.0464078
0.0461286
0.0457468
0.0452308
0.0445749
0.0438752
0.0435893
0.0458978
0.072966
0.0505069
0.0492667
0.0484706
0.0479424
0.047585
0.0473334
0.047143
0.0469822
0.0468266
0.0466543
0.0464415
0.0461595
0.0457748
0.0452555
0.0445963
0.0438936
0.0436056
0.0459154
0.0730095
0.050578
0.0493401
0.0485429
0.0480125
0.0476527
0.0473988
0.0472061
0.047043
0.0468849
0.0467099
0.0464939
0.0462083
0.0458194
0.0452954
0.0446315
0.0439242
0.0436331
0.0459452
0.0730824
0.0506773
0.0494431
0.0486457
0.0481137
0.0477519
0.0474957
0.0473006
0.047135
0.0469741
0.0467957
0.0465757
0.0462852
0.0458906
0.0453602
0.0446892
0.0439752
0.0436795
0.0459958
0.073205
0.0508185
0.0495905
0.0487944
0.0482618
0.0478983
0.0476401
0.0474428
0.0472745
0.0471103
0.046928
0.046703
0.0464064
0.0460043
0.045465
0.0447842
0.0440605
0.0437582
0.0460822
0.0734111
0.0510215
0.0498036
0.0490112
0.0484793
0.0481152
0.0478556
0.0476562
0.0474852
0.0473177
0.0471309
0.0469003
0.0465964
0.046185
0.0456343
0.0449403
0.0442033
0.0438921
0.0462299
0.0737577
0.0513153
0.050113
0.0493278
0.0487989
0.0484356
0.0481754
0.0479746
0.0478014
0.0476308
0.0474399
0.0472036
0.0468919
0.0464702
0.0459063
0.0451964
0.0444423
0.0441202
0.046483
0.0743406
0.051741
0.0505621
0.0497889
0.0492663
0.0489059
0.0486467
0.0484457
0.0482715
0.048099
0.0479052
0.0476646
0.0473468
0.0469162
0.04634
0.0456139
0.0448418
0.0445095
0.046918
0.0753206
0.0523565
0.0512113
0.0504567
0.0499445
0.0495901
0.0493343
0.0491353
0.0489622
0.0487905
0.048597
0.0483562
0.0480374
0.0476044
0.0470233
0.0462889
0.0455059
0.0451734
0.0476667
0.0769664
0.0532412
0.0521426
0.0514149
0.0509189
0.0505746
0.0503256
0.0501318
0.0499635
0.049797
0.0496097
0.0493768
0.0490682
0.048648
0.0480821
0.0473638
0.0465982
0.0462992
0.048954
0.0797215
0.0545022
0.0534656
0.0527749
0.0523023
0.0519734
0.0517357
0.0515515
0.0513931
0.0512382
0.0510662
0.0508544
0.0505751
0.0501959
0.0496855
0.049039
0.0483618
0.0481845
0.0511541
0.0843025
0.0562807
0.0553238
0.0546819
0.0542408
0.0539337
0.0537128
0.0535437
0.0534016
0.0532668
0.0531218
0.0529486
0.0527261
0.0524311
0.0520445
0.0515735
0.0511332
0.0512764
0.0548678
0.0918387
0.0587607
0.0579021
0.0573218
0.0569217
0.0566436
0.0564454
0.0562975
0.0561785
0.0560726
0.0559674
0.0558523
0.0557188
0.0555632
0.0553959
0.0552647
0.0553302
0.056201
0.0610327
0.104086
0.0621782
0.0614369
0.0609318
0.0605826
0.0603409
0.0601718
0.0600506
0.0599606
0.0598907
0.0598352
0.0597941
0.059777
0.0598133
0.0599712
0.0603944
0.0613889
0.0637573
0.0711141
0.123894
0.066835
0.0662294
0.0658131
0.0655248
0.065327
0.0651925
0.0651022
0.0650442
0.065013
0.0650095
0.0650454
0.0651521
0.0654022
0.0659521
0.0671263
0.0695865
0.0747816
0.0875065
0.156657
0.0731166
0.0726637
0.0723494
0.072132
0.0719849
0.0718888
0.0718307
0.0718035
0.0718058
0.0718443
0.0719391
0.0721385
0.0725536
0.073436
0.0753586
0.0796465
0.0895132
0.114233
0.216903
0.0815147
0.0812301
0.0810309
0.0808937
0.0808029
0.080747
0.0807187
0.0807148
0.0807365
0.0807919
0.0809014
0.0811136
0.081543
0.0824713
0.0846288
0.0900686
0.105339
0.156172
0.381239
0.0926568
0.0925558
0.0924848
0.0924365
0.0924057
0.0923886
0.0923832
0.0923887
0.0924065
0.0924405
0.0925004
0.0926088
0.09282
0.0932793
0.094427
0.0978674
0.111212
0.192912
1.44607
)
;

boundaryField
{
    leftWall
    {
        type            epsilonWallFunction;
        blending        stepwise;
        value           nonuniform List<scalar> 
50
(
3.11056
1.99652
1.99652
1.99652
1.99652
1.99652
1.99652
1.99652
1.99652
1.99652
1.99652
1.99652
1.99652
1.99652
1.99652
1.99652
1.99652
1.99652
1.99652
1.99652
1.99652
1.99652
1.99652
1.99652
1.99652
1.99652
1.99652
1.99652
0.162252
0.0385474
0.0410225
0.0495137
0.0564824
0.0619063
0.066108
0.0693691
0.0719393
0.0740578
0.0759764
0.0779886
0.0804747
0.0839695
0.0892655
0.0975677
0.11075
0.131907
0.166941
0.231117
0.407127
1.55494
)
;
    }
    rightWall
    {
        type            epsilonWallFunction;
        blending        stepwise;
        value           nonuniform List<scalar> 
50
(
0.00828334
0.0123696
0.0186736
0.0243013
0.029309
0.0338591
0.0380905
0.0420979
0.048108
0.0545109
0.0593743
0.0630465
0.0658006
0.0678461
0.0693473
0.0704342
0.0712103
0.0717564
0.0721355
0.072395
0.0725705
0.0726878
0.0727653
0.0728162
0.0728493
0.072871
0.0728855
0.0728957
0.0729041
0.0729126
0.0729235
0.0729398
0.072966
0.0730095
0.0730824
0.073205
0.0734111
0.0737577
0.0743406
0.0753206
0.0769664
0.0797215
0.0843025
0.0918387
0.104086
0.123894
0.156657
0.216903
0.381239
1.44607
)
;
    }
    lowerWall
    {
        type            epsilonWallFunction;
        blending        stepwise;
        value           nonuniform List<scalar> 
62
(
3.11056
4.22461
4.22461
4.22461
4.22461
4.22461
4.22461
4.22461
4.22461
4.22461
4.22461
4.22461
4.22461
0.0856357
0.0290272
0.0438913
0.0540011
0.0595001
0.0606392
0.0570113
0.0476437
0.0311693
0.00729954
0.00729954
0.0131827
0.0212807
0.0289898
0.037001
0.0469846
0.0642073
0.109864
0.138101
0.109898
0.112154
0.147361
0.00838777
0.0140135
0.0228048
0.0314608
0.0406823
0.0523217
0.0720588
0.120807
0.00838777
0.0383558
0.0602758
0.074911
0.0844732
0.0906244
0.094403
0.0964209
0.0970207
0.0963646
0.0944833
0.0913045
0.0866738
0.0803677
0.072093
0.0614595
0.0478922
0.0304393
0.00828334
)
;
    }
    atmosphere
    {
        type            inletOutlet;
        inletValue      uniform 0.1;
        value           uniform 0.1;
    }
    defaultFaces
    {
        type            empty;
    }
}


// ************************************************************************* //
