/*--------------------------------*- C++ -*----------------------------------*\
| =========                 |                                                 |
| \\      /  F ield         | OpenFOAM: The Open Source CFD Toolbox           |
|  \\    /   O peration     | Version:  2406                                  |
|   \\  /    A nd           | Website:  www.openfoam.com                      |
|    \\/     M anipulation  |                                                 |
\*---------------------------------------------------------------------------*/
FoamFile
{
    version     2.0;
    format      ascii;
    arch        "LSB;label=32;scalar=64";
    class       volScalarField;
    location    "0.65";
    object      epsilon;
}
// * * * * * * * * * * * * * * * * * * * * * * * * * * * * * * * * * * * * * //

dimensions      [0 2 -3 0 0 0 0];

internalField   nonuniform List<scalar> 
2268
(
0.00797019
0.0327393
0.0534763
0.0700469
0.0833734
0.0940987
0.102685
0.109483
0.114768
0.118753
0.121602
0.123426
0.124282
0.124165
0.122995
0.120593
0.116638
0.110605
0.101647
0.0884611
0.0692221
0.042046
0.00830412
0.0137645
0.0225707
0.0313141
0.0384608
0.044178
0.0487224
0.0523089
0.0551078
0.0572529
0.0588482
0.0599715
0.0606755
0.0609874
0.0609061
0.0603968
0.0593822
0.0577281
0.0552193
0.0515242
0.0461518
0.0384491
0.0278712
0.0162225
0.0217892
0.0234312
0.02891
0.0337313
0.0376559
0.0407788
0.043231
0.0451304
0.0465739
0.047638
0.04838
0.0488387
0.0490347
0.048968
0.0486161
0.0479292
0.0468235
0.0451716
0.0427917
0.0394418
0.0348546
0.0290565
0.0275598
0.0290608
0.0255315
0.0290963
0.032665
0.0356707
0.038089
0.0399922
0.0414636
0.0425779
0.0433956
0.0439629
0.0443115
0.0444584
0.0444054
0.0441374
0.0436215
0.0428045
0.041614
0.0399648
0.0377842
0.0350937
0.032449
0.0388139
0.0354861
0.0278193
0.0299769
0.0326654
0.035045
0.0369955
0.0385418
0.0397398
0.0406467
0.0413111
0.0417713
0.0420539
0.0421741
0.0421349
0.0419277
0.0415326
0.0409208
0.0400631
0.0389535
0.0376676
0.0365247
0.0367491
0.0505363
0.0411763
0.0300327
0.0310704
0.0330741
0.0349733
0.0365704
0.0378509
0.0388482
0.0396045
0.040159
0.0405434
0.0407805
0.040884
0.0408587
0.0407015
0.0404032
0.0399555
0.0393654
0.0386938
0.0381547
0.0384097
0.0417445
0.0646897
0.0462431
0.0320901
0.0322023
0.0336479
0.0351576
0.03647
0.0375383
0.0383765
0.0390146
0.0394836
0.0398097
0.0400126
0.040105
0.0400933
0.039979
0.0397624
0.0394517
0.039083
0.0387709
0.0388476
0.0403402
0.0473143
0.0880649
0.0507745
0.0339694
0.0332988
0.0342786
0.0354634
0.0365384
0.0374304
0.0381371
0.0386781
0.0390771
0.0393559
0.0395316
0.0396161
0.0396172
0.0395402
0.0393933
0.0391974
0.0390101
0.0389824
0.0395192
0.0418973
0.0524048
0.149534
0.00908373
0.0458814
0.0741747
0.093178
0.105479
0.113259
0.117925
0.120305
0.120855
0.119792
0.117171
0.112925
0.106881
0.0987716
0.0882182
0.0747028
0.0574943
0.0355411
0.00875099
0.0158215
0.029338
0.0404427
0.048092
0.0531362
0.0563719
0.0583375
0.0593635
0.0596379
0.0592514
0.058224
0.0565199
0.0540539
0.0506927
0.0462502
0.0404778
0.0330602
0.0237227
0.0136025
0.0264525
0.029801
0.0360306
0.0406448
0.043828
0.0459355
0.0472445
0.0479421
0.0481414
0.0478981
0.0472221
0.0460843
0.0444208
0.0421329
0.0390873
0.0351205
0.0300795
0.0240891
0.0210932
0.037061
0.0326995
0.0357593
0.0385492
0.0406681
0.0421528
0.043107
0.0436261
0.0437766
0.043592
0.0430752
0.0422006
0.0409157
0.0391425
0.0367812
0.0337267
0.0299435
0.0258737
0.0279042
0.0482224
0.0365488
0.0367638
0.0380899
0.0394037
0.040431
0.0411281
0.0415167
0.0416258
0.0414716
0.0410508
0.0403398
0.0392944
0.0378523
0.0359404
0.0335004
0.0305915
0.0279184
0.0339362
0.061974
0.0410444
0.0382523
0.038286
0.0389349
0.0395917
0.040081
0.0403625
0.0404342
0.0402973
0.039943
0.0393489
0.0384777
0.0372801
0.0357049
0.0337329
0.0315006
0.0299334
0.039281
0.0850088
0.045975
0.039819
0.038736
0.0388391
0.0391905
0.0395063
0.0396967
0.0397343
0.0396077
0.0393035
0.0388
0.0380656
0.0370619
0.0357565
0.0341626
0.0324803
0.0318239
0.0440392
0.142874
0.0503307
0.041107
0.0392258
0.0389141
0.0390204
0.0391921
0.0393048
0.0393119
0.0391919
0.0389275
0.0384977
0.0378757
0.0370324
0.0359512
0.0346722
0.0334486
0.0335599
0.0482928
0.0571815
0.0366319
0.0349078
0.03527
0.0360242
0.0367843
0.0374421
0.0379744
0.0383867
0.0386936
0.0389104
0.0390508
0.0391259
0.0391449
0.0391184
0.0390635
0.0390159
0.0390539
0.0393543
0.0403298
0.0430298
0.0505499
0.0739977
0.0640386
0.0394881
0.0366986
0.0364549
0.0367874
0.0372368
0.037662
0.0380201
0.0383035
0.0385177
0.0386723
0.0387772
0.0388423
0.0388778
0.0388973
0.0389225
0.0389932
0.0391846
0.039642
0.0406449
0.0427338
0.0469315
0.0549476
0.0694789
0.0417209
0.0381173
0.0374255
0.0374484
0.0376682
0.0379197
0.0381463
0.0383315
0.0384743
0.03858
0.038656
0.0387106
0.0387538
0.0387991
0.0388673
0.0389928
0.0392336
0.0396858
0.0405024
0.0419056
0.044147
0.0472587
0.0737753
0.0434524
0.0392206
0.0381933
0.0379866
0.0380357
0.0381566
0.0382831
0.0383923
0.038479
0.0385453
0.0385963
0.038639
0.038682
0.0387369
0.0388209
0.0389596
0.0391918
0.0395726
0.0401736
0.041067
0.0422734
0.0436348
0.0771425
0.0447833
0.0400668
0.0387876
0.0384102
0.0383319
0.0383546
0.0384047
0.038455
0.0384971
0.038531
0.03856
0.0385893
0.0386261
0.0386793
0.0387616
0.0388903
0.0390884
0.0393841
0.0398055
0.0403659
0.0410344
0.0416918
0.0797557
0.0457964
0.0407083
0.0392402
0.038736
0.038563
0.0385119
0.0385038
0.0385083
0.038515
0.038522
0.0385312
0.0385466
0.0385732
0.0386178
0.0386888
0.0387967
0.038954
0.0391732
0.0394621
0.0398146
0.0401984
0.0405423
0.081761
0.0465593
0.041189
0.0395803
0.0389825
0.0387393
0.038633
0.0385807
0.0385497
0.0385281
0.0385127
0.0385044
0.0385059
0.0385206
0.038553
0.0386083
0.0386925
0.0388113
0.0389689
0.0391648
0.0393889
0.039617
0.0398088
0.083281
0.0471272
0.0415452
0.0398329
0.0391665
0.0388717
0.0387243
0.0386385
0.0385801
0.038536
0.0385021
0.0384785
0.0384667
0.038469
0.0384881
0.0385269
0.0385883
0.0386742
0.0387849
0.0389168
0.0390609
0.0392006
0.0393131
0.0844182
0.0475449
0.0418063
0.0400185
0.0393024
0.0389699
0.0387921
0.0386812
0.0386016
0.0385397
0.0384907
0.0384538
0.0384299
0.0384203
0.0384266
0.0384498
0.0384911
0.0385504
0.0386261
0.0387142
0.0388075
0.0388951
0.0389637
0.0852577
0.0478484
0.0419954
0.0401534
0.0394017
0.039042
0.038842
0.0387123
0.0386166
0.0385407
0.0384793
0.0384312
0.0383967
0.0383764
0.0383709
0.0383804
0.0384049
0.0384431
0.0384931
0.0385511
0.0386115
0.0386672
0.0387103
0.0858692
0.0480661
0.042131
0.0402506
0.0394737
0.0390946
0.0388785
0.0387349
0.038627
0.0385401
0.0384688
0.0384114
0.0383679
0.0383382
0.0383225
0.0383205
0.0383312
0.0383533
0.0383844
0.0384214
0.0384601
0.0384957
0.0385231
0.0863088
0.0482205
0.0422271
0.04032
0.0395255
0.0391328
0.0389052
0.0387514
0.0386343
0.038539
0.0384598
0.0383948
0.0383437
0.0383062
0.038282
0.0382705
0.0382703
0.03828
0.0382973
0.0383196
0.0383437
0.0383661
0.0383836
0.0866208
0.0483287
0.0422945
0.040369
0.0395625
0.0391604
0.0389246
0.0387634
0.0386396
0.0385378
0.0384525
0.0383815
0.0383242
0.0382803
0.0382492
0.03823
0.0382214
0.0382217
0.0382289
0.0382408
0.0382548
0.0382684
0.0382795
0.0868395
0.0484036
0.0423414
0.0404034
0.0395888
0.0391802
0.0389388
0.0387724
0.0386435
0.038537
0.0384469
0.0383712
0.0383091
0.03826
0.0382234
0.0381982
0.038183
0.0381763
0.0381761
0.0381806
0.0381876
0.0381953
0.0382021
0.0869909
0.0484549
0.0423736
0.0404274
0.0396074
0.0391945
0.0389491
0.0387791
0.0386466
0.0385366
0.0384429
0.0383636
0.0382977
0.0382446
0.0382037
0.0381738
0.0381537
0.0381417
0.0381362
0.0381353
0.0381375
0.0381411
0.0381451
0.0870947
0.0484897
0.0423956
0.040444
0.0396205
0.0392047
0.0389567
0.0387841
0.0386492
0.0385365
0.0384403
0.0383582
0.0382894
0.0382333
0.0381891
0.0381557
0.0381319
0.038116
0.0381066
0.0381019
0.0381007
0.0381015
0.0381034
0.0871651
0.0485131
0.0424105
0.0404553
0.0396296
0.039212
0.0389623
0.038788
0.0386513
0.0385368
0.0384386
0.0383545
0.0382836
0.0382252
0.0381785
0.0381426
0.038116
0.0380973
0.038085
0.0380777
0.0380741
0.0380729
0.0380735
0.0872123
0.0485286
0.0424205
0.0404631
0.0396359
0.0392172
0.0389664
0.0387909
0.038653
0.0385373
0.0384377
0.0383522
0.0382797
0.0382196
0.0381712
0.0381333
0.0381047
0.038084
0.0380697
0.0380605
0.0380552
0.0380527
0.0380523
0.0872437
0.0485389
0.0424271
0.0404683
0.0396403
0.0392209
0.0389694
0.0387932
0.0386545
0.0385379
0.0384374
0.0383508
0.0382772
0.0382159
0.0381662
0.0381269
0.0380969
0.0380748
0.0380591
0.0380486
0.0380421
0.0380387
0.0380376
0.0872643
0.0485456
0.0424315
0.0404719
0.0396434
0.0392235
0.0389716
0.0387949
0.0386557
0.0385385
0.0384374
0.0383501
0.0382757
0.0382136
0.0381629
0.0381227
0.0380917
0.0380686
0.0380519
0.0380405
0.0380331
0.0380291
0.0380276
0.0872779
0.04855
0.0424344
0.0404742
0.0396454
0.0392253
0.0389732
0.0387962
0.0386567
0.0385391
0.0384376
0.0383498
0.0382749
0.0382122
0.0381609
0.03812
0.0380883
0.0380645
0.0380471
0.0380351
0.0380272
0.0380227
0.038021
0.0872866
0.0485528
0.0424362
0.0404758
0.0396469
0.0392266
0.0389743
0.0387972
0.0386575
0.0385397
0.0384379
0.0383498
0.0382745
0.0382114
0.0381597
0.0381184
0.0380862
0.0380619
0.0380441
0.0380316
0.0380234
0.0380186
0.0380167
0.0872923
0.0485546
0.0424375
0.0404768
0.0396478
0.0392275
0.0389752
0.038798
0.0386581
0.0385402
0.0384382
0.0383499
0.0382744
0.038211
0.038159
0.0381174
0.0380849
0.0380603
0.0380422
0.0380294
0.038021
0.038016
0.038014
0.0872959
0.0485557
0.0424382
0.0404775
0.0396485
0.0392281
0.0389757
0.0387985
0.0386586
0.0385406
0.0384385
0.0383501
0.0382744
0.0382109
0.0381587
0.0381169
0.0380842
0.0380594
0.0380411
0.0380281
0.0380195
0.0380144
0.0380123
0.0872982
0.0485564
0.0424387
0.040478
0.0396489
0.0392286
0.0389762
0.0387989
0.0386589
0.0385409
0.0384387
0.0383502
0.0382745
0.0382109
0.0381586
0.0381167
0.0380839
0.0380589
0.0380405
0.0380274
0.0380187
0.0380135
0.0380113
0.0872996
0.0485569
0.0424391
0.0404783
0.0396492
0.0392288
0.0389764
0.0387992
0.0386592
0.0385411
0.038439
0.0383504
0.0382746
0.038211
0.0381586
0.0381166
0.0380837
0.0380587
0.0380402
0.038027
0.0380182
0.038013
0.0380108
0.0873005
0.0485572
0.0424393
0.0404784
0.0396494
0.039229
0.0389766
0.0387994
0.0386594
0.0385413
0.0384391
0.0383506
0.0382748
0.038211
0.0381587
0.0381166
0.0380837
0.0380586
0.03804
0.0380268
0.038018
0.0380128
0.0380105
0.0873011
0.0485574
0.0424394
0.0404786
0.0396495
0.0392292
0.0389768
0.0387995
0.0386596
0.0385415
0.0384393
0.0383507
0.0382749
0.0382111
0.0381587
0.0381166
0.0380837
0.0380585
0.03804
0.0380268
0.0380179
0.0380127
0.0380104
0.0873014
0.0485575
0.0424395
0.0404786
0.0396496
0.0392293
0.0389769
0.0387996
0.0386597
0.0385416
0.0384394
0.0383508
0.038275
0.0382112
0.0381588
0.0381167
0.0380837
0.0380586
0.03804
0.0380268
0.0380179
0.0380126
0.0380104
0.0873017
0.0485575
0.0424395
0.0404787
0.0396496
0.0392293
0.0389769
0.0387997
0.0386597
0.0385417
0.0384394
0.0383509
0.038275
0.0382113
0.0381589
0.0381168
0.0380838
0.0380586
0.03804
0.0380268
0.0380179
0.0380126
0.0380104
0.0873018
0.0485576
0.0424396
0.0404787
0.0396496
0.0392293
0.038977
0.0387997
0.0386598
0.0385417
0.0384395
0.0383509
0.0382751
0.0382113
0.0381589
0.0381168
0.0380838
0.0380586
0.03804
0.0380268
0.038018
0.0380127
0.0380104
0.0873019
0.0485576
0.0424396
0.0404787
0.0396497
0.0392294
0.038977
0.0387998
0.0386598
0.0385417
0.0384395
0.038351
0.0382751
0.0382114
0.038159
0.0381168
0.0380838
0.0380587
0.0380401
0.0380268
0.038018
0.0380127
0.0380104
0.0873019
0.0485576
0.0424396
0.0404787
0.0396497
0.0392294
0.038977
0.0387998
0.0386598
0.0385418
0.0384396
0.038351
0.0382752
0.0382114
0.038159
0.0381169
0.0380839
0.0380587
0.0380401
0.0380269
0.038018
0.0380127
0.0380104
0.087302
0.0485576
0.0424396
0.0404788
0.0396497
0.0392294
0.038977
0.0387998
0.0386598
0.0385418
0.0384396
0.038351
0.0382752
0.0382114
0.038159
0.0381169
0.0380839
0.0380587
0.0380401
0.0380269
0.038018
0.0380127
0.0380104
0.087302
0.0485576
0.0424396
0.0404788
0.0396497
0.0392294
0.038977
0.0387998
0.0386599
0.0385418
0.0384396
0.038351
0.0382752
0.0382114
0.038159
0.0381169
0.0380839
0.0380587
0.0380401
0.0380269
0.038018
0.0380127
0.0380105
0.087302
0.0485576
0.0424396
0.0404788
0.0396497
0.0392294
0.038977
0.0387998
0.0386599
0.0385418
0.0384396
0.038351
0.0382752
0.0382115
0.038159
0.0381169
0.0380839
0.0380587
0.0380401
0.0380269
0.038018
0.0380127
0.0380104
0.087302
0.0485576
0.0424396
0.0404788
0.0396497
0.0392294
0.038977
0.0387998
0.0386599
0.0385418
0.0384396
0.038351
0.0382752
0.0382115
0.038159
0.0381169
0.0380839
0.0380587
0.0380401
0.0380269
0.038018
0.0380127
0.0380104
0.087302
0.0485576
0.0424396
0.0404788
0.0396497
0.0392294
0.038977
0.0387998
0.0386599
0.0385418
0.0384396
0.038351
0.0382752
0.0382115
0.038159
0.0381169
0.0380839
0.0380587
0.0380401
0.0380269
0.038018
0.0380127
0.0380104
0.087302
0.0485576
0.0424396
0.0404788
0.0396497
0.0392294
0.038977
0.0387998
0.0386599
0.0385418
0.0384396
0.038351
0.0382752
0.0382115
0.038159
0.0381169
0.0380839
0.0380587
0.0380401
0.0380269
0.038018
0.0380127
0.0380104
0.087302
0.0485576
0.0424396
0.0404788
0.0396497
0.0392294
0.038977
0.0387998
0.0386599
0.0385418
0.0384396
0.038351
0.0382752
0.0382115
0.038159
0.0381169
0.0380839
0.0380587
0.0380401
0.0380269
0.038018
0.0380127
0.0380104
0.087302
0.0485576
0.0424396
0.0404788
0.0396497
0.0392294
0.038977
0.0387998
0.0386599
0.0385418
0.0384396
0.038351
0.0382752
0.0382115
0.038159
0.0381169
0.0380839
0.0380587
0.0380401
0.0380269
0.038018
0.0380126
0.0380104
0.087302
0.0485576
0.0424396
0.0404788
0.0396497
0.0392294
0.038977
0.0387998
0.0386599
0.0385418
0.0384396
0.038351
0.0382752
0.0382115
0.038159
0.0381169
0.0380839
0.0380587
0.0380401
0.0380269
0.038018
0.0380126
0.0380103
0.182172
0.141922
0.141587
0.18031
0.0648857
0.0655538
0.0655197
0.0648094
0.049425
0.0500466
0.0500406
0.0494104
0.0443636
0.0446094
0.0446078
0.0443592
0.0419989
0.0421036
0.0421033
0.0419983
0.040691
0.0407413
0.0407415
0.0406918
0.0398881
0.0399148
0.0399152
0.0398895
0.0393585
0.0393738
0.0393744
0.0393603
0.0389911
0.0390005
0.0390012
0.0389932
0.0387275
0.0387335
0.0387343
0.0387299
0.0385343
0.0385384
0.0385392
0.0385369
0.0383911
0.038394
0.0383949
0.038394
0.0382846
0.0382868
0.0382878
0.0382878
0.0382056
0.0382073
0.0382085
0.038209
0.0381475
0.0381489
0.0381501
0.0381511
0.0381052
0.0381064
0.0381076
0.0381089
0.0380748
0.0380759
0.0380771
0.0380786
0.0380533
0.0380543
0.0380556
0.0380573
0.0380384
0.0380393
0.0380406
0.0380424
0.0380283
0.0380291
0.0380305
0.0380323
0.0380215
0.0380224
0.0380237
0.0380256
0.0380171
0.038018
0.0380193
0.0380213
0.0380144
0.0380152
0.0380166
0.0380185
0.0380127
0.0380135
0.0380149
0.0380169
0.0380117
0.0380125
0.0380139
0.0380159
0.0380112
0.038012
0.0380134
0.0380153
0.0380109
0.0380117
0.0380131
0.0380151
0.0380108
0.0380116
0.038013
0.0380149
0.0380107
0.0380115
0.0380129
0.0380149
0.0380107
0.0380115
0.0380129
0.0380149
0.0380107
0.0380116
0.0380129
0.0380149
0.0380108
0.0380116
0.038013
0.038015
0.0380108
0.0380116
0.038013
0.038015
0.0380108
0.0380116
0.038013
0.038015
0.0380108
0.0380116
0.038013
0.038015
0.0380108
0.0380116
0.038013
0.038015
0.0380108
0.0380116
0.038013
0.038015
0.0380108
0.0380116
0.0380129
0.0380149
0.0380107
0.0380115
0.0380129
0.0380149
0.0380107
0.0380115
0.0380129
0.0380149
0.0380107
0.0380115
0.0380129
0.0380148
0.0380107
0.0380115
0.0380128
0.0380148
0.0719982
0.049069
0.042155
0.039868
0.0391312
0.0389453
0.0389345
0.0389455
0.0389112
0.0387985
0.0385857
0.0382527
0.0377791
0.0371482
0.0363644
0.0355025
0.0348861
0.0360271
0.0543026
0.0543588
0.0461267
0.0420716
0.0401913
0.0393564
0.0390043
0.0388598
0.0387873
0.0387181
0.0386149
0.0384541
0.0382179
0.0378921
0.0374722
0.0369817
0.0365285
0.0365063
0.0386807
0.0607259
0.047079
0.0437408
0.0414735
0.0401439
0.0394204
0.0390435
0.0388482
0.0387369
0.0386531
0.038563
0.0384448
0.0382834
0.0380699
0.0378082
0.0375349
0.0373818
0.0377971
0.0407556
0.0658145
0.0435726
0.0420684
0.0408015
0.039918
0.0393595
0.0390256
0.03883
0.0387114
0.0386291
0.0385562
0.0384749
0.0383732
0.0382463
0.0381042
0.0379931
0.0380624
0.0388036
0.0423633
0.0698282
0.041668
0.0409284
0.0402067
0.0396337
0.0392277
0.0389593
0.0387891
0.0386823
0.0386122
0.0385596
0.0385109
0.0384575
0.038398
0.0383468
0.0383571
0.0385916
0.0395767
0.0435979
0.0729709
0.0405329
0.0401426
0.0397207
0.0393518
0.0390667
0.038864
0.0387288
0.0386431
0.0385913
0.0385603
0.0385406
0.0385266
0.0385197
0.0385375
0.0386387
0.0389959
0.0401631
0.0445368
0.0754085
0.0398059
0.039588
0.0393352
0.0390979
0.0389026
0.0387569
0.0386573
0.0385961
0.0385646
0.0385549
0.0385607
0.0385789
0.0386132
0.0386835
0.0388524
0.0393003
0.0406028
0.0452435
0.077279
0.0393135
0.0391869
0.0390325
0.0388803
0.0387498
0.03865
0.0385826
0.0385454
0.0385341
0.0385443
0.0385723
0.0386167
0.038683
0.0387931
0.0390122
0.0395269
0.040929
0.0457696
0.0786974
0.0389662
0.0388907
0.0387956
0.0386991
0.0386148
0.0385509
0.0385109
0.0384953
0.0385026
0.0385306
0.0385773
0.038643
0.0387342
0.0388743
0.0391305
0.0396938
0.0411684
0.0461568
0.0797599
0.0387141
0.0386689
0.0386108
0.0385513
0.0384999
0.0384635
0.0384459
0.0384488
0.0384724
0.0385157
0.0385781
0.0386608
0.0387713
0.0389338
0.0392171
0.0398154
0.0413422
0.0464385
0.0805457
0.038528
0.0385014
0.0384672
0.0384328
0.038405
0.0383893
0.0383896
0.0384079
0.0384451
0.0385013
0.0385766
0.0386728
0.038798
0.0389771
0.0392801
0.0399034
0.0414672
0.0466411
0.0811195
0.0383894
0.0383748
0.0383564
0.0383392
0.0383284
0.0383284
0.0383426
0.0383732
0.0384217
0.0384885
0.0385741
0.0386808
0.0388172
0.0390086
0.0393256
0.0399664
0.0415562
0.0467852
0.0815334
0.038286
0.0382794
0.0382716
0.0382664
0.0382679
0.0382796
0.0383046
0.0383451
0.0384025
0.0384777
0.0385715
0.0386863
0.038831
0.0390313
0.0393583
0.0400113
0.0416189
0.0468865
0.0818283
0.0382092
0.0382079
0.0382075
0.0382108
0.0382212
0.0382416
0.0382748
0.0383229
0.0383874
0.0384692
0.0385692
0.0386902
0.0388411
0.0390478
0.0393817
0.040043
0.0416628
0.046957
0.082036
0.0381526
0.038155
0.0381597
0.038169
0.0381858
0.0382126
0.038252
0.038306
0.0383759
0.0384628
0.0385676
0.0386932
0.0388485
0.0390597
0.0393984
0.0400652
0.0416932
0.0470056
0.0821807
0.0381113
0.0381163
0.0381246
0.0381382
0.0381596
0.0381912
0.0382352
0.0382935
0.0383675
0.0384582
0.0385666
0.0386955
0.038854
0.0390683
0.0394102
0.0400807
0.041714
0.0470387
0.0822804
0.0380817
0.0380885
0.0380992
0.0381159
0.0381406
0.0381756
0.038223
0.0382846
0.0383616
0.0384551
0.0385661
0.0386974
0.0388582
0.0390746
0.0394186
0.0400915
0.0417283
0.0470611
0.0823485
0.0380607
0.0380688
0.0380813
0.0381001
0.0381272
0.0381647
0.0382145
0.0382784
0.0383577
0.0384532
0.038566
0.038699
0.0388613
0.0390791
0.0394245
0.0400989
0.0417379
0.0470761
0.0823945
0.0380462
0.0380551
0.0380689
0.0380892
0.0381179
0.0381571
0.0382087
0.0382743
0.0383551
0.038452
0.0385662
0.0387003
0.0388637
0.0390824
0.0394287
0.040104
0.0417444
0.0470861
0.0824253
0.0380363
0.0380458
0.0380604
0.0380818
0.0381117
0.0381521
0.0382049
0.0382716
0.0383536
0.0384515
0.0385665
0.0387014
0.0388655
0.0390848
0.0394316
0.0401075
0.0417488
0.0470927
0.0824458
0.0380298
0.0380397
0.0380549
0.0380769
0.0381076
0.0381488
0.0382025
0.03827
0.0383527
0.0384513
0.0385669
0.0387024
0.0388668
0.0390865
0.0394336
0.0401099
0.0417516
0.047097
0.0824592
0.0380255
0.0380357
0.0380513
0.0380738
0.038105
0.0381468
0.038201
0.0382691
0.0383523
0.0384514
0.0385673
0.0387031
0.0388678
0.0390878
0.039435
0.0401115
0.0417535
0.0470999
0.0824681
0.0380228
0.0380332
0.038049
0.0380719
0.0381035
0.0381457
0.0382002
0.0382687
0.0383522
0.0384515
0.0385677
0.0387037
0.0388686
0.0390886
0.039436
0.0401125
0.0417548
0.0471017
0.0824738
0.0380212
0.0380317
0.0380477
0.0380708
0.0381026
0.038145
0.0381998
0.0382685
0.0383522
0.0384517
0.0385681
0.0387042
0.0388692
0.0390893
0.0394366
0.0401132
0.0417556
0.0471028
0.0824775
0.0380203
0.0380308
0.0380469
0.0380701
0.0381021
0.0381447
0.0381996
0.0382684
0.0383523
0.0384519
0.0385684
0.0387046
0.0388696
0.0390897
0.0394371
0.0401137
0.0417561
0.0471036
0.0824799
0.0380198
0.0380304
0.0380465
0.0380698
0.0381019
0.0381445
0.0381996
0.0382685
0.0383524
0.0384521
0.0385686
0.0387048
0.0388699
0.03909
0.0394374
0.040114
0.0417564
0.0471041
0.0824814
0.0380195
0.0380301
0.0380463
0.0380697
0.0381018
0.0381445
0.0381996
0.0382686
0.0383525
0.0384523
0.0385688
0.038705
0.0388701
0.0390902
0.0394376
0.0401142
0.0417567
0.0471044
0.0824823
0.0380194
0.03803
0.0380463
0.0380696
0.0381018
0.0381445
0.0381997
0.0382687
0.0383526
0.0384524
0.038569
0.0387052
0.0388702
0.0390904
0.0394378
0.0401144
0.0417568
0.0471045
0.0824829
0.0380193
0.03803
0.0380463
0.0380696
0.0381018
0.0381446
0.0381997
0.0382687
0.0383527
0.0384525
0.0385691
0.0387053
0.0388703
0.0390904
0.0394378
0.0401144
0.0417569
0.0471047
0.0824833
0.0380193
0.03803
0.0380463
0.0380697
0.0381018
0.0381446
0.0381998
0.0382688
0.0383528
0.0384526
0.0385691
0.0387054
0.0388704
0.0390905
0.0394379
0.0401145
0.0417569
0.0471047
0.0824835
0.0380194
0.03803
0.0380463
0.0380697
0.0381019
0.0381447
0.0381998
0.0382689
0.0383529
0.0384526
0.0385692
0.0387054
0.0388704
0.0390906
0.0394379
0.0401145
0.041757
0.0471048
0.0824837
0.0380194
0.0380301
0.0380463
0.0380697
0.0381019
0.0381447
0.0381999
0.0382689
0.0383529
0.0384527
0.0385692
0.0387055
0.0388705
0.0390906
0.039438
0.0401146
0.041757
0.0471048
0.0824838
0.0380194
0.0380301
0.0380464
0.0380697
0.0381019
0.0381447
0.0381999
0.0382689
0.0383529
0.0384527
0.0385693
0.0387055
0.0388705
0.0390906
0.039438
0.0401146
0.041757
0.0471048
0.0824838
0.0380194
0.0380301
0.0380464
0.0380698
0.0381019
0.0381448
0.0381999
0.0382689
0.0383529
0.0384527
0.0385693
0.0387055
0.0388705
0.0390906
0.039438
0.0401146
0.041757
0.0471048
0.0824838
0.0380194
0.0380301
0.0380464
0.0380698
0.038102
0.0381448
0.0381999
0.038269
0.038353
0.0384527
0.0385693
0.0387055
0.0388705
0.0390906
0.039438
0.0401146
0.041757
0.0471048
0.0824839
0.0380194
0.0380301
0.0380464
0.0380698
0.038102
0.0381448
0.0381999
0.038269
0.038353
0.0384527
0.0385693
0.0387055
0.0388705
0.0390906
0.039438
0.0401146
0.041757
0.0471048
0.0824839
0.0380194
0.0380301
0.0380464
0.0380698
0.038102
0.0381448
0.0381999
0.038269
0.038353
0.0384527
0.0385693
0.0387055
0.0388705
0.0390906
0.039438
0.0401146
0.041757
0.0471048
0.0824839
0.0380194
0.0380301
0.0380464
0.0380698
0.038102
0.0381448
0.0381999
0.038269
0.038353
0.0384527
0.0385693
0.0387055
0.0388705
0.0390906
0.039438
0.0401146
0.041757
0.0471048
0.0824839
0.0380194
0.03803
0.0380463
0.0380697
0.0381019
0.0381448
0.0381999
0.038269
0.038353
0.0384527
0.0385693
0.0387055
0.0388705
0.0390906
0.039438
0.0401146
0.041757
0.0471048
0.0824839
0.0380193
0.03803
0.0380463
0.0380697
0.0381019
0.0381448
0.0381999
0.038269
0.038353
0.0384527
0.0385693
0.0387055
0.0388705
0.0390906
0.039438
0.0401146
0.041757
0.0471048
0.0824839
0.0380193
0.03803
0.0380463
0.0380697
0.0381019
0.0381448
0.0381999
0.038269
0.038353
0.0384527
0.0385693
0.0387055
0.0388705
0.0390906
0.039438
0.0401146
0.041757
0.0471048
0.0824839
0.0380193
0.03803
0.0380463
0.0380697
0.0381019
0.0381448
0.0381999
0.038269
0.038353
0.0384527
0.0385693
0.0387055
0.0388705
0.0390906
0.039438
0.0401146
0.041757
0.0471048
0.0824839
)
;

boundaryField
{
    leftWall
    {
        type            epsilonWallFunction;
        blending        stepwise;
        value           nonuniform List<scalar> 
50
(
0.00797019
0.0137645
0.0217892
0.0290608
0.0354861
0.0411763
0.0462431
0.0507745
0.0571815
0.0640386
0.0694789
0.0737753
0.0771425
0.0797557
0.081761
0.083281
0.0844182
0.0852577
0.0858692
0.0863088
0.0866208
0.0868395
0.0869909
0.0870947
0.0871651
0.0872123
0.0872437
0.0872643
0.0872779
0.0872866
0.0872923
0.0872959
0.0872982
0.0872996
0.0873005
0.0873011
0.0873014
0.0873017
0.0873018
0.0873019
0.0873019
0.087302
0.087302
0.087302
0.087302
0.087302
0.087302
0.087302
0.087302
0.087302
)
;
    }
    rightWall
    {
        type            epsilonWallFunction;
        blending        stepwise;
        value           nonuniform List<scalar> 
50
(
0.00875099
0.0136025
0.0210932
0.0279042
0.0339362
0.039281
0.0440392
0.0482928
0.0543026
0.0607259
0.0658145
0.0698282
0.0729709
0.0754085
0.077279
0.0786974
0.0797599
0.0805457
0.0811195
0.0815334
0.0818283
0.082036
0.0821807
0.0822804
0.0823485
0.0823945
0.0824253
0.0824458
0.0824592
0.0824681
0.0824738
0.0824775
0.0824799
0.0824814
0.0824823
0.0824829
0.0824833
0.0824835
0.0824837
0.0824838
0.0824838
0.0824838
0.0824839
0.0824839
0.0824839
0.0824839
0.0824839
0.0824839
0.0824839
0.0824839
)
;
    }
    lowerWall
    {
        type            epsilonWallFunction;
        blending        stepwise;
        value           nonuniform List<scalar> 
62
(
0.00797019
0.0327393
0.0534763
0.0700469
0.0833734
0.0940987
0.102685
0.109483
0.114768
0.118753
0.121602
0.123426
0.124282
0.124165
0.122995
0.120593
0.116638
0.110605
0.101647
0.0884611
0.0692221
0.042046
0.00830412
0.00830412
0.0162225
0.0275598
0.0388139
0.0505363
0.0646897
0.0880649
0.149534
0.182172
0.141922
0.141587
0.18031
0.00908373
0.0158215
0.0264525
0.037061
0.0482224
0.061974
0.0850088
0.142874
0.00908373
0.0458814
0.0741747
0.093178
0.105479
0.113259
0.117925
0.120305
0.120855
0.119792
0.117171
0.112925
0.106881
0.0987716
0.0882182
0.0747028
0.0574943
0.0355411
0.00875099
)
;
    }
    atmosphere
    {
        type            inletOutlet;
        inletValue      uniform 0.1;
        value           nonuniform List<scalar> 
46
(
0.087302
0.0485576
0.0424396
0.0404788
0.0396497
0.0392294
0.038977
0.0387998
0.0386599
0.0385418
0.0384396
0.038351
0.0382752
0.0382115
0.038159
0.0381169
0.0380839
0.0380587
0.0380401
0.0380269
0.038018
0.0380126
0.0380103
0.0380107
0.0380115
0.0380128
0.0380148
0.0380193
0.03803
0.0380463
0.0380697
0.0381019
0.0381448
0.0381999
0.038269
0.038353
0.0384527
0.0385693
0.0387055
0.0388705
0.0390906
0.039438
0.0401146
0.041757
0.0471048
0.0824839
)
;
    }
    defaultFaces
    {
        type            empty;
    }
}


// ************************************************************************* //
