/*--------------------------------*- C++ -*----------------------------------*\
| =========                 |                                                 |
| \\      /  F ield         | OpenFOAM: The Open Source CFD Toolbox           |
|  \\    /   O peration     | Version:  2406                                  |
|   \\  /    A nd           | Website:  www.openfoam.com                      |
|    \\/     M anipulation  |                                                 |
\*---------------------------------------------------------------------------*/
FoamFile
{
    version     2.0;
    format      ascii;
    arch        "LSB;label=32;scalar=64";
    class       volScalarField;
    location    "0.65";
    object      k;
}
// * * * * * * * * * * * * * * * * * * * * * * * * * * * * * * * * * * * * * //

dimensions      [0 2 -2 0 0 0 0];

internalField   nonuniform List<scalar> 
2268
(
0.0017841
0.00375915
0.00522398
0.00626354
0.00704427
0.00764559
0.00811303
0.00847593
0.00875449
0.00896307
0.00911187
0.00920759
0.00925371
0.0092503
0.00919336
0.00907347
0.00887336
0.00856322
0.00809225
0.00737332
0.00625681
0.00448108
0.00150857
0.00346243
0.00864288
0.0117279
0.0139435
0.0156145
0.0169026
0.0179035
0.01868
0.0192757
0.0197216
0.0200398
0.0202449
0.0203443
0.0203382
0.0202183
0.0199645
0.0195407
0.0188845
0.0178911
0.0163828
0.0140584
0.0103999
0.00389692
0.00471467
0.0113837
0.015166
0.0178877
0.0199518
0.0215488
0.0227933
0.0237609
0.0245048
0.0250632
0.0254632
0.0257226
0.0258509
0.0258485
0.0257057
0.0253988
0.0248851
0.0240917
0.0228963
0.0210917
0.0183193
0.0139073
0.00556379
0.00572184
0.0134412
0.0176629
0.0206897
0.0229936
0.0247829
0.0261814
0.027272
0.0281128
0.0287461
0.0292017
0.0294997
0.0296507
0.0296559
0.0295051
0.0291741
0.0286182
0.0277624
0.0264808
0.0245576
0.0216012
0.0167814
0.00700354
0.00654465
0.0151295
0.019689
0.0229355
0.0254107
0.0273391
0.0288511
0.0300337
0.0309484
0.0316398
0.0321399
0.0324702
0.0326424
0.0326584
0.0325089
0.0321702
0.0315993
0.0307234
0.0294211
0.0274807
0.0244926
0.0194607
0.0083628
0.00723379
0.0165624
0.021407
0.0248289
0.027438
0.0294755
0.0310777
0.0323347
0.0333101
0.0340505
0.034589
0.0349485
0.0351417
0.0351716
0.0350302
0.0346958
0.0341286
0.0332617
0.0319842
0.0300994
0.0272032
0.0221677
0.00987223
0.00782228
0.0177996
0.0228953
0.0264663
0.0291868
0.0313147
0.0329922
0.0343121
0.0353398
0.0361231
0.0366964
0.0370834
0.037298
0.0373446
0.0372167
0.0368957
0.0363463
0.03551
0.0342903
0.0325167
0.0298267
0.0250883
0.0121435
0.00833171
0.0188792
0.0242002
0.0279032
0.03072
0.0329257
0.0346684
0.0360433
0.0371174
0.0379396
0.0385451
0.0389587
0.0391954
0.0392609
0.0391512
0.0388507
0.0383298
0.0375395
0.0364007
0.034777
0.0323863
0.0283499
0.0173092
0.00160071
0.00474993
0.0065513
0.00763141
0.00829119
0.0086948
0.00893157
0.00904967
0.00907422
0.00901655
0.00887879
0.00865593
0.00833621
0.00790021
0.00731774
0.00654061
0.00548419
0.00397154
0.00193956
0.00410771
0.0109481
0.0146676
0.01692
0.018306
0.0191579
0.0196585
0.0199079
0.0199586
0.0198345
0.0195397
0.0190633
0.0183797
0.0174468
0.0161997
0.0145361
0.0122814
0.00908479
0.00368239
0.00580329
0.0145656
0.0190403
0.0217257
0.0233846
0.0244091
0.0250121
0.0253103
0.0253651
0.0252045
0.0248329
0.0242365
0.0233838
0.022223
0.0206752
0.0186175
0.0158425
0.0119189
0.00494628
0.00728085
0.0175026
0.0223642
0.0252218
0.0269893
0.0280865
0.0287333
0.0290495
0.0290984
0.0289083
0.0284831
0.0278067
0.0268439
0.0255376
0.0238014
0.0215014
0.0184113
0.0140322
0.0059713
0.00869117
0.0202226
0.0252576
0.0281364
0.0299185
0.0310315
0.0316884
0.0320043
0.0320398
0.0318217
0.031352
0.0306128
0.0295663
0.0281519
0.0262782
0.0238041
0.0204876
0.0157621
0.00681232
0.0102881
0.0229453
0.0279364
0.0307183
0.0324485
0.0335377
0.0341811
0.0344833
0.0344994
0.0342526
0.033743
0.0329505
0.0318351
0.0303337
0.0283513
0.025741
0.0222446
0.0172294
0.00751783
0.0127199
0.0258357
0.0304945
0.0330765
0.0347053
0.0357419
0.0363542
0.0366323
0.0366237
0.0363472
0.0358
0.0349599
0.0337851
0.0322102
0.0301374
0.0274138
0.0237655
0.0184964
0.00812055
0.0180078
0.028986
0.0329587
0.0352619
0.0367552
0.0377187
0.0382868
0.0385328
0.0384952
0.0381876
0.0376042
0.0367204
0.0354925
0.0338534
0.0317023
0.0288808
0.0250988
0.0196022
0.00864229
0.0090285
0.0203625
0.0260025
0.0298915
0.0328426
0.0351558
0.0369886
0.0384404
0.0395802
0.0404583
0.0411113
0.0415655
0.0418376
0.041936
0.0418601
0.0416003
0.0411363
0.0404348
0.0394447
0.0380856
0.0362149
0.0335176
0.0290633
0.00974993
0.0219118
0.0279043
0.0320035
0.0351058
0.0375395
0.0394734
0.0410124
0.0422283
0.0431731
0.0438855
0.0443933
0.0447162
0.0448659
0.0448472
0.0446584
0.0442912
0.0437315
0.0429594
0.0419499
0.0406723
0.0390875
0.0371524
0.0103075
0.0231155
0.0293956
0.0336725
0.0369047
0.0394425
0.0414644
0.04308
0.0443636
0.0453695
0.0461376
0.0466981
0.0470729
0.0472772
0.0473207
0.0472084
0.0469418
0.0465206
0.0459455
0.0452221
0.0443682
0.0434274
0.0424997
0.0107404
0.0240549
0.0305695
0.0349966
0.0383416
0.040971
0.0430712
0.0447555
0.0461008
0.0471631
0.0479842
0.0485957
0.0490221
0.0492815
0.0493877
0.0493508
0.0491794
0.0488822
0.0484709
0.0479644
0.0473945
0.0468141
0.0463065
0.0110763
0.0247876
0.0314931
0.0360471
0.0394899
0.0422004
0.0443706
0.0461171
0.047519
0.0486337
0.0495046
0.0501651
0.0506415
0.0509544
0.0511207
0.0511545
0.0510688
0.0508774
0.0505971
0.0502507
0.0498701
0.0494987
0.0491922
0.0113356
0.0253572
0.0322176
0.0368782
0.0404055
0.0431875
0.0454203
0.0472231
0.0486768
0.0498401
0.0507577
0.0514644
0.0519881
0.0523516
0.0525738
0.0526716
0.0526607
0.0525574
0.0523804
0.0521521
0.0519002
0.0516578
0.0514612
0.0115344
0.0257972
0.0327828
0.0375326
0.0411326
0.0439771
0.0462658
0.0481194
0.0496202
0.0508281
0.0517888
0.0525385
0.0531063
0.0535164
0.0537895
0.053944
0.0539973
0.0539667
0.053871
0.0537307
0.053569
0.0534109
0.0532812
0.0116854
0.0261346
0.0332208
0.0380447
0.0417066
0.0446057
0.0469435
0.0488425
0.0503859
0.0516343
0.0526346
0.0534237
0.0540318
0.0544842
0.0548028
0.0550069
0.0551147
0.0551438
0.0551121
0.0550384
0.0549419
0.054842
0.0547561
0.011799
0.0263909
0.0335573
0.0384424
0.0421567
0.0451028
0.0474837
0.0494228
0.0510042
0.0522891
0.0533251
0.0541498
0.0547943
0.0552846
0.0556432
0.0558901
0.0560439
0.0561219
0.0561412
0.0561186
0.0560705
0.0560121
0.0559567
0.0118833
0.0265837
0.0338137
0.0387487
0.0425069
0.045493
0.0479112
0.0498855
0.0515003
0.0528177
0.0538855
0.0547421
0.0554189
0.0559425
0.056336
0.0566198
0.0568121
0.0569303
0.0569903
0.0570074
0.0569959
0.0569682
0.0569347
0.0119453
0.0267272
0.034007
0.0389825
0.042777
0.0457969
0.048247
0.0502516
0.0518957
0.0532415
0.0543374
0.0552219
0.0559271
0.0564799
0.0569035
0.0572184
0.057443
0.057594
0.0576867
0.0577351
0.0577517
0.0577471
0.0577299
0.0119902
0.0268328
0.0341513
0.0391593
0.0429835
0.0460316
0.0485085
0.050539
0.0522082
0.0535786
0.0546988
0.0556077
0.0563375
0.0569154
0.0573647
0.057706
0.0579574
0.0581353
0.0582543
0.0583273
0.0583658
0.058379
0.058374
0.0120225
0.0269097
0.0342579
0.0392915
0.0431399
0.046211
0.0487103
0.0507626
0.0524531
0.0538446
0.0549857
0.0559154
0.0566663
0.0572655
0.0577365
0.0580999
0.0583735
0.0585733
0.0587134
0.0588061
0.0588616
0.0588886
0.0588929
0.0120453
0.026965
0.0343359
0.0393895
0.0432571
0.046347
0.0488647
0.0509351
0.0526434
0.0540526
0.0552112
0.0561587
0.0569273
0.0575445
0.0580337
0.0584153
0.0587072
0.0589248
0.0590819
0.0591901
0.0592592
0.0592968
0.0593083
0.0120613
0.0270045
0.0343923
0.0394614
0.0433441
0.046449
0.0489816
0.0510668
0.0527898
0.0542137
0.055387
0.0563492
0.0571327
0.0577648
0.0582691
0.0586657
0.0589724
0.0592045
0.0593752
0.0594957
0.0595754
0.0596213
0.0596384
0.0120724
0.0270322
0.0344326
0.0395136
0.043408
0.0465247
0.0490692
0.0511664
0.0529014
0.0543372
0.0555227
0.056497
0.0572927
0.0579371
0.0584536
0.0588625
0.0591813
0.0594249
0.0596064
0.0597367
0.0598247
0.0598771
0.0598986
0.01208
0.0270516
0.0344612
0.0395511
0.0434545
0.0465805
0.0491343
0.051241
0.0529856
0.0544311
0.0556263
0.0566105
0.0574161
0.0580705
0.058597
0.0590158
0.0593441
0.059597
0.0597871
0.0599251
0.0600195
0.0600769
0.0601018
0.0120852
0.027065
0.0344813
0.0395778
0.0434881
0.0466211
0.0491822
0.0512963
0.0530485
0.0545018
0.0557048
0.0566968
0.0575104
0.0581727
0.0587072
0.0591338
0.0594698
0.05973
0.0599268
0.0600708
0.0601703
0.0602316
0.060259
0.0120887
0.0270742
0.0344953
0.0395966
0.043512
0.0466503
0.0492171
0.0513369
0.0530951
0.0545544
0.0557635
0.0567618
0.0575817
0.0582503
0.0587911
0.0592239
0.0595659
0.0598317
0.0600338
0.0601825
0.0602859
0.0603502
0.0603796
0.012091
0.0270804
0.0345049
0.0396097
0.0435289
0.0466712
0.0492422
0.0513665
0.0531292
0.0545932
0.0558071
0.0568102
0.057635
0.0583086
0.0588543
0.0592919
0.0596385
0.0599088
0.0601149
0.0602672
0.0603735
0.0604402
0.060471
0.0120925
0.0270846
0.0345115
0.0396188
0.0435407
0.046686
0.0492602
0.0513877
0.0531539
0.0546215
0.0558391
0.056846
0.0576745
0.0583519
0.0589014
0.0593427
0.0596929
0.0599666
0.0601758
0.0603308
0.0604394
0.0605078
0.0605398
0.0120935
0.0270874
0.034516
0.0396251
0.043549
0.0466964
0.0492729
0.0514029
0.0531717
0.0546419
0.0558623
0.0568721
0.0577035
0.0583838
0.0589362
0.0593803
0.0597332
0.0600094
0.060221
0.060378
0.0604884
0.060558
0.0605909
0.0120942
0.0270892
0.0345189
0.0396293
0.0435546
0.0467037
0.0492818
0.0514137
0.0531844
0.0546566
0.0558791
0.056891
0.0577246
0.058407
0.0589615
0.0594078
0.0597628
0.0600409
0.0602542
0.0604128
0.0605244
0.060595
0.0606285
0.0120946
0.0270904
0.0345209
0.0396322
0.0435585
0.0467086
0.049288
0.0514212
0.0531933
0.054667
0.055891
0.0569045
0.0577397
0.0584238
0.0589799
0.0594278
0.0597843
0.0600638
0.0602784
0.0604381
0.0605507
0.060622
0.0606559
0.0120949
0.0270912
0.0345223
0.0396341
0.0435611
0.046712
0.0492923
0.0514264
0.0531995
0.0546743
0.0558995
0.0569141
0.0577505
0.0584358
0.0589931
0.0594421
0.0597997
0.0600803
0.0602959
0.0604564
0.0605696
0.0606415
0.0606757
0.0120951
0.0270917
0.0345231
0.0396354
0.0435629
0.0467143
0.0492952
0.05143
0.0532038
0.0546794
0.0559054
0.0569208
0.0577581
0.0584443
0.0590024
0.0594523
0.0598107
0.060092
0.0603083
0.0604694
0.0605832
0.0606554
0.0606899
0.0120952
0.0270921
0.0345237
0.0396362
0.043564
0.0467159
0.0492972
0.0514324
0.0532068
0.0546829
0.0559095
0.0569255
0.0577634
0.0584502
0.059009
0.0594594
0.0598185
0.0601003
0.0603171
0.0604787
0.0605928
0.0606652
0.0606999
0.0120953
0.0270923
0.0345241
0.0396368
0.0435648
0.0467169
0.0492985
0.0514341
0.0532088
0.0546853
0.0559123
0.0569288
0.0577671
0.0584543
0.0590136
0.0594645
0.0598239
0.0601061
0.0603233
0.0604851
0.0605995
0.0606722
0.0607069
0.0120953
0.0270924
0.0345243
0.0396371
0.0435653
0.0467176
0.0492994
0.0514352
0.0532102
0.054687
0.0559142
0.056931
0.0577696
0.0584572
0.0590167
0.0594679
0.0598276
0.0601102
0.0603275
0.0604896
0.0606042
0.060677
0.0607118
0.0120953
0.0270925
0.0345244
0.0396374
0.0435656
0.0467181
0.0493
0.051436
0.0532111
0.0546881
0.0559155
0.0569325
0.0577713
0.0584591
0.0590189
0.0594703
0.0598302
0.0601129
0.0603305
0.0604927
0.0606074
0.0606803
0.0607152
0.0120953
0.0270925
0.0345245
0.0396375
0.0435659
0.0467184
0.0493004
0.0514365
0.0532117
0.0546888
0.0559164
0.0569335
0.0577725
0.0584604
0.0590203
0.0594719
0.059832
0.0601148
0.0603325
0.0604948
0.0606096
0.0606825
0.0607175
0.0120954
0.0270926
0.0345246
0.0396376
0.043566
0.0467186
0.0493006
0.0514368
0.0532121
0.0546893
0.055917
0.0569342
0.0577733
0.0584613
0.0590213
0.059473
0.0598331
0.0601161
0.0603338
0.0604962
0.060611
0.060684
0.060719
0.0120954
0.0270926
0.0345246
0.0396377
0.0435661
0.0467187
0.0493008
0.051437
0.0532124
0.0546896
0.0559173
0.0569346
0.0577738
0.0584619
0.059022
0.0594737
0.0598339
0.060117
0.0603348
0.0604972
0.060612
0.0606851
0.0607201
0.0120954
0.0270926
0.0345247
0.0396377
0.0435661
0.0467188
0.0493009
0.0514371
0.0532126
0.0546898
0.0559176
0.0569349
0.0577741
0.0584623
0.0590224
0.0594742
0.0598345
0.0601175
0.0603354
0.0604978
0.0606127
0.0606857
0.0607208
0.0120954
0.0270926
0.0345247
0.0396377
0.0435662
0.0467188
0.049301
0.0514372
0.0532127
0.05469
0.0559178
0.0569351
0.0577744
0.0584625
0.0590227
0.0594745
0.0598348
0.0601179
0.0603358
0.0604982
0.0606131
0.0606862
0.0607212
0.0120954
0.0270926
0.0345247
0.0396378
0.0435662
0.0467188
0.049301
0.0514373
0.0532127
0.0546901
0.0559179
0.0569353
0.0577745
0.0584627
0.0590229
0.0594747
0.059835
0.0601181
0.060336
0.0604985
0.0606134
0.0606865
0.0607215
0.0120954
0.0270926
0.0345247
0.0396378
0.0435662
0.0467189
0.049301
0.0514373
0.0532128
0.0546901
0.0559179
0.0569353
0.0577746
0.0584628
0.059023
0.0594749
0.0598352
0.0601183
0.0603362
0.0604987
0.0606136
0.0606867
0.0607217
0.0120954
0.0270926
0.0345247
0.0396378
0.0435662
0.0467189
0.049301
0.0514373
0.0532128
0.0546902
0.055918
0.0569354
0.0577747
0.0584629
0.0590231
0.0594749
0.0598353
0.0601184
0.0603363
0.0604988
0.0606137
0.0606868
0.0607218
0.0120954
0.0270926
0.0345247
0.0396378
0.0435662
0.0467189
0.049301
0.0514374
0.0532128
0.0546902
0.055918
0.0569354
0.0577747
0.0584629
0.0590231
0.059475
0.0598353
0.0601184
0.0603363
0.0604989
0.0606138
0.0606868
0.0607219
0.0120954
0.0270926
0.0345247
0.0396378
0.0435662
0.0467189
0.0493011
0.0514374
0.0532129
0.0546902
0.055918
0.0569354
0.0577747
0.058463
0.0590232
0.059475
0.0598354
0.0601185
0.0603364
0.0604989
0.0606138
0.0606869
0.0607219
0.0120954
0.0270926
0.0345247
0.0396378
0.0435662
0.0467189
0.0493011
0.0514374
0.0532129
0.0546902
0.055918
0.0569355
0.0577747
0.058463
0.0590232
0.059475
0.0598354
0.0601185
0.0603364
0.0604989
0.0606138
0.0606869
0.0607219
0.0120954
0.0270926
0.0345247
0.0396378
0.0435662
0.0467189
0.0493011
0.0514374
0.0532129
0.0546902
0.055918
0.0569355
0.0577747
0.058463
0.0590232
0.059475
0.0598354
0.0601185
0.0603364
0.0604989
0.0606138
0.0606869
0.0607219
0.0198459
0.0168115
0.0167845
0.0197085
0.0355293
0.0348711
0.0348566
0.035486
0.0419943
0.0418006
0.0417895
0.0419618
0.0460738
0.0459885
0.0459775
0.046041
0.0490588
0.0490089
0.0489975
0.0490245
0.0513749
0.0513407
0.0513287
0.0513389
0.0532214
0.0531957
0.0531832
0.0531837
0.054713
0.0546925
0.0546795
0.0546736
0.0559248
0.0559078
0.0558942
0.0558839
0.0569107
0.056896
0.0568819
0.0568684
0.0577117
0.0576986
0.0576841
0.057668
0.05836
0.0583481
0.0583332
0.0583151
0.0588822
0.0588711
0.0588559
0.0588362
0.0593
0.0592896
0.059274
0.0592531
0.0596319
0.059622
0.0596062
0.0595843
0.0598935
0.0598839
0.0598678
0.0598452
0.0600978
0.0600884
0.0600722
0.0600489
0.0602558
0.0602467
0.0602303
0.0602065
0.060377
0.060368
0.0603515
0.0603272
0.0604689
0.06046
0.0604434
0.0604189
0.060538
0.0605292
0.0605125
0.0604877
0.0605894
0.0605806
0.0605638
0.0605389
0.0606272
0.0606184
0.0606016
0.0605765
0.0606548
0.060646
0.0606292
0.060604
0.0606747
0.060666
0.0606491
0.0606238
0.0606889
0.0606802
0.0606633
0.060638
0.060699
0.0606903
0.0606733
0.060648
0.060706
0.0606973
0.0606804
0.060655
0.0607109
0.0607022
0.0606853
0.0606599
0.0607143
0.0607056
0.0606887
0.0606633
0.0607166
0.0607079
0.060691
0.0606656
0.0607182
0.0607095
0.0606925
0.0606671
0.0607192
0.0607105
0.0606936
0.0606682
0.0607199
0.0607112
0.0606943
0.0606688
0.0607204
0.0607117
0.0606947
0.0606693
0.0607207
0.060712
0.060695
0.0606696
0.0607208
0.0607122
0.0606952
0.0606698
0.0607209
0.0607123
0.0606953
0.0606699
0.060721
0.0607123
0.0606953
0.0606699
0.060721
0.0607123
0.0606954
0.0606699
0.060721
0.0607123
0.0606953
0.0606699
0.060721
0.0607123
0.0606953
0.0606699
0.02935
0.0339051
0.0366188
0.0384412
0.0396941
0.0405228
0.0410072
0.0411934
0.0411051
0.0407472
0.0401083
0.0391604
0.037857
0.0361279
0.0338682
0.0309107
0.0269407
0.0211219
0.00935571
0.0371986
0.0392492
0.040879
0.0421357
0.043061
0.0436866
0.0440365
0.0441252
0.0439576
0.0435271
0.0428148
0.0417875
0.0403948
0.0385626
0.0361802
0.033069
0.0288862
0.0227097
0.0100937
0.0424721
0.0434607
0.0444328
0.0452678
0.0459139
0.0463492
0.0465639
0.0465508
0.0463002
0.0457957
0.0450115
0.0439097
0.0424358
0.040512
0.0380223
0.0347781
0.0304141
0.0239438
0.0106635
0.0462543
0.0467777
0.0473632
0.0479019
0.0483269
0.0485974
0.0486871
0.0485756
0.0482431
0.0476657
0.046812
0.0456397
0.044091
0.0420842
0.0394987
0.0361378
0.0316189
0.0249072
0.0111055
0.0491288
0.0494215
0.0497732
0.0501061
0.0503609
0.0504943
0.0504735
0.0502712
0.0498611
0.0492139
0.048294
0.0470555
0.0454374
0.0433549
0.0406835
0.0372201
0.0325691
0.0256595
0.0114482
0.0513905
0.0515539
0.0517565
0.0519444
0.0520692
0.0520905
0.0519745
0.0516908
0.0512091
0.0504968
0.0495148
0.0482146
0.0465325
0.0443812
0.0416329
0.0380797
0.0333164
0.026245
0.0117128
0.0532049
0.0532878
0.0533904
0.0534735
0.0534983
0.0534287
0.0532319
0.0528764
0.0523301
0.051558
0.0505188
0.0491617
0.0474211
0.0452077
0.042391
0.0387596
0.0339015
0.0266982
0.0119157
0.054675
0.054704
0.0547362
0.0547418
0.0546888
0.0545455
0.0542806
0.0538628
0.053259
0.0524329
0.0513416
0.0499329
0.0481395
0.0458704
0.0429935
0.0392946
0.0343566
0.0270466
0.0120699
0.0558714
0.0558622
0.055843
0.0557899
0.055676
0.0554727
0.0551507
0.0546792
0.054025
0.0531508
0.0520128
0.0505577
0.0487171
0.0463987
0.0434693
0.0397126
0.0347081
0.0273122
0.0121859
0.0568457
0.0568084
0.0567506
0.0566523
0.05649
0.0562379
0.0558683
0.0553509
0.0546528
0.0537363
0.0525571
0.0510609
0.0491786
0.0468172
0.0438424
0.0400367
0.0349773
0.0275127
0.0122723
0.0576377
0.0575791
0.0574917
0.0573581
0.0571572
0.0568653
0.0564559
0.0558997
0.0551639
0.0542106
0.0529953
0.0514632
0.0495447
0.0471462
0.0441327
0.040286
0.0351816
0.0276626
0.0123359
0.0582789
0.058204
0.0580936
0.0579321
0.0577003
0.0573759
0.0569336
0.0563447
0.0555767
0.054592
0.0533455
0.0517825
0.0498328
0.0474027
0.0443566
0.040476
0.0353351
0.0277735
0.0123823
0.0587954
0.0587077
0.0585793
0.0583957
0.0581391
0.0577883
0.0573188
0.0567026
0.0559075
0.054896
0.053623
0.0520337
0.0500577
0.0476009
0.0445278
0.0406194
0.0354494
0.0278548
0.0124156
0.0592086
0.059111
0.0589684
0.0587673
0.0584907
0.0581184
0.0576266
0.0569878
0.0561702
0.0551362
0.053841
0.0522296
0.0502315
0.0477527
0.0446575
0.0407267
0.0355336
0.0279137
0.0124394
0.0595369
0.0594314
0.0592775
0.0590625
0.05877
0.0583804
0.0578705
0.0572131
0.0563768
0.0553242
0.0540106
0.0523809
0.0503647
0.0478679
0.0447547
0.0408061
0.0355951
0.0279559
0.0124561
0.0597955
0.0596838
0.0595211
0.0592951
0.0589899
0.0585863
0.0580617
0.0573893
0.0565378
0.05547
0.0541413
0.0524967
0.0504657
0.0479544
0.044827
0.0408644
0.0356395
0.0279859
0.0124678
0.0599974
0.0598809
0.0597112
0.0594765
0.0591612
0.0587466
0.0582103
0.0575258
0.056662
0.0555819
0.0542411
0.0525844
0.0505417
0.0480188
0.0448802
0.0409067
0.0356713
0.028007
0.0124758
0.0601536
0.0600333
0.0598582
0.0596167
0.0592935
0.0588702
0.0583246
0.0576304
0.0567568
0.055667
0.0543164
0.0526502
0.0505981
0.0480662
0.0449189
0.0409371
0.0356938
0.0280218
0.0124814
0.0602733
0.06015
0.0599708
0.0597239
0.0593946
0.0589644
0.0584115
0.0577098
0.0568285
0.055731
0.0543727
0.052699
0.0506397
0.0481008
0.0449468
0.0409588
0.0357097
0.0280319
0.0124851
0.0603641
0.0602385
0.0600561
0.0598052
0.059471
0.0590356
0.058477
0.0577694
0.0568822
0.0557786
0.0544144
0.0527349
0.0506701
0.0481258
0.0449668
0.0409741
0.0357207
0.0280389
0.0124876
0.0604322
0.060305
0.0601201
0.059866
0.0595283
0.0590888
0.0585259
0.0578138
0.0569219
0.0558137
0.054445
0.0527611
0.050692
0.0481437
0.044981
0.0409848
0.0357283
0.0280436
0.0124893
0.0604829
0.0603544
0.0601676
0.0599112
0.0595707
0.0591281
0.0585619
0.0578464
0.056951
0.0558393
0.0544672
0.0527799
0.0507077
0.0481564
0.0449909
0.0409923
0.0357335
0.0280468
0.0124904
0.0605202
0.0603907
0.0602025
0.0599444
0.0596018
0.0591569
0.0585882
0.0578701
0.0569721
0.0558578
0.0544831
0.0527934
0.0507188
0.0481654
0.0449978
0.0409974
0.035737
0.0280489
0.0124911
0.0605474
0.0604172
0.060228
0.0599685
0.0596244
0.0591778
0.0586073
0.0578872
0.0569873
0.0558711
0.0544945
0.0528029
0.0507266
0.0481716
0.0450026
0.0410009
0.0357394
0.0280503
0.0124916
0.060567
0.0604363
0.0602463
0.0599859
0.0596406
0.0591928
0.0586209
0.0578995
0.0569981
0.0558804
0.0545025
0.0528096
0.050732
0.0481759
0.0450059
0.0410032
0.035741
0.0280512
0.0124919
0.060581
0.0604499
0.0602594
0.0599983
0.0596522
0.0592034
0.0586306
0.0579081
0.0570057
0.055887
0.0545081
0.0528142
0.0507358
0.0481788
0.0450081
0.0410048
0.035742
0.0280518
0.0124921
0.060591
0.0604595
0.0602686
0.060007
0.0596604
0.0592109
0.0586374
0.0579142
0.057011
0.0558916
0.0545119
0.0528174
0.0507383
0.0481808
0.0450096
0.0410059
0.0357427
0.0280522
0.0124922
0.0605979
0.0604663
0.0602751
0.0600131
0.0596661
0.0592162
0.0586421
0.0579184
0.0570147
0.0558948
0.0545146
0.0528196
0.0507401
0.0481821
0.0450106
0.0410066
0.0357432
0.0280525
0.0124923
0.0606027
0.060471
0.0602796
0.0600174
0.05967
0.0592198
0.0586454
0.0579213
0.0570172
0.0558969
0.0545164
0.0528211
0.0507412
0.048183
0.0450112
0.041007
0.0357435
0.0280526
0.0124924
0.0606061
0.0604742
0.0602826
0.0600203
0.0596727
0.0592223
0.0586476
0.0579233
0.057019
0.0558984
0.0545176
0.0528221
0.050742
0.0481836
0.0450117
0.0410073
0.0357437
0.0280527
0.0124924
0.0606083
0.0604764
0.0602848
0.0600222
0.0596745
0.059224
0.0586491
0.0579246
0.0570201
0.0558994
0.0545184
0.0528228
0.0507425
0.048184
0.045012
0.0410075
0.0357438
0.0280528
0.0124924
0.0606099
0.0604779
0.0602862
0.0600236
0.0596758
0.0592251
0.0586502
0.0579255
0.0570209
0.0559
0.054519
0.0528232
0.0507429
0.0481843
0.0450121
0.0410077
0.0357439
0.0280528
0.0124924
0.0606109
0.0604789
0.0602871
0.0600245
0.0596766
0.0592259
0.0586508
0.0579261
0.0570214
0.0559005
0.0545193
0.0528235
0.0507431
0.0481845
0.0450123
0.0410077
0.0357439
0.0280529
0.0124924
0.0606116
0.0604795
0.0602878
0.0600251
0.0596772
0.0592264
0.0586513
0.0579265
0.0570218
0.0559008
0.0545196
0.0528237
0.0507432
0.0481846
0.0450123
0.0410078
0.0357439
0.0280529
0.0124924
0.060612
0.06048
0.0602882
0.0600255
0.0596775
0.0592267
0.0586516
0.0579268
0.057022
0.0559009
0.0545197
0.0528238
0.0507433
0.0481846
0.0450124
0.0410078
0.035744
0.0280529
0.0124924
0.0606123
0.0604802
0.0602884
0.0600257
0.0596778
0.0592269
0.0586518
0.0579269
0.0570221
0.0559011
0.0545198
0.0528239
0.0507434
0.0481847
0.0450124
0.0410078
0.035744
0.0280529
0.0124924
0.0606125
0.0604804
0.0602886
0.0600259
0.0596779
0.059227
0.0586519
0.057927
0.0570222
0.0559011
0.0545199
0.0528239
0.0507434
0.0481847
0.0450124
0.0410079
0.035744
0.0280529
0.0124924
0.0606126
0.0604805
0.0602887
0.060026
0.059678
0.0592271
0.058652
0.0579271
0.0570223
0.0559012
0.0545199
0.0528239
0.0507435
0.0481847
0.0450124
0.0410079
0.035744
0.0280529
0.0124924
0.0606126
0.0604806
0.0602888
0.060026
0.0596781
0.0592272
0.058652
0.0579272
0.0570223
0.0559012
0.0545199
0.052824
0.0507435
0.0481847
0.0450125
0.0410079
0.035744
0.0280529
0.0124924
0.0606127
0.0604806
0.0602888
0.0600261
0.0596781
0.0592272
0.058652
0.0579272
0.0570223
0.0559012
0.05452
0.052824
0.0507435
0.0481847
0.0450125
0.0410079
0.035744
0.0280529
0.0124924
0.0606127
0.0604806
0.0602888
0.0600261
0.0596781
0.0592272
0.0586521
0.0579272
0.0570223
0.0559013
0.05452
0.052824
0.0507435
0.0481847
0.0450125
0.0410079
0.035744
0.0280529
0.0124924
0.0606126
0.0604806
0.0602888
0.0600261
0.0596781
0.0592272
0.0586521
0.0579272
0.0570223
0.0559013
0.05452
0.052824
0.0507435
0.0481847
0.0450125
0.0410079
0.035744
0.0280529
0.0124924
)
;

boundaryField
{
    leftWall
    {
        type            kqRWallFunction;
        value           nonuniform List<scalar> 
50
(
0.0017841
0.00346243
0.00471467
0.00572184
0.00654465
0.00723379
0.00782228
0.00833171
0.0090285
0.00974993
0.0103075
0.0107404
0.0110763
0.0113356
0.0115344
0.0116854
0.011799
0.0118833
0.0119453
0.0119902
0.0120225
0.0120453
0.0120613
0.0120724
0.01208
0.0120852
0.0120887
0.012091
0.0120925
0.0120935
0.0120942
0.0120946
0.0120949
0.0120951
0.0120952
0.0120953
0.0120953
0.0120953
0.0120953
0.0120954
0.0120954
0.0120954
0.0120954
0.0120954
0.0120954
0.0120954
0.0120954
0.0120954
0.0120954
0.0120954
)
;
    }
    rightWall
    {
        type            kqRWallFunction;
        value           nonuniform List<scalar> 
50
(
0.00193956
0.00368239
0.00494628
0.0059713
0.00681232
0.00751783
0.00812055
0.00864229
0.00935571
0.0100937
0.0106635
0.0111055
0.0114482
0.0117128
0.0119157
0.0120699
0.0121859
0.0122723
0.0123359
0.0123823
0.0124156
0.0124394
0.0124561
0.0124678
0.0124758
0.0124814
0.0124851
0.0124876
0.0124893
0.0124904
0.0124911
0.0124916
0.0124919
0.0124921
0.0124922
0.0124923
0.0124924
0.0124924
0.0124924
0.0124924
0.0124924
0.0124924
0.0124924
0.0124924
0.0124924
0.0124924
0.0124924
0.0124924
0.0124924
0.0124924
)
;
    }
    lowerWall
    {
        type            kqRWallFunction;
        value           nonuniform List<scalar> 
62
(
0.0017841
0.00375915
0.00522398
0.00626354
0.00704427
0.00764559
0.00811303
0.00847593
0.00875449
0.00896307
0.00911187
0.00920759
0.00925371
0.0092503
0.00919336
0.00907347
0.00887336
0.00856322
0.00809225
0.00737332
0.00625681
0.00448108
0.00150857
0.00150857
0.00389692
0.00556379
0.00700354
0.0083628
0.00987223
0.0121435
0.0173092
0.0198459
0.0168115
0.0167845
0.0197085
0.00160071
0.00410771
0.00580329
0.00728085
0.00869117
0.0102881
0.0127199
0.0180078
0.00160071
0.00474993
0.0065513
0.00763141
0.00829119
0.0086948
0.00893157
0.00904967
0.00907422
0.00901655
0.00887879
0.00865593
0.00833621
0.00790021
0.00731774
0.00654061
0.00548419
0.00397154
0.00193956
)
;
    }
    atmosphere
    {
        type            inletOutlet;
        inletValue      uniform 0.1;
        value           nonuniform List<scalar> 
46
(
0.0120954
0.0270926
0.0345247
0.0396378
0.0435662
0.0467189
0.0493011
0.0514374
0.0532129
0.0546902
0.055918
0.0569355
0.0577747
0.058463
0.0590232
0.059475
0.0598354
0.0601185
0.0603364
0.0604989
0.0606138
0.0606869
0.0607219
0.060721
0.0607123
0.0606953
0.0606699
0.0606126
0.0604806
0.0602888
0.0600261
0.0596781
0.0592272
0.0586521
0.0579272
0.0570223
0.0559013
0.05452
0.052824
0.0507435
0.0481847
0.0450125
0.0410079
0.035744
0.0280529
0.0124924
)
;
    }
    defaultFaces
    {
        type            empty;
    }
}


// ************************************************************************* //
