/*--------------------------------*- C++ -*----------------------------------*\
| =========                 |                                                 |
| \\      /  F ield         | OpenFOAM: The Open Source CFD Toolbox           |
|  \\    /   O peration     | Version:  2406                                  |
|   \\  /    A nd           | Website:  www.openfoam.com                      |
|    \\/     M anipulation  |                                                 |
\*---------------------------------------------------------------------------*/
FoamFile
{
    version     2.0;
    format      ascii;
    arch        "LSB;label=32;scalar=64";
    class       volScalarField;
    location    "0.65";
    object      k;
}
// * * * * * * * * * * * * * * * * * * * * * * * * * * * * * * * * * * * * * //

dimensions      [0 2 -2 0 0 0 0];

internalField   nonuniform List<scalar> 
2268
(
0.1
0.1
0.1
0.1
0.1
0.1
0.1
0.1
0.1
0.1
0.1
0.1
0.1
0.00739562
0.00341753
0.00452279
0.00520753
0.00556414
0.00564113
0.0054181
0.00480909
0.00362356
0.00137284
0.1
0.1
0.1
0.1
0.1
0.1
0.1
0.1
0.1
0.1
0.1
0.1
0.1
0.00680618
0.00788549
0.0102771
0.011731
0.0125039
0.0126734
0.0121926
0.0108837
0.00836788
0.00335631
0.1
0.1
0.1
0.1
0.1
0.1
0.1
0.1
0.1
0.1
0.1
0.1
0.1
0.00792456
0.0104836
0.0133942
0.0151832
0.0161542
0.0163856
0.0158171
0.0142314
0.0111404
0.00462698
0.1
0.1
0.1
0.1
0.1
0.1
0.1
0.1
0.1
0.1
0.1
0.1
0.1
0.00912715
0.0124835
0.0157272
0.0177334
0.0188444
0.019141
0.0185569
0.0168479
0.0134094
0.00569413
0.1
0.1
0.1
0.1
0.1
0.1
0.1
0.1
0.1
0.1
0.1
0.1
0.1
0.0102493
0.0141552
0.0176708
0.0198528
0.0210859
0.0214614
0.0209149
0.0191845
0.0155395
0.00670863
0.1
0.1
0.1
0.1
0.1
0.1
0.1
0.1
0.1
0.1
0.1
0.1
0.1
0.0112999
0.0156128
0.0193657
0.0217043
0.0230545
0.0235252
0.0230639
0.021409
0.0177254
0.00787751
0.1
0.1
0.1
0.1
0.1
0.1
0.1
0.1
0.1
0.1
0.1
0.1
0.1
0.0122986
0.01692
0.0208808
0.0233627
0.0248288
0.0254105
0.0250776
0.0235988
0.0201295
0.00971627
0.1
0.1
0.1
0.1
0.1
0.1
0.1
0.1
0.1
0.1
0.1
0.1
0.1
0.0132611
0.0181137
0.0222529
0.0248655
0.0264465
0.0271516
0.0269815
0.0257697
0.0228618
0.0139217
0.00151089
0.00418971
0.00566989
0.00655701
0.00710519
0.0074468
0.00765253
0.00776052
0.00779085
0.00775255
0.00764684
0.00746871
0.00720753
0.00684665
0.00636127
0.00571244
0.00483067
0.00356441
0.0018639
0.00376715
0.00968815
0.0128351
0.0147431
0.0159283
0.016668
0.017113
0.0173456
0.0174096
0.0173245
0.0170927
0.0167033
0.0161325
0.0153431
0.0142793
0.0128549
0.0109211
0.0081705
0.00344181
0.0052258
0.0129269
0.0168008
0.0191363
0.0205912
0.0215017
0.0220493
0.0223336
0.0224073
0.0222939
0.0219959
0.0214993
0.0207742
0.0197736
0.0184274
0.016628
0.0141934
0.0107441
0.00453969
0.00648896
0.0155946
0.0199007
0.0224541
0.0240461
0.0250456
0.0256471
0.0259564
0.0260297
0.0258914
0.0255437
0.0249701
0.0241365
0.0229896
0.0214497
0.0193952
0.0166222
0.0126909
0.00542053
0.00771384
0.0180964
0.022654
0.0252967
0.0269462
0.0279868
0.0286134
0.0289316
0.0289971
0.028834
0.0284429
0.0278053
0.0268837
0.02562
0.0239272
0.0216731
0.0186344
0.0143119
0.00615003
0.00913467
0.0206229
0.0252369
0.0278607
0.0295072
0.0305533
0.031184
0.031499
0.0315509
0.0313618
0.0309306
0.0302364
0.0292391
0.0278764
0.0260559
0.0236361
0.0203758
0.0157164
0.00677878
0.0113204
0.0233115
0.0277192
0.0302248
0.03182
0.0328441
0.0334623
0.0337645
0.033798
0.0335817
0.0331122
0.0323666
0.0313023
0.0298536
0.0279234
0.0253626
0.0219132
0.0169597
0.00733953
0.0159881
0.0262288
0.0301099
0.0324174
0.0339256
0.0349071
0.0355001
0.0357818
0.035793
0.0355484
0.0350422
0.0342491
0.0331244
0.0315998
0.0295743
0.0268922
0.0232808
0.0180715
0.0078523
0.1
0.1
0.1
0.1
0.1
0.1
0.1
0.1
0.1
0.1
0.1
0.1
0.1
0.014722
0.0198281
0.0242005
0.0269978
0.0287546
0.029664
0.0297802
0.0290581
0.0272996
0.0238371
0.1
0.1
0.1
0.1
0.1
0.1
0.1
0.1
0.1
0.1
0.1
0.1
0.1
0.0164638
0.0217167
0.0263361
0.0293571
0.0313468
0.0325416
0.0330548
0.0329496
0.0322759
0.0311163
0.1
0.1
0.1
0.1
0.1
0.1
0.1
0.1
0.1
0.1
0.1
0.1
0.1
0.0180018
0.0232636
0.0280841
0.0313094
0.0335185
0.0349772
0.0358352
0.0362063
0.0362149
0.0360489
0.1
0.1
0.1
0.1
0.1
0.1
0.1
0.1
0.1
0.1
0.1
0.1
0.1
0.0193751
0.0245527
0.0295325
0.0329379
0.0353424
0.0370282
0.0381626
0.0388756
0.039299
0.0395947
0.1
0.1
0.1
0.1
0.1
0.1
0.1
0.1
0.1
0.1
0.1
0.1
0.1
0.0206059
0.0256379
0.0307386
0.0342964
0.0368674
0.03874
0.0400879
0.0410426
0.041726
0.0422684
0.1
0.1
0.1
0.1
0.1
0.1
0.1
0.1
0.1
0.1
0.1
0.1
0.1
0.0217072
0.0265544
0.0317428
0.0354254
0.0381337
0.040156
0.0416665
0.0427933
0.0436477
0.0443381
0.1
0.1
0.1
0.1
0.1
0.1
0.1
0.1
0.1
0.1
0.1
0.1
0.1
0.022688
0.0273277
0.0325762
0.0363585
0.0391777
0.0413181
0.0429521
0.0442034
0.0451749
0.0459619
0.1
0.1
0.1
0.1
0.1
0.1
0.1
0.1
0.1
0.1
0.1
0.1
0.1
0.0235565
0.0279786
0.0332653
0.0371258
0.0400331
0.0422659
0.0439937
0.0453362
0.0463906
0.047244
0.1
0.1
0.1
0.1
0.1
0.1
0.1
0.1
0.1
0.1
0.1
0.1
0.1
0.0243215
0.0285264
0.0338347
0.0377556
0.040732
0.0430364
0.0448351
0.046245
0.0473589
0.0482592
0.1
0.1
0.1
0.1
0.1
0.1
0.1
0.1
0.1
0.1
0.1
0.1
0.1
0.0249931
0.0289897
0.034308
0.0382751
0.0413051
0.0436642
0.0455159
0.0469748
0.0481313
0.0490646
0.1
0.1
0.1
0.1
0.1
0.1
0.1
0.1
0.1
0.1
0.1
0.1
0.1
0.0255827
0.0293881
0.0347096
0.0387118
0.0417823
0.0441818
0.0460717
0.047565
0.0487505
0.0497057
0.1
0.1
0.1
0.1
0.1
0.1
0.1
0.1
0.1
0.1
0.1
0.1
0.1
0.0261039
0.0297436
0.0350655
0.0390941
0.0421935
0.0446204
0.0465351
0.0480498
0.0492528
0.0502204
0.1
0.1
0.1
0.1
0.1
0.1
0.1
0.1
0.1
0.1
0.1
0.1
0.1
0.0265742
0.0300823
0.0354056
0.0394525
0.0425694
0.0450105
0.0469366
0.0484603
0.0496695
0.0506404
0.1
0.1
0.1
0.1
0.1
0.1
0.1
0.1
0.1
0.1
0.1
0.1
0.1
0.0270185
0.0304394
0.0357665
0.0398223
0.0429423
0.0453822
0.0473048
0.0488239
0.0500279
0.0509927
0.1
0.1
0.1
0.1
0.1
0.1
0.1
0.1
0.1
0.1
0.1
0.1
0.1
0.0274769
0.0308666
0.036197
0.040245
0.0433471
0.0457654
0.0476663
0.0491655
0.0503515
0.0513
0.1
0.1
0.1
0.1
0.1
0.1
0.1
0.1
0.1
0.1
0.1
0.1
0.1
0.0280237
0.0314479
0.0367642
0.0407701
0.0438206
0.0461887
0.0480451
0.0495061
0.05066
0.0515812
0.1
0.1
0.1
0.1
0.1
0.1
0.1
0.1
0.1
0.1
0.1
0.1
0.1
0.0288174
0.0323277
0.0375598
0.041453
0.044398
0.046677
0.0484607
0.0498629
0.050969
0.0518511
0.1
0.1
0.1
0.1
0.1
0.1
0.1
0.1
0.1
0.1
0.1
0.1
0.1
0.0302369
0.0337431
0.0386891
0.0423414
0.0451046
0.0472467
0.0489259
0.050247
0.0512893
0.0521205
0.1
0.1
0.1
0.1
0.1
0.1
0.1
0.1
0.1
0.1
0.1
0.1
0.1
0.0330024
0.0359299
0.0401987
0.0434429
0.0459422
0.0479002
0.0494445
0.0506636
0.0516271
0.0523964
0.1
0.1
0.1
0.1
0.1
0.1
0.1
0.1
0.1
0.1
0.1
0.1
0.0357672
0.0341234
0.0383711
0.0419206
0.0446934
0.0468829
0.0486246
0.0500109
0.0511114
0.0519838
0.0526818
0.0186903
0.0205935
0.0225416
0.023981
0.0250302
0.0258148
0.026435
0.0269848
0.0275793
0.02841
0.0298848
0.0327494
0.0340175
0.03757
0.0409319
0.0437348
0.0460246
0.0478877
0.0493974
0.0506128
0.0515841
0.052357
0.0529774
0.00693958
0.0149633
0.0192625
0.0222387
0.0244457
0.0261553
0.0275436
0.0287532
0.0299323
0.0312727
0.0330464
0.0355093
0.0381513
0.0408444
0.0433315
0.0455082
0.0473612
0.0489119
0.0501918
0.0512341
0.0520727
0.0527426
0.053282
0.00717644
0.0168049
0.0218106
0.0253284
0.0279938
0.030095
0.0318169
0.0333052
0.0346954
0.0361288
0.0377467
0.0396199
0.0415987
0.0435816
0.045458
0.0471559
0.0486439
0.0499164
0.0509825
0.0518591
0.0525681
0.0531358
0.0535943
0.00815534
0.0187379
0.0241624
0.0279854
0.030918
0.0332551
0.0351783
0.0368249
0.0383126
0.0397464
0.0412115
0.0427432
0.0443009
0.0458381
0.0473005
0.0486432
0.0498385
0.0508746
0.0517511
0.0524759
0.0530634
0.0535338
0.0539141
0.0089225
0.0203063
0.0260656
0.0301112
0.0332306
0.0357306
0.0377898
0.0395372
0.0410758
0.0424905
0.0438445
0.0451697
0.0464642
0.0477117
0.0488877
0.0499677
0.0509334
0.0517745
0.0524883
0.0530788
0.0535562
0.0539368
0.0542441
0.0095009
0.0215339
0.0275769
0.0318067
0.0350735
0.0376977
0.0398577
0.0416761
0.0432471
0.0446443
0.0459225
0.0471156
0.0482372
0.0492883
0.0502617
0.0511467
0.0519339
0.0526171
0.0531946
0.0536695
0.05405
0.0543501
0.054591
0.00994048
0.0224899
0.0287744
0.0331647
0.0365576
0.0392855
0.0415276
0.043403
0.0450003
0.0463877
0.0476165
0.0487225
0.0497273
0.0506418
0.0514694
0.052209
0.0528582
0.0534153
0.0538807
0.0542581
0.0545552
0.0547847
0.0549667
0.0102785
0.0232405
0.0297328
0.0342674
0.0377749
0.0405963
0.0429117
0.0448387
0.0464625
0.0478487
0.0490474
0.0500962
0.051021
0.0518391
0.0525608
0.0531916
0.0537346
0.0541919
0.0545664
0.0548631
0.0550897
0.0552588
0.0553897
0.0105445
0.0238454
0.0305223
0.0351923
0.0388094
0.0417206
0.0441068
0.0460844
0.0477375
0.0491305
0.0503134
0.0513253
0.0521954
0.0529451
0.0535895
0.0541388
0.0546002
0.0549792
0.055281
0.0555117
0.05568
0.0557984
0.0558859
0.010765
0.0243612
0.0312127
0.0360169
0.0397449
0.0427472
0.0452052
0.0472352
0.0489208
0.0503267
0.0515039
0.0524929
0.0533256
0.0540263
0.0546138
0.0551019
0.0555008
0.0558187
0.0560628
0.0562406
0.0563614
0.0564381
0.0564897
0.0109666
0.0248475
0.0318791
0.0368259
0.0406723
0.0437706
0.0463034
0.0483875
0.0501078
0.0515302
0.0527074
0.053682
0.0544882
0.0551531
0.055698
0.0561395
0.0564903
0.0567607
0.0569596
0.0570955
0.0571786
0.057222
0.0572446
0.0111794
0.0253735
0.03261
0.037719
0.0416967
0.0448982
0.0475081
0.049646
0.0513996
0.0528379
0.0540162
0.0549796
0.0557649
0.0564014
0.0569128
0.0573178
0.0576311
0.0578645
0.0580281
0.0581316
0.0581855
0.0582031
0.0582032
0.0114414
0.0260268
0.0335169
0.0388192
0.0429452
0.0462558
0.0489412
0.051127
0.0529067
0.054354
0.0555284
0.0564781
0.0572424
0.057853
0.0583355
0.05871
0.0589928
0.0591969
0.0593333
0.0594122
0.0594444
0.0594433
0.0594272
0.011804
0.0269247
0.0347455
0.0402826
0.0445733
0.047992
0.0507417
0.0529595
0.0547484
0.0561896
0.0573477
0.0582747
0.0590126
0.059595
0.0600487
0.0603953
0.0606517
0.0608318
0.0609469
0.0610077
0.0610249
0.0610116
0.0609853
0.012339
0.0282276
0.0364872
0.0423055
0.0467676
0.0502777
0.0530635
0.0552819
0.0570504
0.0584598
0.0595809
0.0604697
0.0611702
0.0617174
0.062139
0.0624569
0.0626884
0.0628476
0.0629459
0.0629939
0.0630019
0.0629823
0.0629513
0.013147
0.0301542
0.0389922
0.0451297
0.0497446
0.0533001
0.0560679
0.0582351
0.0599381
0.0612788
0.0623341
0.0631629
0.0638104
0.0643119
0.064695
0.064981
0.0651871
0.0653268
0.0654113
0.0654505
0.0654541
0.0654335
0.065403
0.014369
0.0330082
0.0425859
0.0490445
0.0537416
0.0572505
0.0599118
0.0619523
0.0635294
0.0647547
0.065709
0.066452
0.067028
0.0674711
0.0678074
0.0680568
0.0682354
0.0683557
0.068428
0.0684613
0.0684644
0.068447
0.0684211
0.0162149
0.0372384
0.0477
0.0543846
0.0590003
0.0623051
0.0647317
0.0665482
0.0679277
0.0689856
0.0698017
0.0704321
0.070918
0.0712898
0.0715707
0.0717784
0.0719268
0.0720268
0.0720875
0.0721166
0.0721216
0.0721103
0.0720921
0.0190561
0.0435854
0.0549133
0.0615068
0.0657292
0.0685954
0.0706257
0.0721097
0.073219
0.0740606
0.0747048
0.0751998
0.0755798
0.0758697
0.0760882
0.0762498
0.0763654
0.076444
0.0764928
0.0765181
0.0765258
0.0765219
0.0765127
0.0238151
0.0533755
0.0649222
0.0706845
0.0740247
0.0761659
0.0776359
0.0786923
0.0794745
0.0800648
0.0805151
0.0808604
0.0811251
0.0813269
0.0814792
0.081592
0.0816732
0.0817293
0.0817655
0.0817863
0.081796
0.0817985
0.0817978
0.0348351
0.068868
0.0781576
0.0818272
0.0837443
0.0849318
0.0857424
0.0863269
0.0867619
0.0870915
0.0873439
0.0875379
0.087687
0.087801
0.0878872
0.0879515
0.0879984
0.0880314
0.0880539
0.0880684
0.0880777
0.0880838
0.0880886
0.0853767
0.0929986
0.0937182
0.0941157
0.0944401
0.0946964
0.094895
0.0950485
0.0951673
0.0952597
0.0953315
0.0953873
0.0954306
0.0954639
0.0954894
0.0955086
0.0955229
0.0955333
0.0955411
0.0955469
0.0955517
0.0955563
0.0955611
0.0163167
0.0140329
0.0142358
0.0170829
0.030113
0.0298392
0.0301588
0.0310778
0.0360462
0.0361774
0.0364964
0.0369989
0.0398755
0.0401152
0.0404317
0.0408222
0.0426713
0.0429552
0.0432733
0.0436242
0.0448086
0.0451172
0.045439
0.0457731
0.0464756
0.0468007
0.0471267
0.0474532
0.0477874
0.0481245
0.0484546
0.0487776
0.0488238
0.0491696
0.0495032
0.0498246
0.049644
0.0499959
0.0503321
0.0506526
0.0502947
0.0506504
0.050988
0.0513074
0.050814
0.0511712
0.0515086
0.0518263
0.0512337
0.0515898
0.0519251
0.0522398
0.0515805
0.0519326
0.0522636
0.0525736
0.0518766
0.0522217
0.0525457
0.052849
0.0521404
0.052475
0.0527892
0.0530833
0.0523865
0.052707
0.0530083
0.0532906
0.0526255
0.0529283
0.0532136
0.0534816
0.0528649
0.0531466
0.053413
0.0536641
0.0531088
0.0533666
0.0536116
0.0538438
0.0533592
0.0535909
0.0538127
0.0540244
0.0536165
0.053821
0.0540186
0.0542089
0.0538812
0.0540583
0.0542314
0.0544001
0.0541548
0.0543051
0.0544543
0.0546019
0.0544412
0.0545662
0.0546927
0.0548203
0.054748
0.0548497
0.0549553
0.0550643
0.0550879
0.0551686
0.0552554
0.0553476
0.0554795
0.0555419
0.055612
0.0556895
0.0559488
0.0559954
0.0560512
0.0561158
0.05653
0.0565633
0.056607
0.0566608
0.0572665
0.0572889
0.0573225
0.0573672
0.0582108
0.0582245
0.0582499
0.0582868
0.0594242
0.0594311
0.0594499
0.0594803
0.060975
0.0609771
0.0609906
0.0610154
0.0629372
0.0629361
0.0629455
0.0629652
0.065388
0.0653852
0.0653914
0.0654063
0.0684078
0.0684045
0.0684082
0.0684187
0.0720823
0.0720795
0.0720814
0.0720878
0.0765075
0.0765058
0.0765064
0.0765091
0.0817971
0.0817968
0.0817966
0.0817965
0.0880912
0.088092
0.0880916
0.0880899
0.0955641
0.0955652
0.0955649
0.0955633
0.0261416
0.030775
0.0336372
0.0355798
0.0369188
0.0378116
0.0383508
0.0385916
0.038563
0.0382731
0.0377113
0.0368493
0.035639
0.0340087
0.0318526
0.029007
0.0251787
0.0196256
0.0085924
0.0332056
0.0357121
0.0376742
0.0391644
0.040253
0.040997
0.0414393
0.0416078
0.0415158
0.0411614
0.0405279
0.0395823
0.0382731
0.0365248
0.0342271
0.0312078
0.0271518
0.0212373
0.00935234
0.0380429
0.0396165
0.0410149
0.042155
0.04302
0.0436162
0.043955
0.0440444
0.0438844
0.0434645
0.0427621
0.0417398
0.040343
0.0384929
0.0360753
0.0329109
0.0286659
0.0224577
0.00991383
0.0415676
0.0427036
0.0437556
0.0446407
0.0453219
0.045785
0.0460242
0.0460344
0.0458061
0.0453217
0.0445535
0.0434604
0.0419847
0.0400449
0.0375231
0.0342339
0.0298291
0.023381
0.0103308
0.0442517
0.0451588
0.0459934
0.0466961
0.0472321
0.0475813
0.04773
0.0476654
0.0473714
0.0468252
0.0459951
0.0448368
0.0432898
0.0412702
0.0386571
0.0352601
0.0307202
0.0240777
0.0106406
0.0463442
0.0471206
0.0478142
0.0483864
0.0488097
0.0490644
0.0491337
0.049001
0.0486459
0.0480421
0.0471546
0.0459367
0.0443254
0.0422349
0.0395419
0.0360522
0.0313992
0.0246008
0.0108699
0.0479943
0.048691
0.0492905
0.0497685
0.0501049
0.0502822
0.0502837
0.0500906
0.0496802
0.0490238
0.048084
0.0468121
0.0451435
0.0429905
0.0402281
0.0366594
0.0319128
0.0249904
0.0110382
0.0493016
0.0499474
0.0504824
0.0508915
0.0511608
0.0512757
0.05122
0.0509744
0.050515
0.0498113
0.0488247
0.0475047
0.0457855
0.0435781
0.0407561
0.037121
0.0322978
0.0252779
0.0111605
0.0503382
0.0509501
0.0514396
0.0517979
0.0520153
0.0520798
0.0519765
0.051686
0.0511838
0.0504387
0.0494107
0.0480486
0.0462853
0.0440311
0.0411586
0.0374685
0.0325834
0.0254878
0.0112483
0.0511594
0.0517476
0.0522041
0.0525241
0.0527011
0.0527253
0.0525826
0.0522542
0.0517153
0.0509343
0.0498705
0.0484718
0.0466708
0.044377
0.0414625
0.0377273
0.032793
0.0256392
0.0113105
0.0518088
0.0523794
0.0528111
0.0531018
0.0532471
0.0532388
0.0530638
0.0527037
0.0521338
0.0513221
0.0502277
0.0487981
0.0469652
0.0446384
0.0416894
0.037918
0.0329451
0.0257472
0.0113541
0.0523222
0.0528784
0.0532906
0.0535582
0.0536783
0.0536437
0.0534422
0.0530559
0.05246
0.0516227
0.0505026
0.049047
0.0471878
0.0448339
0.0418571
0.0380569
0.0330542
0.0258233
0.0113842
0.0527293
0.0532723
0.053668
0.0539168
0.0540163
0.0539604
0.0537372
0.0533292
0.0527119
0.0518532
0.0507119
0.049235
0.0473542
0.0449785
0.0419795
0.038157
0.0331315
0.0258762
0.0114048
0.0530547
0.0535843
0.053965
0.0541975
0.0542799
0.0542063
0.0539653
0.0535395
0.0529046
0.0520284
0.0508697
0.0493755
0.0474774
0.0450843
0.0420681
0.0382283
0.0331857
0.0259127
0.0114187
0.053319
0.0538337
0.0541998
0.0544174
0.054485
0.0543965
0.0541407
0.0537002
0.0530508
0.0521605
0.0509877
0.0494796
0.0475677
0.045161
0.0421314
0.0382786
0.0332233
0.0259375
0.011428
0.0535391
0.0540367
0.0543874
0.0545909
0.0546449
0.0545434
0.0542751
0.0538225
0.0531613
0.0522594
0.0510753
0.0495562
0.0476335
0.0452163
0.0421764
0.0383138
0.0332492
0.0259543
0.0114341
0.0537285
0.0542063
0.0545404
0.0547296
0.0547709
0.0546578
0.0543786
0.0539158
0.0532448
0.0523335
0.0511404
0.0496125
0.0476813
0.0452559
0.0422083
0.0383384
0.033267
0.0259656
0.0114382
0.0538981
0.0543528
0.0546689
0.0548434
0.0548723
0.0547483
0.0544595
0.0539878
0.0533086
0.0523896
0.0511892
0.0496542
0.0477164
0.0452846
0.0422311
0.0383557
0.0332792
0.0259733
0.0114409
0.0540557
0.0544845
0.0547809
0.05494
0.0549565
0.0548222
0.0545246
0.0540451
0.0533588
0.0524333
0.0512268
0.0496861
0.0477428
0.045306
0.0422478
0.0383681
0.0332879
0.0259785
0.0114427
0.0542076
0.0546078
0.054883
0.055026
0.05503
0.0548858
0.0545798
0.0540932
0.0534006
0.0524694
0.0512576
0.049712
0.0477641
0.0453231
0.0422609
0.0383778
0.0332945
0.0259825
0.011444
0.0543582
0.054728
0.0549808
0.0551072
0.0550986
0.0549444
0.0546304
0.0541371
0.0534387
0.0525022
0.0512856
0.0497355
0.0477834
0.0453384
0.0422727
0.0383863
0.0333002
0.0259858
0.0114451
0.0545114
0.0548495
0.0550794
0.0551888
0.0551675
0.0550036
0.0546817
0.0541819
0.0534779
0.0525363
0.0513149
0.0497602
0.0478038
0.0453547
0.0422851
0.0383953
0.0333063
0.0259893
0.0114462
0.054671
0.0549772
0.055184
0.0552766
0.0552426
0.055069
0.0547394
0.0542331
0.0535233
0.0525764
0.0513498
0.0497902
0.0478288
0.0453749
0.0423008
0.0384068
0.033314
0.0259938
0.0114476
0.0548419
0.0551168
0.0553011
0.0553771
0.0553307
0.0551475
0.0548102
0.0542972
0.0535813
0.0526285
0.0513961
0.0498305
0.0478631
0.0454031
0.0423229
0.0384232
0.0333252
0.0260003
0.0114498
0.0550308
0.0552759
0.0554386
0.0554988
0.0554405
0.0552479
0.0549027
0.0543828
0.0536602
0.0527007
0.0514613
0.0498882
0.0479129
0.0454446
0.0423561
0.0384483
0.0333426
0.0260107
0.0114532
0.0552475
0.055465
0.0556076
0.0556528
0.0555832
0.0553814
0.0550284
0.054501
0.0537711
0.0528037
0.0515556
0.049973
0.0479872
0.0455076
0.0424072
0.0384874
0.0333702
0.0260274
0.0114588
0.0555062
0.0556986
0.0558228
0.0558543
0.055774
0.0555634
0.0552024
0.0546672
0.053929
0.0529523
0.0516936
0.0500988
0.0480989
0.0456038
0.0424866
0.0385493
0.0334147
0.0260548
0.011468
0.0558263
0.0559964
0.0561041
0.0561233
0.0560331
0.055814
0.0554451
0.0549018
0.0541544
0.053167
0.0518954
0.0502851
0.048267
0.0457507
0.0426098
0.038647
0.0334861
0.0260996
0.0114834
0.0562337
0.0563844
0.0564777
0.0564858
0.0563867
0.0561598
0.0557833
0.0552316
0.0544746
0.0534752
0.0521887
0.0505596
0.0485183
0.045974
0.0428005
0.0388011
0.0336008
0.0261729
0.0115091
0.0567625
0.0568962
0.0569769
0.0569754
0.0568684
0.0566346
0.0562512
0.0556919
0.0549254
0.0539138
0.052611
0.0509603
0.0488908
0.0463108
0.0430934
0.0390426
0.0337845
0.0262928
0.0115517
0.057455
0.0575741
0.0576437
0.0576337
0.0575201
0.0572807
0.056892
0.0563268
0.0555525
0.05453
0.0532115
0.0515382
0.0494369
0.0468136
0.0435398
0.0394187
0.0340771
0.0264882
0.0116226
0.0583628
0.0584687
0.0585283
0.0585109
0.0583922
0.0581494
0.0577581
0.0571903
0.0564123
0.0553832
0.0540528
0.0523594
0.0502262
0.0475547
0.0442123
0.0399989
0.0345399
0.026805
0.0117398
0.0595457
0.0596391
0.0596893
0.0596656
0.0595436
0.0593001
0.0589105
0.0583459
0.0575714
0.0565442
0.0552112
0.0535066
0.051348
0.0486297
0.0452108
0.0408829
0.0352643
0.0273148
0.0119331
0.061071
0.0611518
0.0611925
0.0611633
0.0610402
0.0608001
0.0604183
0.0598655
0.0591057
0.0580943
0.0567751
0.0550775
0.052911
0.0501591
0.0466664
0.0422072
0.0363821
0.0281256
0.0122491
0.0630111
0.0630786
0.0631093
0.0630754
0.0629537
0.0627221
0.0623561
0.0618264
0.0610969
0.0601215
0.0588414
0.0571805
0.055039
0.0522855
0.0487415
0.0441503
0.0380743
0.0293936
0.0127583
0.0654424
0.0654954
0.0655155
0.0654777
0.0653606
0.0651434
0.0648027
0.0643102
0.0636302
0.0627169
0.0615098
0.0599283
0.0578635
0.0551655
0.0516244
0.0469328
0.0405799
0.031336
0.0135629
0.0684448
0.0684822
0.0684914
0.0684509
0.068342
0.0681457
0.0678406
0.0674004
0.0667917
0.0659704
0.0648769
0.0634294
0.0615122
0.0589579
0.0555186
0.0508137
0.0442053
0.0342518
0.0148047
0.0721039
0.0721254
0.0721241
0.0720828
0.0719858
0.071817
0.0715576
0.0711847
0.0706686
0.0699697
0.0690331
0.0677807
0.0660972
0.0638055
0.0606235
0.0560821
0.0493453
0.0385731
0.0166892
0.0765161
0.076523
0.0765129
0.0764735
0.0763924
0.0762567
0.0760515
0.0757582
0.0753526
0.0748023
0.0740615
0.073063
0.0717033
0.0698141
0.0671037
0.0630313
0.0565101
0.044996
0.0195721
0.081796
0.0817915
0.0817761
0.0817419
0.0816805
0.0815825
0.081437
0.0812309
0.080947
0.080562
0.0800432
0.0793415
0.0783795
0.0770249
0.0750296
0.0718723
0.0663009
0.0547685
0.0243671
0.0880849
0.0880745
0.0880591
0.0880346
0.087996
0.0879379
0.0878539
0.0877364
0.0875755
0.0873586
0.0870673
0.0866752
0.0861406
0.0853925
0.0842927
0.0825184
0.0791052
0.0701627
0.0355445
0.0955587
0.0955509
0.0955427
0.0955327
0.0955195
0.0955011
0.0954756
0.0954407
0.0953937
0.095331
0.095248
0.0951385
0.094994
0.0948039
0.0945556
0.0942411
0.0938657
0.0932745
0.0865147
)
;

boundaryField
{
    leftWall
    {
        type            kqRWallFunction;
        value           nonuniform List<scalar> 
50
(
0.1
0.1
0.1
0.1
0.1
0.1
0.1
0.1
0.1
0.1
0.1
0.1
0.1
0.1
0.1
0.1
0.1
0.1
0.1
0.1
0.1
0.1
0.1
0.1
0.1
0.1
0.1
0.1
0.0186903
0.00693958
0.00717644
0.00815534
0.0089225
0.0095009
0.00994048
0.0102785
0.0105445
0.010765
0.0109666
0.0111794
0.0114414
0.011804
0.012339
0.013147
0.014369
0.0162149
0.0190561
0.0238151
0.0348351
0.0853767
)
;
    }
    rightWall
    {
        type            kqRWallFunction;
        value           nonuniform List<scalar> 
50
(
0.0018639
0.00344181
0.00453969
0.00542053
0.00615003
0.00677878
0.00733953
0.0078523
0.0085924
0.00935234
0.00991383
0.0103308
0.0106406
0.0108699
0.0110382
0.0111605
0.0112483
0.0113105
0.0113541
0.0113842
0.0114048
0.0114187
0.011428
0.0114341
0.0114382
0.0114409
0.0114427
0.011444
0.0114451
0.0114462
0.0114476
0.0114498
0.0114532
0.0114588
0.011468
0.0114834
0.0115091
0.0115517
0.0116226
0.0117398
0.0119331
0.0122491
0.0127583
0.0135629
0.0148047
0.0166892
0.0195721
0.0243671
0.0355445
0.0865147
)
;
    }
    lowerWall
    {
        type            kqRWallFunction;
        value           nonuniform List<scalar> 
62
(
0.1
0.1
0.1
0.1
0.1
0.1
0.1
0.1
0.1
0.1
0.1
0.1
0.1
0.00739562
0.00341753
0.00452279
0.00520753
0.00556414
0.00564113
0.0054181
0.00480909
0.00362356
0.00137284
0.00137284
0.00335631
0.00462698
0.00569413
0.00670863
0.00787751
0.00971627
0.0139217
0.0163167
0.0140329
0.0142358
0.0170829
0.00151089
0.00376715
0.0052258
0.00648896
0.00771384
0.00913467
0.0113204
0.0159881
0.00151089
0.00418971
0.00566989
0.00655701
0.00710519
0.0074468
0.00765253
0.00776052
0.00779085
0.00775255
0.00764684
0.00746871
0.00720753
0.00684665
0.00636127
0.00571244
0.00483067
0.00356441
0.0018639
)
;
    }
    atmosphere
    {
        type            inletOutlet;
        inletValue      uniform 0.1;
        value           uniform 0.1;
    }
    defaultFaces
    {
        type            empty;
    }
}


// ************************************************************************* //
