/*--------------------------------*- C++ -*----------------------------------*\
| =========                 |                                                 |
| \\      /  F ield         | OpenFOAM: The Open Source CFD Toolbox           |
|  \\    /   O peration     | Version:  2406                                  |
|   \\  /    A nd           | Website:  www.openfoam.com                      |
|    \\/     M anipulation  |                                                 |
\*---------------------------------------------------------------------------*/
FoamFile
{
    version     2.0;
    format      ascii;
    arch        "LSB;label=32;scalar=64";
    class       volScalarField;
    location    "0.65";
    object      nut;
}
// * * * * * * * * * * * * * * * * * * * * * * * * * * * * * * * * * * * * * //

dimensions      [0 2 -1 0 0 0 0];

internalField   nonuniform List<scalar> 
2268
(
3.5943e-05
3.88466e-05
4.59287e-05
5.04073e-05
5.35658e-05
5.59088e-05
5.76902e-05
5.90568e-05
6.01012e-05
6.08849e-05
6.1449e-05
6.18197e-05
6.20106e-05
6.20233e-05
6.18446e-05
6.14423e-05
6.07542e-05
5.96683e-05
5.79813e-05
5.53117e-05
5.08984e-05
4.29816e-05
2.46649e-05
7.8387e-05
0.000297861
0.000395315
0.000454955
0.000496699
0.00052774
0.000551497
0.000569882
0.000584071
0.000594833
0.00060268
0.000607938
0.000610781
0.000611233
0.000609139
0.000604094
0.000595298
0.000581249
0.000559121
0.000523395
0.000462622
0.000349258
8.42495e-05
9.18131e-05
0.000497753
0.000716034
0.000853728
0.00095142
0.00102484
0.00108158
0.00112589
0.00116038
0.00118676
0.00120615
0.00121929
0.00122656
0.00122801
0.00122327
0.00121135
0.0011903
0.00115641
0.00110259
0.0010151
0.000866568
0.000599083
0.00010109
0.000101393
0.000636854
0.000965007
0.00117942
0.00133397
0.00145126
0.00154261
0.00161439
0.00167058
0.00171378
0.00174571
0.00176751
0.00177975
0.0017825
0.00177513
0.00175605
0.00172203
0.00166694
0.00157916
0.00143649
0.00119666
0.000781085
0.000113734
0.000108632
0.000740532
0.00116387
0.00144934
0.00165825
0.00181828
0.00194373
0.00204283
0.00212077
0.00218094
0.00222564
0.00225635
0.00227385
0.0022782
0.00226854
0.00224265
0.00219611
0.00212049
0.00199992
0.00180439
0.00147817
0.0009275
0.00012455
0.000114374
0.000822043
0.00132742
0.00167752
0.00193737
0.00213814
0.00229649
0.00242219
0.00252145
0.0025984
0.00265583
0.00269555
0.00271853
0.00272485
0.00271342
0.00268151
0.00262362
0.0025294
0.00237942
0.00213703
0.00173396
0.00105946
0.000135593
0.000119086
0.000888576
0.00146504
0.00187358
0.0021807
0.00241993
0.0026097
0.00276103
0.002881
0.00297438
0.00304439
0.00309318
0.00312188
0.00313058
0.00311808
0.00308121
0.00301369
0.00290373
0.00272947
0.00244958
0.00198479
0.00119727
0.000150704
0.000123045
0.000944325
0.0015829
0.00204422
0.002395
0.00267032
0.00288991
0.0030658
0.00320578
0.00331517
0.00339759
0.00345547
0.00349012
0.00350171
0.00348893
0.0034484
0.00337333
0.0032512
0.0030591
0.00275434
0.00225309
0.00138031
0.000180324
2.53865e-05
4.42569e-05
5.20765e-05
5.62522e-05
5.86558e-05
6.00743e-05
6.08824e-05
6.12668e-05
6.13194e-05
6.10796e-05
6.05521e-05
5.97146e-05
5.85165e-05
5.68706e-05
5.46309e-05
5.15396e-05
4.70806e-05
3.9942e-05
3.86894e-05
9.59835e-05
0.000367695
0.000478764
0.000535758
0.000567597
0.000585967
0.000596205
0.000600862
0.000601149
0.000597564
0.000590168
0.000578678
0.000562462
0.000540419
0.000510674
0.000469812
0.000410615
0.000313118
8.97187e-05
0.000114584
0.000640719
0.000905561
0.00104516
0.00112293
0.00116734
0.00119177
0.00120259
0.00120281
0.00119366
0.00117531
0.00114718
0.00110786
0.00105494
0.000984255
0.000888229
0.00075097
0.000530756
0.000104389
0.000128733
0.000843152
0.00125881
0.00148518
0.00161203
0.00168427
0.00172372
0.0017409
0.00174076
0.00172537
0.00169508
0.00164901
0.00158505
0.00149953
0.00138618
0.00123367
0.00101885
0.000684913
0.000115003
0.000140978
0.00100703
0.00156173
0.00187056
0.0020445
0.00214354
0.00219738
0.00222043
0.00221953
0.00219755
0.00215502
0.00209082
0.0020022
0.00188437
0.00172922
0.00152229
0.00123488
0.000800902
0.000123075
0.00015371
0.00115446
0.00183623
0.00221818
0.00243385
0.00255684
0.00262348
0.00265145
0.0026492
0.00262032
0.00256548
0.00248332
0.00237053
0.00222135
0.0020261
0.00176782
0.00141375
0.000892541
0.000129493
0.000171295
0.00130666
0.00210182
0.00254195
0.00279104
0.0029337
0.00301082
0.00304241
0.00303809
0.00300196
0.00293479
0.00283498
0.00269873
0.00251943
0.00228611
0.00197984
0.00156501
0.000967533
0.000134764
0.000204273
0.00150241
0.0023783
0.00285287
0.00312444
0.00328144
0.00336621
0.00339984
0.00339259
0.00334882
0.00326932
0.00315225
0.00299333
0.00278525
0.00251599
0.00216511
0.00169501
0.00103046
0.000139193
0.000128297
0.0010187
0.00174321
0.00227999
0.00269477
0.00302395
0.00328866
0.0035021
0.00367297
0.00380731
0.00390931
0.00398179
0.00402636
0.00404335
0.00403146
0.00398717
0.00390348
0.00376781
0.00355817
0.00323696
0.00274314
0.00200018
0.00102734
0.000133599
0.00109429
0.00190957
0.00252861
0.00301509
0.00340601
0.00372348
0.00398162
0.00418996
0.0043552
0.00448212
0.00457406
0.00463306
0.00465986
0.00465365
0.00461156
0.00452783
0.00439254
0.0041899
0.00389671
0.00348392
0.00292991
0.00226082
0.000137624
0.00115265
0.00204026
0.00272662
0.0032732
0.00371703
0.00408065
0.00437865
0.00462106
0.00481504
0.00496582
0.0050772
0.00515174
0.00519077
0.00519426
0.00516056
0.00508601
0.0049645
0.00478733
0.00454425
0.00422778
0.00384477
0.00343979
0.000140725
0.00119849
0.00214439
0.00288608
0.00348298
0.00397197
0.00437569
0.00470898
0.00498214
0.00520264
0.00537609
0.00550671
0.00559758
0.0056507
0.00566702
0.00564633
0.00558721
0.00548717
0.0053433
0.00515394
0.00492273
0.00466583
0.00442276
0.000143131
0.0012348
0.00222786
0.00301503
0.00365399
0.00418134
0.00461971
0.00498403
0.00528475
0.00552954
0.00572431
0.00587367
0.00598119
0.00604959
0.00608076
0.00607588
0.0060355
0.00595997
0.00585022
0.00570931
0.00554508
0.00537382
0.00522378
0.000145001
0.00126361
0.0022948
0.00311926
0.00379323
0.00435298
0.00482111
0.00521253
0.00553774
0.00580459
0.00601918
0.00618647
0.00631051
0.00639463
0.0064416
0.00645373
0.00643311
0.00638202
0.00630364
0.00620307
0.00608888
0.00597455
0.00587887
0.00014645
0.00128642
0.0023483
0.00320318
0.00390611
0.00449309
0.00498659
0.00540148
0.00574829
0.00603494
0.00626773
0.00645189
0.00659185
0.0066915
0.00675429
0.00678341
0.00678204
0.00675362
0.00670245
0.00663424
0.00655685
0.00648069
0.00641816
0.000147566
0.00130438
0.00239079
0.00327031
0.00399702
0.00460669
0.00512166
0.00555672
0.00592239
0.00622664
0.00647591
0.00667563
0.00683056
0.00694502
0.00702297
0.00706825
0.0070847
0.00707643
0.00704814
0.00700546
0.00695518
0.00690519
0.00686387
0.000148421
0.0013184
0.00242424
0.00332356
0.00406965
0.00469807
0.00523104
0.00568327
0.00606524
0.00638494
0.00664891
0.00686274
0.00703143
0.0071596
0.00725161
0.0073117
0.0073441
0.00735325
0.00734389
0.00732126
0.00729114
0.00725959
0.00723245
0.000149068
0.00132925
0.00245034
0.00336539
0.00412712
0.00477089
0.00531882
0.00578551
0.00618142
0.00651452
0.00679142
0.0070178
0.00719887
0.00733944
0.00744412
0.00751742
0.00756377
0.00758769
0.00759383
0.00758697
0.00757202
0.00755378
0.00753651
0.000149554
0.00133755
0.00247046
0.00339789
0.00417212
0.00482834
0.00538856
0.00586732
0.006275
0.00661957
0.00690766
0.00714505
0.00733702
0.00748855
0.00760442
0.00768924
0.00774756
0.00778386
0.00780259
0.00780816
0.00780478
0.00779636
0.00778615
0.000149914
0.00134382
0.0024858
0.00342288
0.00420697
0.00487318
0.0054434
0.0059321
0.0063496
0.00670387
0.00700151
0.00724837
0.00744979
0.00761084
0.00773636
0.00783106
0.00789948
0.00794604
0.00797497
0.00799034
0.00799586
0.00799481
0.00798979
0.000150178
0.00134851
0.00249736
0.00344185
0.00423366
0.0049078
0.00548606
0.00598286
0.00640845
0.00677079
0.00707647
0.00733135
0.00754082
0.00770997
0.00784371
0.00794673
0.00802357
0.00807854
0.00811569
0.00813879
0.0081512
0.00815575
0.00815459
0.00015037
0.00135197
0.00250596
0.00345609
0.00425387
0.00493422
0.00551887
0.00602218
0.00645437
0.00682334
0.00713569
0.00739726
0.00761346
0.00778941
0.00793001
0.00803996
0.00812372
0.00818551
0.00822925
0.00825845
0.00827621
0.00828503
0.00828679
0.000150508
0.00135449
0.00251228
0.00346666
0.004269
0.00495415
0.00554383
0.00605232
0.0064898
0.00686415
0.00718194
0.00744902
0.00767077
0.00785233
0.00799858
0.00811419
0.00820358
0.00827088
0.00831985
0.00835385
0.00837575
0.00838786
0.00839183
0.000150605
0.0013563
0.00251688
0.00347441
0.00428019
0.00496904
0.00556261
0.00607516
0.00651684
0.00689549
0.00721767
0.0074892
0.00771547
0.00790158
0.00805242
0.00817261
0.00826652
0.0083382
0.0083913
0.00842905
0.00845416
0.00846879
0.00847444
0.000150673
0.0013576
0.00252018
0.00348003
0.00428838
0.00498002
0.00557658
0.00609228
0.00653725
0.00691929
0.00724496
0.00752004
0.00774992
0.00793969
0.0080942
0.00821804
0.00831554
0.00839067
0.00844701
0.00848767
0.00851526
0.00853182
0.00853874
0.000150721
0.0013585
0.00252252
0.00348406
0.00429431
0.00498804
0.00558686
0.00610498
0.00655249
0.00693718
0.00726557
0.00754345
0.00777619
0.00796884
0.00812625
0.00825297
0.00835328
0.0084311
0.00848995
0.00853286
0.00856235
0.00858037
0.00858826
0.000150753
0.00135914
0.00252417
0.00348692
0.00429856
0.00499384
0.00559436
0.0061143
0.00656374
0.00695046
0.00728097
0.00756102
0.00779598
0.00799089
0.00815055
0.00827951
0.008382
0.0084619
0.00852268
0.0085673
0.00859823
0.00861737
0.00862598
0.000150775
0.00135957
0.00252532
0.00348893
0.00430157
0.00499798
0.00559976
0.00612107
0.00657197
0.00696023
0.00729235
0.00757407
0.00781074
0.00800738
0.00816877
0.00829945
0.00840361
0.0084851
0.00854734
0.00859327
0.00862529
0.00864525
0.00865442
0.00015079
0.00135987
0.00252611
0.00349033
0.00430369
0.00500092
0.00560362
0.00612593
0.00657792
0.00696735
0.00730068
0.00758366
0.00782162
0.00801957
0.00818229
0.00831427
0.0084197
0.00850239
0.00856573
0.00861263
0.00864547
0.00866605
0.00867562
0.0001508
0.00136007
0.00252665
0.0034913
0.00430516
0.00500298
0.00560634
0.0061294
0.00658219
0.00697247
0.0073067
0.00759063
0.00782956
0.0080285
0.00819221
0.00832517
0.00843154
0.00851513
0.00857929
0.00862692
0.00866035
0.0086814
0.00869126
0.000150807
0.00136021
0.00252702
0.00349196
0.00430617
0.00500442
0.00560825
0.00613184
0.00658521
0.00697612
0.00731102
0.00759565
0.0078353
0.00803497
0.00819941
0.00833309
0.00844017
0.00852442
0.00858919
0.00863735
0.00867123
0.00869261
0.00870268
0.000150811
0.0013603
0.00252726
0.00349241
0.00430687
0.0050054
0.00560958
0.00613355
0.00658734
0.00697871
0.00731409
0.00759923
0.0078394
0.00803961
0.00820459
0.0083388
0.00844639
0.00853113
0.00859634
0.00864488
0.00867908
0.00870071
0.00871094
0.000150814
0.00136036
0.00252743
0.00349271
0.00430734
0.00500608
0.00561049
0.00613473
0.00658883
0.00698052
0.00731625
0.00760175
0.00784231
0.00804291
0.00820828
0.00834287
0.00845084
0.00853592
0.00860145
0.00865028
0.00868471
0.00870651
0.00871685
0.000150816
0.0013604
0.00252753
0.00349291
0.00430766
0.00500654
0.00561112
0.00613554
0.00658985
0.00698177
0.00731776
0.00760352
0.00784435
0.00804523
0.00821088
0.00834575
0.00845398
0.00853931
0.00860507
0.0086541
0.0086887
0.00871062
0.00872104
0.000150817
0.00136042
0.0025276
0.00349304
0.00430787
0.00500685
0.00561154
0.0061361
0.00659055
0.00698264
0.0073188
0.00760474
0.00784577
0.00804684
0.00821269
0.00834776
0.00845618
0.00854169
0.00860762
0.00865678
0.0086915
0.0087135
0.00872398
0.000150818
0.00136044
0.00252765
0.00349313
0.00430801
0.00500705
0.00561182
0.00613647
0.00659103
0.00698323
0.00731951
0.00760559
0.00784675
0.00804796
0.00821395
0.00834916
0.00845771
0.00854335
0.00860938
0.00865865
0.00869344
0.00871551
0.00872603
0.000150818
0.00136045
0.00252768
0.00349318
0.0043081
0.00500719
0.00561201
0.00613672
0.00659135
0.00698362
0.00731999
0.00760616
0.00784741
0.00804873
0.00821481
0.00835012
0.00845876
0.00854449
0.0086106
0.00865994
0.00869479
0.0087169
0.00872744
0.000150819
0.00136045
0.0025277
0.00349322
0.00430816
0.00500728
0.00561214
0.00613689
0.00659156
0.00698389
0.00732032
0.00760655
0.00784787
0.00804925
0.0082154
0.00835077
0.00845948
0.00854526
0.00861144
0.00866082
0.00869571
0.00871785
0.00872841
0.000150819
0.00136046
0.00252771
0.00349324
0.0043082
0.00500733
0.00561222
0.006137
0.00659171
0.00698407
0.00732054
0.00760681
0.00784817
0.0080496
0.0082158
0.00835122
0.00845997
0.00854579
0.008612
0.00866141
0.00869633
0.00871849
0.00872906
0.000150819
0.00136046
0.00252772
0.00349326
0.00430822
0.00500737
0.00561227
0.00613707
0.0065918
0.00698419
0.00732068
0.00760698
0.00784838
0.00804983
0.00821606
0.00835151
0.00846029
0.00854615
0.00861238
0.00866182
0.00869675
0.00871893
0.0087295
0.000150819
0.00136046
0.00252772
0.00349327
0.00430824
0.0050074
0.00561231
0.00613712
0.00659186
0.00698427
0.00732078
0.0076071
0.00784851
0.00804999
0.00821624
0.00835171
0.00846051
0.00854638
0.00861263
0.00866208
0.00869703
0.00871922
0.0087298
0.000150819
0.00136046
0.00252773
0.00349327
0.00430825
0.00500741
0.00561233
0.00613715
0.0065919
0.00698432
0.00732084
0.00760717
0.0078486
0.00805009
0.00821636
0.00835184
0.00846066
0.00854654
0.0086128
0.00866226
0.00869722
0.00871941
0.00873
0.000150819
0.00136046
0.00252773
0.00349328
0.00430826
0.00500742
0.00561234
0.00613717
0.00659193
0.00698435
0.00732088
0.00760722
0.00784866
0.00805016
0.00821644
0.00835193
0.00846075
0.00854664
0.00861291
0.00866238
0.00869734
0.00871953
0.00873012
0.000150819
0.00136046
0.00252773
0.00349328
0.00430826
0.00500743
0.00561235
0.00613718
0.00659194
0.00698437
0.00732091
0.00760726
0.0078487
0.0080502
0.00821649
0.00835198
0.00846081
0.00854671
0.00861299
0.00866246
0.00869742
0.00871962
0.00873021
0.000150819
0.00136046
0.00252773
0.00349328
0.00430826
0.00500743
0.00561236
0.00613719
0.00659196
0.00698439
0.00732092
0.00760728
0.00784872
0.00805023
0.00821652
0.00835202
0.00846085
0.00854676
0.00861303
0.00866251
0.00869747
0.00871967
0.00873026
0.000150819
0.00136047
0.00252773
0.00349328
0.00430827
0.00500744
0.00561236
0.00613719
0.00659196
0.0069844
0.00732093
0.00760729
0.00784874
0.00805025
0.00821654
0.00835204
0.00846088
0.00854678
0.00861306
0.00866254
0.00869751
0.00871971
0.0087303
0.000150819
0.00136047
0.00252773
0.00349328
0.00430827
0.00500744
0.00561236
0.0061372
0.00659197
0.0069844
0.00732094
0.0076073
0.00784875
0.00805026
0.00821655
0.00835206
0.0084609
0.0085468
0.00861308
0.00866256
0.00869753
0.00871973
0.00873032
0.000150819
0.00136047
0.00252773
0.00349328
0.00430827
0.00500744
0.00561237
0.0061372
0.00659197
0.0069844
0.00732094
0.0076073
0.00784875
0.00805027
0.00821656
0.00835207
0.00846091
0.00854681
0.0086131
0.00866257
0.00869754
0.00871974
0.00873033
0.000150819
0.00136047
0.00252773
0.00349328
0.00430827
0.00500744
0.00561237
0.0061372
0.00659197
0.00698441
0.00732095
0.00760731
0.00784876
0.00805027
0.00821657
0.00835207
0.00846091
0.00854682
0.0086131
0.00866258
0.00869755
0.00871975
0.00873034
0.000150819
0.00136047
0.00252773
0.00349328
0.00430827
0.00500744
0.00561237
0.0061372
0.00659197
0.00698441
0.00732095
0.00760731
0.00784876
0.00805027
0.00821657
0.00835208
0.00846091
0.00854682
0.0086131
0.00866258
0.00869755
0.00871975
0.00873034
0.000194582
0.000179228
0.000179076
0.00019388
0.00175092
0.00166946
0.00166894
0.00174872
0.00321128
0.0031422
0.00314091
0.00320724
0.0043065
0.00426692
0.00426504
0.00430078
0.00515749
0.0051342
0.00513184
0.00515035
0.00583776
0.0058228
0.00582005
0.00582946
0.00639104
0.00638062
0.00637754
0.00638177
0.00684518
0.0068374
0.00683404
0.00683503
0.00721914
0.00721301
0.00720938
0.0072082
0.00752682
0.00752175
0.00751788
0.00751515
0.00777898
0.00777463
0.00777054
0.00776666
0.00798441
0.00798055
0.00797628
0.00797152
0.00815053
0.00814701
0.00814257
0.00813714
0.0082837
0.00828043
0.00827584
0.00826988
0.00838946
0.00838636
0.00838165
0.00837527
0.00847261
0.00846963
0.00846482
0.00845812
0.00853732
0.00853443
0.00852953
0.00852257
0.00858713
0.00858431
0.00857934
0.00857218
0.00862508
0.0086223
0.00861728
0.00860997
0.00865367
0.00865092
0.00864586
0.00863843
0.00867499
0.00867227
0.00866717
0.00865965
0.00869072
0.00868801
0.00868289
0.0086753
0.00870221
0.00869951
0.00869437
0.00868673
0.00871051
0.00870782
0.00870266
0.00869499
0.00871645
0.00871376
0.0087086
0.0087009
0.00872066
0.00871798
0.0087128
0.00870508
0.00872362
0.00872094
0.00871576
0.00870802
0.00872568
0.008723
0.00871781
0.00871007
0.0087271
0.00872442
0.00871923
0.00871148
0.00872807
0.00872539
0.0087202
0.00871245
0.00872873
0.00872605
0.00872086
0.0087131
0.00872918
0.00872649
0.0087213
0.00871354
0.00872947
0.00872679
0.0087216
0.00871384
0.00872967
0.00872699
0.0087218
0.00871403
0.0087298
0.00872712
0.00872192
0.00871416
0.00872988
0.0087272
0.00872201
0.00871425
0.00872994
0.00872726
0.00872206
0.0087143
0.00872997
0.00872729
0.0087221
0.00871433
0.00872999
0.00872731
0.00872212
0.00871435
0.00873001
0.00872732
0.00872213
0.00871437
0.00873001
0.00872733
0.00872213
0.00871437
0.00873001
0.00872733
0.00872213
0.00871437
0.0010768
0.00210846
0.00286288
0.00333589
0.00362385
0.00379478
0.00388711
0.00392141
0.00390804
0.00385143
0.00375218
0.00360807
0.00341416
0.0031622
0.0028389
0.00242214
0.00187243
0.0011145
0.000145069
0.00229101
0.00300574
0.00357481
0.00397568
0.00424028
0.0044038
0.00449124
0.00451779
0.00449155
0.00441577
0.00429029
0.00411216
0.00387565
0.00357162
0.00318565
0.00269435
0.0020571
0.00119997
0.000150998
0.00344843
0.00388642
0.0042843
0.00459411
0.00481293
0.00495197
0.00502308
0.00503469
0.00499142
0.00489464
0.00474298
0.00453265
0.00425722
0.00390683
0.00346645
0.00291202
0.00220259
0.00126602
0.000155495
0.00441911
0.00468128
0.00494821
0.00517345
0.00534037
0.00544652
0.00549418
0.00548581
0.0054225
0.00530347
0.00512601
0.00488541
0.00457459
0.00418319
0.00369576
0.00308795
0.00231881
0.00131796
0.00015896
0.00521329
0.00537093
0.00554542
0.0057011
0.00581885
0.00589001
0.00591098
0.00587989
0.00579485
0.00565309
0.00545061
0.00518182
0.00483905
0.00441154
0.00388359
0.00323075
0.00241221
0.00135917
0.000161647
0.00586408
0.0059588
0.00606954
0.006171
0.00624592
0.00628365
0.00627755
0.00622295
0.00611573
0.00595155
0.00572525
0.00543049
0.00505909
0.00459998
0.00403733
0.00334665
0.00248732
0.00139193
0.000163736
0.00640026
0.00645556
0.0065221
0.00658213
0.00662129
0.00662893
0.00659714
0.00651963
0.00639083
0.00620518
0.00595666
0.00563828
0.00524145
0.0047549
0.00416268
0.00344038
0.00254756
0.00141792
0.000165355
0.00684349
0.0068729
0.00690821
0.00693666
0.00694657
0.00692806
0.00687291
0.00677404
0.00662496
0.00641933
0.00615045
0.00581086
0.00539169
0.00488149
0.00426429
0.00351572
0.00259557
0.00143844
0.000166604
0.00720998
0.0072216
0.00723431
0.00723857
0.00722477
0.00718401
0.00710823
0.00699004
0.00682247
0.00659866
0.00631148
0.00595314
0.00551455
0.00498417
0.00434602
0.00357583
0.00263355
0.00145452
0.000167561
0.00751223
0.00751115
0.00750714
0.0074927
0.00745977
0.00740036
0.00730673
0.00717149
0.00698745
0.00674746
0.00644412
0.00606943
0.00561415
0.00506672
0.00441118
0.00362333
0.00266331
0.001467
0.000168288
0.0077603
0.00774989
0.00773325
0.00770424
0.00765591
0.00758101
0.0074722
0.0073222
0.00712379
0.00686967
0.0065523
0.00616355
0.00569414
0.00513246
0.00446262
0.00366051
0.00268638
0.00147659
0.000168835
0.00796258
0.00794514
0.00791883
0.0078784
0.0078177
0.00773005
0.0076085
0.00744596
0.00723522
0.00696898
0.00663962
0.00623897
0.00575771
0.00518428
0.00450281
0.00368928
0.00270408
0.00148387
0.000169242
0.00812621
0.00810341
0.00806963
0.00802022
0.00794959
0.00785154
0.00771944
0.00754638
0.00732526
0.00704878
0.00670933
0.00629875
0.00580771
0.00522468
0.00453386
0.00371131
0.0027175
0.00148934
0.000169542
0.00825743
0.00823048
0.00819091
0.00813442
0.00805588
0.00794941
0.00780866
0.00762691
0.00739716
0.00711218
0.00676438
0.00634562
0.0058466
0.00525584
0.0045576
0.00372798
0.00272756
0.0014934
0.00016976
0.00836163
0.00833149
0.00828739
0.00822536
0.00814053
0.0080273
0.00787956
0.00769072
0.00745391
0.00716197
0.00680735
0.00638196
0.00587653
0.00527961
0.00457554
0.00374046
0.00273501
0.00149638
0.000169917
0.00844355
0.00841094
0.00836333
0.00829696
0.00820717
0.00808858
0.00793523
0.00774069
0.00749819
0.00720062
0.00684052
0.00640982
0.00589929
0.00529755
0.00458894
0.0037497
0.00274047
0.00149854
0.00017003
0.00850729
0.00847276
0.00842245
0.0083527
0.00825903
0.00813622
0.00797843
0.00777936
0.00753233
0.00723029
0.00686584
0.00643094
0.00591642
0.00531093
0.00459886
0.00375646
0.00274442
0.00150008
0.000170109
0.00855635
0.00852036
0.00846795
0.0083956
0.00829893
0.00817282
0.00801157
0.00780895
0.00755835
0.0072528
0.00688494
0.00644677
0.00592917
0.00532081
0.00460611
0.00376135
0.00274725
0.00150118
0.000170164
0.00859371
0.0085566
0.0085026
0.00842826
0.00832927
0.00820063
0.00803669
0.00783132
0.00757796
0.00726969
0.0068992
0.00645852
0.00593856
0.00532802
0.00461136
0.00376486
0.00274926
0.00150195
0.000170202
0.00862186
0.0085839
0.0085287
0.00845284
0.0083521
0.00822152
0.00805553
0.00784805
0.00759257
0.00728223
0.00690972
0.00646714
0.00594541
0.00533324
0.00461512
0.00376735
0.00275067
0.00150248
0.000170229
0.00864284
0.00860424
0.00854813
0.00847114
0.00836908
0.00823704
0.0080695
0.00786043
0.00760335
0.00729143
0.00691741
0.0064734
0.00595034
0.00533698
0.00461779
0.0037691
0.00275165
0.00150285
0.000170246
0.00865831
0.00861924
0.00856246
0.00848462
0.00838157
0.00824845
0.00807975
0.00786948
0.00761121
0.00729812
0.00692297
0.0064779
0.00595387
0.00533962
0.00461967
0.00377032
0.00275233
0.0015031
0.000170258
0.0086696
0.00863018
0.00857291
0.00849445
0.00839067
0.00825674
0.00808719
0.00787604
0.00761688
0.00730293
0.00692695
0.00648111
0.00595636
0.00534148
0.00462097
0.00377116
0.00275279
0.00150327
0.000170266
0.00867776
0.00863809
0.00858045
0.00850154
0.00839723
0.00826271
0.00809254
0.00788074
0.00762094
0.00730635
0.00692978
0.00648337
0.00595811
0.00534278
0.00462187
0.00377174
0.0027531
0.00150338
0.000170272
0.0086836
0.00864374
0.00858585
0.0085066
0.00840191
0.00826697
0.00809634
0.00788408
0.00762381
0.00730877
0.00693176
0.00648495
0.00595932
0.00534367
0.00462249
0.00377213
0.00275331
0.00150346
0.000170275
0.00868774
0.00864775
0.00858967
0.00851019
0.00840522
0.00826997
0.00809902
0.00788643
0.00762582
0.00731045
0.00693314
0.00648604
0.00596016
0.00534428
0.00462291
0.00377239
0.00275345
0.00150351
0.000170278
0.00869064
0.00865056
0.00859234
0.0085127
0.00840754
0.00827208
0.00810089
0.00788806
0.00762722
0.00731162
0.00693409
0.00648679
0.00596073
0.00534469
0.00462319
0.00377256
0.00275354
0.00150354
0.000170279
0.00869266
0.00865251
0.00859421
0.00851444
0.00840915
0.00827353
0.00810219
0.00788919
0.00762818
0.00731243
0.00693474
0.0064873
0.00596112
0.00534497
0.00462338
0.00377268
0.0027536
0.00150356
0.00017028
0.00869405
0.00865386
0.00859549
0.00851564
0.00841025
0.00827453
0.00810308
0.00788996
0.00762884
0.00731297
0.00693518
0.00648764
0.00596138
0.00534516
0.0046235
0.00377276
0.00275364
0.00150358
0.000170281
0.00869501
0.00865478
0.00859636
0.00851646
0.00841101
0.00827522
0.00810368
0.00789049
0.00762929
0.00731334
0.00693548
0.00648788
0.00596155
0.00534528
0.00462359
0.0037728
0.00275367
0.00150359
0.000170281
0.00869565
0.00865541
0.00859696
0.00851702
0.00841152
0.00827568
0.00810409
0.00789084
0.00762959
0.00731359
0.00693567
0.00648803
0.00596166
0.00534536
0.00462364
0.00377284
0.00275369
0.00150359
0.000170281
0.00869609
0.00865583
0.00859736
0.00851739
0.00841186
0.00827599
0.00810436
0.00789108
0.00762979
0.00731375
0.00693581
0.00648813
0.00596174
0.00534541
0.00462368
0.00377286
0.0027537
0.00150359
0.000170281
0.00869638
0.00865611
0.00859763
0.00851764
0.00841209
0.00827619
0.00810454
0.00789124
0.00762992
0.00731386
0.00693589
0.0064882
0.00596179
0.00534545
0.0046237
0.00377287
0.0027537
0.0015036
0.000170282
0.00869657
0.0086563
0.0085978
0.00851781
0.00841224
0.00827633
0.00810466
0.00789134
0.00763001
0.00731393
0.00693595
0.00648824
0.00596182
0.00534547
0.00462371
0.00377288
0.00275371
0.0015036
0.000170282
0.0086967
0.00865642
0.00859792
0.00851792
0.00841234
0.00827642
0.00810474
0.00789141
0.00763006
0.00731398
0.00693599
0.00648827
0.00596184
0.00534548
0.00462372
0.00377289
0.00275371
0.0015036
0.000170282
0.00869678
0.0086565
0.008598
0.00851799
0.00841241
0.00827648
0.00810479
0.00789145
0.0076301
0.00731401
0.00693601
0.00648829
0.00596185
0.00534549
0.00462373
0.00377289
0.00275371
0.0015036
0.000170282
0.00869684
0.00865655
0.00859804
0.00851803
0.00841245
0.00827651
0.00810483
0.00789148
0.00763012
0.00731403
0.00693602
0.0064883
0.00596186
0.0053455
0.00462373
0.00377289
0.00275371
0.0015036
0.000170282
0.00869687
0.00865658
0.00859808
0.00851806
0.00841248
0.00827654
0.00810485
0.0078915
0.00763014
0.00731404
0.00693603
0.00648831
0.00596187
0.0053455
0.00462373
0.00377289
0.00275371
0.0015036
0.000170282
0.00869689
0.0086566
0.0085981
0.00851808
0.00841249
0.00827655
0.00810486
0.00789151
0.00763015
0.00731405
0.00693604
0.00648831
0.00596187
0.0053455
0.00462373
0.00377289
0.00275371
0.0015036
0.000170282
0.0086969
0.00865662
0.00859811
0.00851809
0.00841251
0.00827656
0.00810487
0.00789152
0.00763015
0.00731405
0.00693604
0.00648831
0.00596187
0.00534551
0.00462374
0.00377289
0.00275371
0.0015036
0.000170282
0.00869691
0.00865662
0.00859811
0.0085181
0.00841251
0.00827657
0.00810488
0.00789152
0.00763016
0.00731406
0.00693605
0.00648831
0.00596187
0.00534551
0.00462374
0.00377289
0.00275372
0.0015036
0.000170282
0.00869691
0.00865662
0.00859812
0.0085181
0.00841251
0.00827657
0.00810488
0.00789152
0.00763016
0.00731406
0.00693605
0.00648832
0.00596187
0.00534551
0.00462374
0.00377289
0.00275372
0.0015036
0.000170282
)
;

boundaryField
{
    leftWall
    {
        type            nutkWallFunction;
        blending        stepwise;
        value           nonuniform List<scalar> 
50
(
0
2.28793e-06
4.5321e-06
6.09757e-06
7.26243e-06
8.17491e-06
8.91543e-06
9.53111e-06
1.03393e-05
1.11394e-05
1.17347e-05
1.21845e-05
1.25263e-05
1.27862e-05
1.29832e-05
1.31315e-05
1.32423e-05
1.33242e-05
1.33842e-05
1.34276e-05
1.34586e-05
1.34806e-05
1.3496e-05
1.35067e-05
1.3514e-05
1.35189e-05
1.35223e-05
1.35245e-05
1.3526e-05
1.35269e-05
1.35276e-05
1.3528e-05
1.35282e-05
1.35284e-05
1.35285e-05
1.35286e-05
1.35286e-05
1.35287e-05
1.35287e-05
1.35287e-05
1.35287e-05
1.35287e-05
1.35287e-05
1.35287e-05
1.35287e-05
1.35287e-05
1.35287e-05
1.35287e-05
1.35287e-05
1.35287e-05
)
;
    }
    rightWall
    {
        type            nutkWallFunction;
        blending        stepwise;
        value           nonuniform List<scalar> 
50
(
0
4.25087e-06
6.65213e-06
8.35048e-06
9.62273e-06
1.06222e-05
1.14344e-05
1.211e-05
1.29972e-05
1.38752e-05
1.45283e-05
1.50214e-05
1.53961e-05
1.5681e-05
1.58969e-05
1.60597e-05
1.61814e-05
1.62716e-05
1.63378e-05
1.63858e-05
1.64204e-05
1.6445e-05
1.64622e-05
1.64743e-05
1.64826e-05
1.64883e-05
1.64922e-05
1.64947e-05
1.64965e-05
1.64976e-05
1.64984e-05
1.64989e-05
1.64992e-05
1.64994e-05
1.64995e-05
1.64996e-05
1.64996e-05
1.64997e-05
1.64997e-05
1.64997e-05
1.64997e-05
1.64997e-05
1.64997e-05
1.64997e-05
1.64997e-05
1.64997e-05
1.64997e-05
1.64997e-05
1.64997e-05
1.64997e-05
)
;
    }
    lowerWall
    {
        type            nutkWallFunction;
        blending        stepwise;
        value           nonuniform List<scalar> 
62
(
0
0
0
0
0
0
0
0
0
0
0
0
0
0
0
0
0
0
0
0
0
0
0
0
3.11272e-06
5.86301e-06
7.87581e-06
9.56798e-06
1.12716e-05
1.35748e-05
1.80258e-05
2.00831e-05
1.77728e-05
1.77512e-05
1.99831e-05
0
5.10538e-06
8.08425e-06
1.02927e-05
1.21721e-05
1.41003e-05
1.67331e-05
2.16023e-05
0
0
0
0
0
0
0
0
0
0
0
0
0
0
0
0
0
0
0
)
;
    }
    atmosphere
    {
        type            calculated;
        value           nonuniform List<scalar> 
46
(
0.000150819
0.00136047
0.00252773
0.00349328
0.00430827
0.00500744
0.00561237
0.0061372
0.00659197
0.00698441
0.00732095
0.00760731
0.00784876
0.00805027
0.00821657
0.00835208
0.00846091
0.00854682
0.0086131
0.00866258
0.00869755
0.00871975
0.00873034
0.00873001
0.00872733
0.00872213
0.00871437
0.00869691
0.00865662
0.00859812
0.0085181
0.00841251
0.00827657
0.00810488
0.00789152
0.00763016
0.00731406
0.00693605
0.00648832
0.00596187
0.00534551
0.00462374
0.00377289
0.00275372
0.0015036
0.000170282
)
;
    }
    defaultFaces
    {
        type            empty;
    }
}


// ************************************************************************* //
