/*--------------------------------*- C++ -*----------------------------------*\
| =========                 |                                                 |
| \\      /  F ield         | OpenFOAM: The Open Source CFD Toolbox           |
|  \\    /   O peration     | Version:  2406                                  |
|   \\  /    A nd           | Website:  www.openfoam.com                      |
|    \\/     M anipulation  |                                                 |
\*---------------------------------------------------------------------------*/
FoamFile
{
    version     2.0;
    format      ascii;
    arch        "LSB;label=32;scalar=64";
    class       volScalarField;
    location    "0.65";
    object      nut;
}
// * * * * * * * * * * * * * * * * * * * * * * * * * * * * * * * * * * * * * //

dimensions      [0 2 -1 0 0 0 0];

internalField   nonuniform List<scalar> 
2268
(
0.000289337
0.000213038
0.000213038
0.000213038
0.000213038
0.000213038
0.000213038
0.000213038
0.000213038
0.000213038
0.000213038
0.000213038
0.000213038
5.74827e-05
3.62127e-05
4.19447e-05
4.51963e-05
4.68296e-05
4.72303e-05
4.6342e-05
4.36881e-05
3.79128e-05
2.32375e-05
0.000450785
0.000254306
0.000232321
0.000225511
0.000222385
0.000220634
0.000219545
0.000218827
0.000218345
0.000218025
0.00021783
0.000217737
0.000217737
4.07294e-05
0.000209184
0.000322263
0.000369305
0.000391956
0.000398456
0.000388594
0.000355832
0.000280242
7.69062e-05
0.000450785
0.000288167
0.000251962
0.000238672
0.000232268
0.000228639
0.000226375
0.000224885
0.000223885
0.000223224
0.000222819
0.000222627
0.000222627
5.01886e-05
0.000314747
0.000535476
0.00063904
0.000689966
0.00070571
0.000685901
0.000616322
0.000456455
9.05423e-05
0.000450785
0.000314823
0.000270613
0.00025196
0.000242449
0.000236938
0.000233468
0.000231176
0.000229635
0.000228616
0.000227992
0.000227696
0.000227696
6.11716e-05
0.000387103
0.000683947
0.00083669
0.000914443
0.000940024
0.000912494
0.000810829
0.000579116
0.000100659
0.000450785
0.000335499
0.000287638
0.000264953
0.00025271
0.000245414
0.000240757
0.00023766
0.000235569
0.000234184
0.000233336
0.000232932
0.000232932
7.19629e-05
0.000443762
0.000797795
0.000992795
0.00109579
0.00113209
0.00109979
0.000971616
0.000678143
0.00010947
0.000450785
0.000351572
0.000302834
0.000277373
0.000262866
0.000253958
0.000248176
0.000244294
0.000241659
0.000239907
0.000238833
0.00023832
0.00023832
8.25263e-05
0.000491892
0.000893154
0.00112622
0.00125388
0.00130239
0.00126888
0.00111995
0.000770748
0.000118868
0.000450785
0.000364209
0.000316232
0.000289058
0.00027278
0.000262475
0.000255662
0.000251035
0.000247873
0.000245763
0.000244464
0.000243845
0.000243845
9.2975e-05
0.000535225
0.000979346
0.0012489
0.00140177
0.00146466
0.00143421
0.00127176
0.000871727
0.00013233
0.000450785
0.00037429
0.000327979
0.000299934
0.000282353
0.000270886
0.000263158
0.000257843
0.000254182
0.000251726
0.00025021
0.000249486
0.000249486
0.000103419
0.000576142
0.00106256
0.00136921
0.00154885
0.00162885
0.00160665
0.00144196
0.00100656
0.00015877
2.44941e-05
4.11888e-05
4.80008e-05
5.16546e-05
5.37868e-05
5.50728e-05
5.583e-05
5.62151e-05
5.63052e-05
5.61325e-05
5.56995e-05
5.49846e-05
5.39421e-05
5.2495e-05
5.05169e-05
4.77856e-05
4.38524e-05
3.7565e-05
3.77469e-05
9.11421e-05
0.000324163
0.000414505
0.000460858
0.000487275
0.00050304
0.000512257
0.00051684
0.000517685
0.000515148
0.000509247
0.000499736
0.0004861
0.000467477
0.000442412
0.000408235
0.000359147
0.000278414
8.61908e-05
0.000107776
0.000545482
0.00074386
0.000846617
0.000904948
0.000939641
0.000959852
0.000969771
0.000971315
0.000965237
0.00095159
0.000929899
0.000899171
0.00085774
0.00080278
0.000728977
0.000624515
0.000455628
9.93271e-05
0.000120454
0.000705246
0.00100107
0.00115653
0.0012448
0.0012972
0.00132763
0.00134238
0.00134431
0.00133455
0.00131319
0.00127957
0.00123232
0.00116912
0.00108604
0.000975626
0.000821263
0.000577015
0.000108817
0.000131637
0.000836055
0.00121905
0.00142155
0.00153634
0.00160439
0.00164374
0.00166253
0.00166444
0.00165088
0.00162199
0.00157694
0.00151402
0.00143039
0.00132118
0.00117716
0.000977885
0.000668843
0.000116144
0.000143531
0.000957633
0.00142115
0.00166464
0.00180216
0.0018836
0.0019305
0.00195248
0.00195385
0.00193629
0.00189992
0.00184375
0.00176575
0.0016626
0.00152858
0.00135288
0.00111181
0.000744456
0.000122143
0.000160058
0.00108702
0.00162503
0.00190204
0.00205816
0.00215072
0.0022038
0.00222809
0.00222839
0.00220652
0.00216256
0.00209533
0.00200252
0.00188029
0.00172209
0.00151553
0.00123397
0.000811215
0.000127281
0.000190434
0.00125292
0.00184685
0.00214604
0.00231619
0.00241767
0.00247564
0.00250141
0.00250006
0.00247349
0.0024217
0.00234331
0.00223565
0.00209434
0.00191192
0.00167437
0.00135199
0.00087377
0.000131818
0.000450785
0.000387195
0.000344345
0.000315956
0.000296959
0.000284001
0.000275003
0.000268693
0.00026429
0.000261311
0.000259464
0.000258579
0.000258579
0.000119977
0.000639142
0.00119496
0.00156347
0.00178911
0.001901
0.00190086
0.00176159
0.00142089
0.000820169
0.000450785
0.000399213
0.000361271
0.000333993
0.000314483
0.000300479
0.000290379
0.0002831
0.000277922
0.000274374
0.000272153
0.000271084
0.000271084
0.00014086
0.000706021
0.00133236
0.00177017
0.00205429
0.00221613
0.00226624
0.00219828
0.00199649
0.00166079
0.000450785
0.00040801
0.000374622
0.000349177
0.000330022
0.000315683
0.000304996
0.000297099
0.000291376
0.000287401
0.000284892
0.000283678
0.000283678
0.000160371
0.000759335
0.00143921
0.00193429
0.00227192
0.00248504
0.00259104
0.00259727
0.0025101
0.00235168
0.000450785
0.000414731
0.000385376
0.00036202
0.000343727
0.000329558
0.000318698
0.000310491
0.000304441
0.000300187
0.000297478
0.000296161
0.000296162
0.000178679
0.000803476
0.00152624
0.00206976
0.0024554
0.00271667
0.00287493
0.00294391
0.00293677
0.00287441
0.000450785
0.000420036
0.000394195
0.000372954
0.000355792
0.000342126
0.000331401
0.000323138
0.000316953
0.000312553
0.00030973
0.000308351
0.000308351
0.000195824
0.000840602
0.00159845
0.00218316
0.00261088
0.00291492
0.00311827
0.00323681
0.00328423
0.00327591
0.000450785
0.000424321
0.000401533
0.000382317
0.000366406
0.000353446
0.000343072
0.000334946
0.000328781
0.000324352
0.000321489
0.000320085
0.000320085
0.000211775
0.000871958
0.0016586
0.00227815
0.00274202
0.00308273
0.0033236
0.00348069
0.00356643
0.00359186
0.000450785
0.000427844
0.000407701
0.000390371
0.000375735
0.000363591
0.000353709
0.000345858
0.000339834
0.000335466
0.000332626
0.000331228
0.000331228
0.000226483
0.000898384
0.0017085
0.00235724
0.00285162
0.00322308
0.00349462
0.00368173
0.00379548
0.00384411
0.000450785
0.000430772
0.000412923
0.000397316
0.00038392
0.000372637
0.000363329
0.000355845
0.000350046
0.000345809
0.000343038
0.00034167
0.00034167
0.000239915
0.000920565
0.00174963
0.00242253
0.00294229
0.00333912
0.00363543
0.00384602
0.00398082
0.00404638
0.000450785
0.000433225
0.000417362
0.000403306
0.000391083
0.000380658
0.000371959
0.000364896
0.000359376
0.000355317
0.00035265
0.000351328
0.000351328
0.000252075
0.000939145
0.00178338
0.0024761
0.00301671
0.0034342
0.00375031
0.00397923
0.00413001
0.00420823
0.000450785
0.000435286
0.000421137
0.000408463
0.000397323
0.000387723
0.000379636
0.000373015
0.000367804
0.00036395
0.000361408
0.000360145
0.000360145
0.000263001
0.000954784
0.00181116
0.00252008
0.00307769
0.00351181
0.00384359
0.00408667
0.00424953
0.00433716
0.000450785
0.000437019
0.000424342
0.000412885
0.000402725
0.000393895
0.000386398
0.000380217
0.000375324
0.000371687
0.000369281
0.000368083
0.000368083
0.000272781
0.000968193
0.00183447
0.00255671
0.00312816
0.00357558
0.00391959
0.00417343
0.00434521
0.00443962
0.000450785
0.000438471
0.000427049
0.00041665
0.000407361
0.000399231
0.000392284
0.000386524
0.000381941
0.000378522
0.000376252
0.00037512
0.000375121
0.000281551
0.000980176
0.00185491
0.00258838
0.00317123
0.00362924
0.00398261
0.00424435
0.00442242
0.00452137
0.000450785
0.000439678
0.000429315
0.000419822
0.000411292
0.000403784
0.000397335
0.000391961
0.000387669
0.000384456
0.000382318
0.000381251
0.000381251
0.000289522
0.000991699
0.00187434
0.00261777
0.00321024
0.00367665
0.00403694
0.00430409
0.00448609
0.00458759
0.000450785
0.000440668
0.000431183
0.000422453
0.00041457
0.0004076
0.000401586
0.000396557
0.000392526
0.000389501
0.000387484
0.000386476
0.000386476
0.000297029
0.00100403
0.00189503
0.00264803
0.00324893
0.0037219
0.00408687
0.00435706
0.00454077
0.00464289
0.000450785
0.000441464
0.000432691
0.000424586
0.000417238
0.000410718
0.000405073
0.000400337
0.000396532
0.000393671
0.00039176
0.000390804
0.000390805
0.000304642
0.00101905
0.00192018
0.00268327
0.0032918
0.0037695
0.00413678
0.00440751
0.00459057
0.00469131
0.000450785
0.000442082
0.000433866
0.000426253
0.000419331
0.000413171
0.000407825
0.000403329
0.000399709
0.000396982
0.00039516
0.000394247
0.000394247
0.000313448
0.00104001
0.00195498
0.00272958
0.00334471
0.00382463
0.00419117
0.00445943
0.00463915
0.00473627
0.000450785
0.000442534
0.00043473
0.000427481
0.000420877
0.000414988
0.000409866
0.000405552
0.000402074
0.00039945
0.000397695
0.000396816
0.000396816
0.000325848
0.00107375
0.00200946
0.00279677
0.0034156
0.00389332
0.00425463
0.00451648
0.00468964
0.0047806
0.000450785
0.000442831
0.000435297
0.000428289
0.000421896
0.000416187
0.000411216
0.000407024
0.000403641
0.000401088
0.000399379
0.000398522
0.000398522
0.000348467
0.0011389
0.00210536
0.00290135
0.00351508
0.00398214
0.00433142
0.00458169
0.00474444
0.00482641
0.000450785
0.000442978
0.000435578
0.000428691
0.000422402
0.000416784
0.000411888
0.000407758
0.000404422
0.000401904
0.000400218
0.000399373
0.000399373
0.000410051
0.00129985
0.00229082
0.00306815
0.0036548
0.00409667
0.00442453
0.00465698
0.00480505
0.00487504
0.000450785
0.000442978
0.000435578
0.000428691
0.000422403
0.000416784
0.000411888
0.000407758
0.000404423
0.000401905
0.000400219
0.000399373
0.000342897
0.000909971
0.00180703
0.00264388
0.00331769
0.00383985
0.0042381
0.00453423
0.00474254
0.0048718
0.00492704
0.000193771
0.000213611
0.000239958
0.000259655
0.000274019
0.000284741
0.000293232
0.00030085
0.000309287
0.000321433
0.000344353
0.000407302
0.000908167
0.00163916
0.00239133
0.00305985
0.00361364
0.0040561
0.00439997
0.00465723
0.00483665
0.00494391
0.00498221
0.000112438
0.000421848
0.000580993
0.000688525
0.000768918
0.000832459
0.000885253
0.000932102
0.000978223
0.00103193
0.00111295
0.00128628
0.0017994
0.00238826
0.00296329
0.00348095
0.00392292
0.0042858
0.0045727
0.00478825
0.00493641
0.00501987
0.00503991
0.00011299
0.000694105
0.00102848
0.00124527
0.00140453
0.00153035
0.00163535
0.00172827
0.00181771
0.00191595
0.00204632
0.00225762
0.0026272
0.00305413
0.00348118
0.00387657
0.0042235
0.00451451
0.0047473
0.00492183
0.00503862
0.0050979
0.00509932
0.000120893
0.000853818
0.00134159
0.00166575
0.00190432
0.0020927
0.00224965
0.00238753
0.00251719
0.00265155
0.00280921
0.00301636
0.00329453
0.00360975
0.00392991
0.00423239
0.00450278
0.00473255
0.00491701
0.00505358
0.0051406
0.00517659
0.00515987
0.000126854
0.000952865
0.00155286
0.00196631
0.00227523
0.00252065
0.00272516
0.00290334
0.00306686
0.00322745
0.00339837
0.00359331
0.00381919
0.0040638
0.00431047
0.00454465
0.00475533
0.00493481
0.00507785
0.00518077
0.00524074
0.00525518
0.00522148
0.000131231
0.00102133
0.00170306
0.00218684
0.00255443
0.00284901
0.00309491
0.00330764
0.0034988
0.0036786
0.00385668
0.00404117
0.00423542
0.00443493
0.00463134
0.00481584
0.00498076
0.00511992
0.00522847
0.00530254
0.00533875
0.00533393
0.00528486
0.000134525
0.00107191
0.00181519
0.00235431
0.00276994
0.00310587
0.003387
0.00362893
0.00384278
0.00403747
0.00422058
0.00439787
0.00457206
0.00474191
0.00490352
0.00505192
0.00518208
0.00528943
0.0053699
0.00541984
0.00543577
0.00541422
0.00535162
0.000137067
0.00111104
0.00190246
0.00248599
0.00294121
0.00331194
0.00362301
0.00388973
0.00412261
0.00432964
0.00451725
0.00469024
0.00485144
0.00500132
0.00513854
0.00526062
0.00536455
0.00544713
0.00550514
0.00553534
0.00553434
0.00549863
0.00542446
0.0001391
0.00114278
0.00197363
0.00259409
0.00308282
0.00348339
0.00382032
0.00410847
0.00435779
0.00457563
0.00476778
0.00493873
0.00509157
0.00522787
0.00534787
0.00545075
0.00553498
0.00559849
0.00563882
0.00565317
0.00563838
0.00559096
0.00550715
0.000140832
0.00117033
0.00203564
0.00268863
0.00320709
0.00363422
0.00399417
0.00430136
0.00456532
0.00479297
0.00498984
0.00516036
0.00530797
0.00543501
0.00554281
0.0056317
0.00570123
0.00575021
0.00577683
0.00577871
0.00575293
0.00569611
0.00560455
0.000142465
0.00119675
0.00209506
0.0027791
0.00332572
0.00377778
0.00415906
0.0044837
0.00476095
0.00499763
0.00519921
0.0053703
0.00551469
0.00563538
0.00573446
0.00581313
0.00587173
0.00590976
0.00592592
0.00591821
0.00588395
0.00581989
0.00572243
0.000144228
0.00122535
0.00215891
0.00287547
0.00345091
0.00392773
0.00432956
0.00467048
0.00495984
0.0052046
0.00541048
0.00558242
0.00572466
0.00584075
0.00593341
0.0060045
0.00605495
0.00608478
0.00609314
0.0060783
0.00603782
0.00596859
0.00586716
0.000146401
0.00126003
0.00223518
0.00298885
0.00359582
0.00409845
0.00452054
0.00487662
0.00517657
0.00542793
0.00563699
0.00580922
0.00594941
0.00606165
0.00614917
0.00621435
0.0062586
0.00628233
0.00628502
0.0062652
0.00622061
0.00614832
0.006045
0.000149342
0.00130536
0.00233298
0.00313156
0.00377465
0.00430486
0.00474688
0.00511639
0.00542456
0.00568006
0.00589015
0.0060611
0.00619834
0.00630648
0.00638924
0.00644938
0.00648867
0.00650784
0.0065066
0.00648372
0.0064371
0.00636398
0.00626114
0.000153504
0.00136641
0.00246217
0.00331667
0.004002
0.00456169
0.00502242
0.00540233
0.00571486
0.0059706
0.00617828
0.0063452
0.00647754
0.00658044
0.00665799
0.00671326
0.00674826
0.00676394
0.00676022
0.00673605
0.00668951
0.00661797
0.00651842
0.000159436
0.00144834
0.00263279
0.00355745
0.00429208
0.00488224
0.00535859
0.00574362
0.00605455
0.00630484
0.00650517
0.00666413
0.00678866
0.00688434
0.00695556
0.00700555
0.00703647
0.0070494
0.0070444
0.0070206
0.00697626
0.00690896
0.00681586
0.000167783
0.00155628
0.00285554
0.00386801
0.0046588
0.00527776
0.00576308
0.0061446
0.00644526
0.00668236
0.00686897
0.00701499
0.00712802
0.00721395
0.00727725
0.00732117
0.00734788
0.00735851
0.00735323
0.00733133
0.00729128
0.00723092
0.00714763
0.000179393
0.00169756
0.00314673
0.00426807
0.00511842
0.00575801
0.00623931
0.00660384
0.00688228
0.00709648
0.00726183
0.00738929
0.0074868
0.0075602
0.00761381
0.0076507
0.00767289
0.00768148
0.0076767
0.00765798
0.00762408
0.00757315
0.0075029
0.00019577
0.00188798
0.00354073
0.00479344
0.0056948
0.00633274
0.00678629
0.00711375
0.00735461
0.00753471
0.00767085
0.00777419
0.00785236
0.00791069
0.00795301
0.00798196
0.00799929
0.00800595
0.00800219
0.00798761
0.00796125
0.00792164
0.00786697
0.000220859
0.0021623
0.00411192
0.00550968
0.0064224
0.00700997
0.0073966
0.00765991
0.00784559
0.00798036
0.00808018
0.00815488
0.00821082
0.00825228
0.00828221
0.00830263
0.00831486
0.00831962
0.00831712
0.00830714
0.008289
0.0082617
0.0082239
0.000268254
0.00259722
0.00502
0.00652004
0.00733401
0.00778367
0.0080499
0.00821939
0.00833399
0.00841502
0.00847404
0.00851775
0.00855026
0.00857425
0.00859153
0.00860332
0.00861041
0.00861325
0.00861199
0.00860651
0.00859645
0.00858122
0.00856006
0.0004219
0.00371259
0.00683306
0.00801176
0.0084329
0.00861232
0.00870496
0.00876023
0.00879652
0.00882182
0.00884013
0.00885364
0.00886367
0.00887108
0.00887641
0.00888006
0.00888228
0.00888321
0.0088829
0.00888132
0.00887837
0.00887385
0.00886748
0.000173505
0.000161267
0.000162628
0.00017823
0.00135529
0.0013061
0.00132167
0.00140221
0.00223125
0.00219845
0.00222715
0.00231424
0.00281593
0.00280209
0.00283886
0.00292093
0.00324471
0.00324176
0.00328444
0.00336651
0.00357642
0.00358061
0.00362812
0.00371227
0.00383959
0.00384912
0.00390068
0.00398734
0.00405005
0.00406379
0.00411872
0.00420776
0.00421814
0.00423518
0.00429285
0.00438397
0.00435172
0.00437127
0.0044311
0.00452396
0.00445748
0.00447883
0.00454025
0.00463445
0.00454133
0.0045638
0.00462628
0.00472141
0.00460851
0.0046315
0.00469448
0.00479008
0.00466367
0.00468652
0.00474945
0.00484503
0.00471077
0.00473283
0.00479509
0.00489013
0.00475315
0.00477368
0.00483464
0.00492857
0.00479346
0.00481169
0.00487066
0.00496288
0.00483373
0.00484881
0.00490508
0.00499499
0.00487527
0.00488637
0.00493925
0.00502627
0.00491876
0.00492513
0.00497401
0.00505763
0.00496431
0.00496537
0.00500976
0.00508959
0.00501168
0.00500706
0.00504668
0.00512248
0.00506055
0.00505013
0.00508488
0.00515658
0.00511077
0.00509467
0.00512464
0.00519233
0.00516264
0.00514117
0.00516663
0.00523053
0.00521713
0.00519074
0.00521207
0.00527249
0.00527602
0.00524528
0.00526293
0.00532026
0.00534209
0.00530759
0.00532206
0.00537669
0.00541914
0.00538151
0.00539328
0.0054456
0.00551207
0.00547192
0.00548146
0.00553181
0.00562668
0.00558466
0.00559239
0.005641
0.00576945
0.00572622
0.0057325
0.00577949
0.00594686
0.00590317
0.00590831
0.00595361
0.00616443
0.00612117
0.00612541
0.00616872
0.0064254
0.00638361
0.00638713
0.00642792
0.00672919
0.00669012
0.00669304
0.00673052
0.00707027
0.00703526
0.00703766
0.00707084
0.00743772
0.0074081
0.00741003
0.00743789
0.0078163
0.00779318
0.00779464
0.00781632
0.00818901
0.008173
0.008174
0.00818903
0.00854071
0.00853177
0.00853234
0.00854082
0.00886173
0.00885915
0.00885936
0.00886199
0.000938545
0.00173133
0.00224901
0.00255589
0.0027412
0.00285391
0.00291799
0.00294496
0.00294014
0.0029054
0.00284057
0.00274387
0.002612
0.00243957
0.00221746
0.00192873
0.00153873
0.000969094
0.000138119
0.00183582
0.00237803
0.00278197
0.00305656
0.00323694
0.0033509
0.00341531
0.00343933
0.00342732
0.00338063
0.0032986
0.0031789
0.00301752
0.00280803
0.0025396
0.00219252
0.00172772
0.00106228
0.000144411
0.00257375
0.00295352
0.00326679
0.00350042
0.00366386
0.00377003
0.0038288
0.00384611
0.00382478
0.00376528
0.00366631
0.00352502
0.00333684
0.0030946
0.00278639
0.00239083
0.0018665
0.00112903
0.00014898
0.00313622
0.00343707
0.00369175
0.00389029
0.00403386
0.00412782
0.00417719
0.00418518
0.00415301
0.00408022
0.00396482
0.00380348
0.00359118
0.00332027
0.00297822
0.0025427
0.00197108
0.00117857
0.000152352
0.0035716
0.00383621
0.0040556
0.00422762
0.00435263
0.00443302
0.00447117
0.00446838
0.00442462
0.00433852
0.00420753
0.00402786
0.00379417
0.00349853
0.00312804
0.00265991
0.00205084
0.00121594
0.000154863
0.00391648
0.00416425
0.00436251
0.0045153
0.00462442
0.00469164
0.00471814
0.00470414
0.00464869
0.00454976
0.0044043
0.00420818
0.00395582
0.00363912
0.00324504
0.00275052
0.00211192
0.0012443
0.000156736
0.00419328
0.00443304
0.00461834
0.00475725
0.00485329
0.00490856
0.00492391
0.004899
0.00483235
0.00472145
0.00456288
0.00435225
0.00408384
0.00374947
0.00333603
0.00282036
0.0021586
0.0012658
0.000158128
0.00441608
0.00465203
0.00482914
0.00495795
0.00504344
0.0050883
0.00509349
0.00505849
0.00498153
0.00485979
0.00468961
0.00446643
0.00418444
0.00383543
0.00340629
0.00287384
0.00219406
0.00128199
0.000159156
0.00459472
0.00482897
0.00500075
0.00512216
0.00519922
0.00523528
0.00523157
0.00518758
0.00510142
0.00497014
0.00478991
0.00455607
0.00426276
0.00390179
0.00346007
0.00291442
0.00222075
0.00129408
0.000159908
0.00473691
0.00497053
0.00513878
0.00525469
0.00532508
0.00535387
0.00534257
0.00529081
0.00519669
0.0050572
0.00486844
0.0046257
0.00432311
0.00395249
0.00350081
0.0029449
0.00224062
0.00130301
0.000160452
0.00484925
0.0050827
0.00524851
0.0053603
0.00542544
0.00544829
0.00543067
0.00537236
0.00527152
0.00512513
0.00492927
0.00467922
0.00436911
0.00399081
0.00353133
0.00296753
0.00225525
0.00130952
0.000160841
0.00493754
0.00517091
0.0053349
0.00544351
0.0055045
0.00552256
0.00549975
0.00543602
0.00532961
0.00517753
0.00497586
0.0047199
0.0044038
0.00401946
0.00355395
0.00298414
0.00226589
0.0013142
0.000161116
0.00500693
0.00524
0.00540246
0.00550851
0.00556617
0.00558035
0.00555332
0.00548517
0.00537422
0.00521752
0.00501117
0.00475049
0.00442967
0.00404065
0.00357052
0.00299619
0.00227353
0.00131754
0.000161308
0.00506189
0.00529424
0.00545517
0.00555902
0.00561391
0.00562493
0.00559449
0.00552277
0.00540815
0.00524775
0.00503768
0.00477328
0.00444879
0.00405616
0.00358253
0.00300484
0.00227895
0.00131988
0.00016144
0.00510622
0.00533724
0.00549649
0.00559827
0.00565078
0.00565917
0.00562593
0.00555132
0.00543377
0.00527041
0.00505741
0.00479012
0.00446278
0.00406741
0.00359115
0.00301098
0.00228276
0.0013215
0.000161531
0.00514305
0.00537205
0.00552929
0.00562899
0.00567932
0.00568545
0.0056499
0.00557293
0.00545302
0.00528733
0.00507202
0.00480248
0.00447297
0.00407551
0.0035973
0.00301532
0.00228542
0.00132262
0.000161592
0.00517488
0.00540109
0.00555593
0.00565344
0.00570168
0.00570579
0.00566825
0.00558933
0.00546752
0.00529996
0.00508284
0.00481155
0.00448037
0.00408135
0.00360168
0.00301836
0.00228726
0.00132339
0.000161633
0.00520363
0.00542629
0.00557828
0.00567342
0.00571959
0.00572182
0.00568253
0.00560196
0.00547858
0.00530951
0.00509095
0.00481828
0.00448581
0.00408558
0.00360482
0.00302052
0.00228855
0.00132392
0.000161661
0.00523074
0.00544911
0.00559783
0.00569039
0.00573445
0.00573488
0.005694
0.00561199
0.00548726
0.00531694
0.0050972
0.00482343
0.00448993
0.00408876
0.00360714
0.00302209
0.00228947
0.00132429
0.000161681
0.00525721
0.00547067
0.00561574
0.00570554
0.00574743
0.00574609
0.00570372
0.0056204
0.00549449
0.00532309
0.00510234
0.00482763
0.00449326
0.0040913
0.00360898
0.00302331
0.00229018
0.00132457
0.000161695
0.00528376
0.00549182
0.00563297
0.00571986
0.00575953
0.00575644
0.00571263
0.00562808
0.00550108
0.00532868
0.00510702
0.00483145
0.00449629
0.0040936
0.00361063
0.00302441
0.00229081
0.00132482
0.000161707
0.0053109
0.00551329
0.00565036
0.00573425
0.00577169
0.00576686
0.00572164
0.00563589
0.00550784
0.00533447
0.00511189
0.00483546
0.00449948
0.00409605
0.0036124
0.00302558
0.00229147
0.00132508
0.00016172
0.00533915
0.00553581
0.00566876
0.00574967
0.00578487
0.00577832
0.0057317
0.00564476
0.00551563
0.00534124
0.00511768
0.0048403
0.0045034
0.00409907
0.00361461
0.00302706
0.00229232
0.00132541
0.000161736
0.00536918
0.00556023
0.00568918
0.00576718
0.00580021
0.00579196
0.00574395
0.00565577
0.00552549
0.00534998
0.00512528
0.00484676
0.0045087
0.00410325
0.0036177
0.00302916
0.00229354
0.00132589
0.00016176
0.00540197
0.00558772
0.00571289
0.00578814
0.0058191
0.00580919
0.00575976
0.00567029
0.00553873
0.00536192
0.00513586
0.00485589
0.00451634
0.00410936
0.0036223
0.00303233
0.00229542
0.00132664
0.000161798
0.00543898
0.00561988
0.00574159
0.0058143
0.00584331
0.0058318
0.00578094
0.00569008
0.00555709
0.00537873
0.00515097
0.00486914
0.00452758
0.0041185
0.0036293
0.00303724
0.00229836
0.00132784
0.00016186
0.00548231
0.00565889
0.0057775
0.00584793
0.00587514
0.0058621
0.00580979
0.00571744
0.00558283
0.00540261
0.00517274
0.00488851
0.00454427
0.00413228
0.00364003
0.00304489
0.00230303
0.00132977
0.00016196
0.00553485
0.00570763
0.00582355
0.00589196
0.00591754
0.00590304
0.00584928
0.00575535
0.0056189
0.00543652
0.00520405
0.00491676
0.00456898
0.00415301
0.00365645
0.0030568
0.00231043
0.00133288
0.000162124
0.00560034
0.0057698
0.00588337
0.00595001
0.00597413
0.00595827
0.0059031
0.00580753
0.0056691
0.00548424
0.00524869
0.00495761
0.00460527
0.00418398
0.00368142
0.00307525
0.00232211
0.00133787
0.000162392
0.00568345
0.00584991
0.00596136
0.00602643
0.00604925
0.00603217
0.00597567
0.00587852
0.00573806
0.00555055
0.00531153
0.00501596
0.00465797
0.00422976
0.00371902
0.0031036
0.00234041
0.00134584
0.000162829
0.00578965
0.00595314
0.00606254
0.00612611
0.00614776
0.00612963
0.00607203
0.00597354
0.00583125
0.00564119
0.00539857
0.00509803
0.00473336
0.00429649
0.00377496
0.00314666
0.00236882
0.00135848
0.000163538
0.00592488
0.00608504
0.00619214
0.00625413
0.00627468
0.00625575
0.00619745
0.00609812
0.00595461
0.00576256
0.00551674
0.00521125
0.00483927
0.00439211
0.00385684
0.00321112
0.00241231
0.00137827
0.000164684
0.00609499
0.00625085
0.00635502
0.00641509
0.00643454
0.00641513
0.00635675
0.00625753
0.00611394
0.00592119
0.00567341
0.00536387
0.00498473
0.00452619
0.00397421
0.00330565
0.0024776
0.00140871
0.000166513
0.00630469
0.00645459
0.00655466
0.00661219
0.00663042
0.00661092
0.0065534
0.00645568
0.0063139
0.00612269
0.00587538
0.00556404
0.00517927
0.00470933
0.00413814
0.0034407
0.00257303
0.00145431
0.000169384
0.00655636
0.0066978
0.00679207
0.00684607
0.00686284
0.00684374
0.00678827
0.00669401
0.00655672
0.00637043
0.00612747
0.00581837
0.00543145
0.00495193
0.00436011
0.0036275
0.0027077
0.00152008
0.000173776
0.0068486
0.00697834
0.0070646
0.00711382
0.00712877
0.0071106
0.00705863
0.00697024
0.0068409
0.00666406
0.00643097
0.00613029
0.00574728
0.00526264
0.00465079
0.00387697
0.00289033
0.00161069
0.000180269
0.00717525
0.0072896
0.00736536
0.00740837
0.00742107
0.0074044
0.00735753
0.00727776
0.00716041
0.00699851
0.00678238
0.00649864
0.00612883
0.00564739
0.00501962
0.00419992
0.0031293
0.00173
0.000189517
0.00752527
0.00762061
0.00768351
0.00771895
0.00772903
0.00771443
0.00767425
0.00760588
0.00750475
0.00736386
0.00717297
0.00691705
0.00657371
0.00610964
0.00547681
0.00461107
0.0034372
0.00188302
0.00020233
0.00788395
0.00795747
0.00800571
0.00803264
0.00803988
0.00802789
0.00799581
0.00794132
0.00786031
0.00774633
0.00758946
0.00737409
0.00707503
0.0066512
0.00603729
0.00513842
0.00384326
0.00208234
0.000220072
0.00823552
0.00828593
0.0083188
0.0083369
0.00834138
0.00833249
0.00830952
0.00827065
0.00821267
0.00813038
0.00801542
0.00785373
0.00762058
0.00727102
0.00672319
0.00583713
0.00441972
0.00236327
0.000246367
0.00856663
0.00859461
0.00861272
0.00862252
0.00862466
0.00861924
0.00860579
0.00858319
0.00854945
0.00850131
0.00843328
0.00833563
0.00818978
0.00795755
0.00755622
0.0068041
0.0053464
0.00283696
0.000298257
0.00886964
0.00887786
0.00888315
0.00888594
0.00888644
0.00888465
0.00888043
0.00887341
0.00886297
0.00884807
0.00882694
0.00879635
0.00874971
0.0086718
0.00852159
0.00816743
0.00713022
0.0040589
0.000465835
)
;

boundaryField
{
    leftWall
    {
        type            nutkWallFunction;
        blending        stepwise;
        value           nonuniform List<scalar> 
50
(
0
0
0
0
0
0
0
0
0
0
0
0
0
0
0
0
0
0
0
0
0
0
0
0
0
0
0
5.36008e-05
1.90826e-05
7.79172e-06
8.10092e-06
9.32046e-06
1.02187e-05
1.08671e-05
1.1345e-05
1.17042e-05
1.19823e-05
1.22097e-05
1.24154e-05
1.26301e-05
1.28913e-05
1.32472e-05
1.37611e-05
1.45137e-05
1.56035e-05
1.71539e-05
1.9355e-05
2.26577e-05
2.90819e-05
4.91693e-05
)
;
    }
    rightWall
    {
        type            nutkWallFunction;
        blending        stepwise;
        value           nonuniform List<scalar> 
50
(
0
3.7422e-06
5.9227e-06
7.46076e-06
8.62905e-06
9.57377e-06
1.03749e-05
1.10773e-05
1.20464e-05
1.29931e-05
1.36647e-05
1.41495e-05
1.45025e-05
1.476e-05
1.49471e-05
1.50819e-05
1.51783e-05
1.52463e-05
1.52938e-05
1.53266e-05
1.53489e-05
1.5364e-05
1.53741e-05
1.53808e-05
1.53852e-05
1.53881e-05
1.53901e-05
1.53915e-05
1.53927e-05
1.53939e-05
1.53954e-05
1.53978e-05
1.54014e-05
1.54075e-05
1.54175e-05
1.54342e-05
1.5462e-05
1.5508e-05
1.55842e-05
1.57098e-05
1.59154e-05
1.62473e-05
1.67723e-05
1.75778e-05
1.87695e-05
2.04739e-05
2.28817e-05
2.64758e-05
3.35286e-05
5.55353e-05
)
;
    }
    lowerWall
    {
        type            nutkWallFunction;
        blending        stepwise;
        value           nonuniform List<scalar> 
62
(
0
0
0
0
0
0
0
0
0
0
0
0
2.16739e-05
0
0
0
0
0
0
0
0
0
0
0
2.07755e-06
4.38704e-06
6.05671e-06
7.48436e-06
8.98327e-06
1.11028e-05
1.5211e-05
1.73741e-05
1.54383e-05
1.56173e-05
1.79886e-05
0
4.42551e-06
7.13383e-06
9.14482e-06
1.08903e-05
1.27266e-05
1.52571e-05
1.98533e-05
0
0
0
0
0
0
0
0
0
0
0
0
0
0
0
0
0
0
0
)
;
    }
    atmosphere
    {
        type            calculated;
        value           uniform 0.009;
    }
    defaultFaces
    {
        type            empty;
    }
}


// ************************************************************************* //
