/*--------------------------------*- C++ -*----------------------------------*\
| =========                 |                                                 |
| \\      /  F ield         | OpenFOAM: The Open Source CFD Toolbox           |
|  \\    /   O peration     | Version:  2406                                  |
|   \\  /    A nd           | Website:  www.openfoam.com                      |
|    \\/     M anipulation  |                                                 |
\*---------------------------------------------------------------------------*/
FoamFile
{
    version     2.0;
    format      ascii;
    arch        "LSB;label=32;scalar=64";
    class       surfaceScalarField;
    location    "0.65";
    object      phi;
}
// * * * * * * * * * * * * * * * * * * * * * * * * * * * * * * * * * * * * * //

dimensions      [0 3 -1 0 0 0 0];

oriented        oriented;

internalField   nonuniform List<scalar> 
4432
(
-3.30567e-304
-1.65175e-304
-6.56169e-304
-7.74836e-304
-9.96582e-304
-1.02541e-303
-1.35831e-303
-1.00963e-303
-1.74845e-303
-6.85137e-304
-2.16647e-303
5.71676e-305
-2.6001e-303
1.3929e-303
-3.01428e-303
3.59103e-303
-3.31837e-303
7.06926e-303
-3.22558e-303
1.25201e-302
-1.58002e-303
2.11832e-302
7.70174e-303
3.49707e-302
1.11678e-302
5.65077e-302
-3.23715e-303
2.1405e-302
-6.69672e-303
4.16952e-303
-4.36465e-303
-1.00639e-303
-2.6223e-303
-1.68266e-303
-1.55296e-303
-1.315e-303
-9.12636e-304
-7.94255e-304
-5.23257e-304
-3.70031e-304
-2.77812e-304
-7.96065e-305
-1.09522e-304
8.42226e-305
1.01836e-304
-1.0232e-303
-3.02764e-304
-2.01159e-303
-1.38996e-303
-3.03284e-303
-1.87198e-303
-4.11786e-303
-1.82832e-303
-5.28395e-303
-1.1636e-303
-6.52704e-303
3.35453e-304
-7.80813e-303
3.00977e-303
-9.02254e-303
7.37302e-303
-9.9232e-303
1.42095e-302
-9.90368e-303
2.47663e-302
-7.14646e-303
4.11812e-302
-1.39826e-303
6.75858e-302
6.78304e-303
1.07276e-301
-7.45405e-303
3.6731e-302
-9.0259e-303
5.94374e-303
-6.0557e-303
-2.42942e-304
-3.88334e-303
-1.38379e-303
-2.43824e-303
-1.2172e-303
-1.51331e-303
-7.61598e-304
-9.21049e-304
-3.38015e-304
-5.3118e-304
-1.95684e-305
-2.4507e-304
1.84427e-304
2.21849e-304
-1.72842e-303
-4.67131e-304
-3.41402e-303
-1.98073e-303
-5.15752e-303
-2.68696e-303
-7.0123e-303
-2.61588e-303
-9.01062e-303
-1.61114e-303
-1.11525e-302
6.43581e-304
-1.33863e-302
4.6439e-303
-1.55687e-302
1.113e-302
-1.73773e-302
2.12128e-302
-1.81214e-302
3.66247e-302
-1.60159e-302
6.02602e-302
-1.4914e-302
9.76077e-302
-3.49916e-304
1.51753e-301
-1.17941e-302
4.80602e-302
-1.0681e-302
7.69474e-303
-7.30582e-303
5.96839e-304
-4.85877e-303
-9.45581e-304
-3.1648e-303
-9.99305e-304
-2.03489e-303
-6.4821e-304
-1.28669e-303
-2.60812e-304
-7.80245e-304
6.0826e-305
-3.94219e-304
2.93798e-304
3.60072e-304
-2.47335e-303
-6.44637e-304
-4.90634e-303
-2.58021e-303
-7.42747e-303
-3.5168e-303
-1.01134e-302
-3.42695e-303
-1.30155e-302
-2.08729e-303
-1.61457e-302
9.18322e-304
-1.94549e-302
6.23158e-303
-2.27913e-302
1.47974e-302
-2.58227e-302
2.80161e-302
-2.79043e-302
4.80292e-302
-2.74824e-302
7.83112e-302
-3.15857e-302
1.25002e-301
-9.07909e-303
1.89707e-301
-1.62003e-302
5.70209e-302
-1.25004e-302
9.54152e-303
-8.61363e-303
1.41713e-303
-5.85336e-303
-5.01126e-304
-3.91348e-303
-7.60092e-304
-2.58686e-303
-5.16796e-304
-1.6884e-303
-1.74991e-304
-1.0686e-303
1.41378e-304
-5.81523e-304
4.01609e-304
5.12784e-304
-3.2818e-303
-8.38116e-304
-6.52917e-303
-3.22193e-303
-9.89878e-303
-4.41131e-303
-1.34922e-302
-4.32161e-303
-1.73836e-302
-2.66005e-303
-2.16045e-302
1.08775e-303
-2.61218e-302
7.69879e-303
-3.07997e-302
1.83034e-302
-3.5338e-302
3.45506e-302
-3.9189e-302
5.89161e-302
-4.10026e-302
9.52847e-302
-5.04756e-302
1.50033e-301
-1.90574e-302
2.23204e-301
-2.09603e-302
6.50533e-302
-1.46612e-302
1.14138e-302
-1.01044e-302
2.1995e-303
-6.95789e-303
-8.37022e-305
-4.74254e-303
-5.31533e-304
-3.20608e-303
-3.91266e-304
-2.15052e-303
-9.8259e-305
-1.41461e-303
2.05669e-304
-8.21887e-304
4.87014e-304
6.50826e-304
-4.17551e-303
-1.05508e-303
-8.32198e-303
-3.93649e-303
-1.26271e-302
-5.41818e-303
-1.7219e-302
-5.36069e-303
-2.21983e-302
-3.39914e-303
-2.76227e-302
1.07602e-303
-3.34857e-302
8.96862e-303
-3.9685e-302
2.15727e-302
-4.59755e-302
4.07477e-302
-5.19168e-302
6.9226e-302
-5.62794e-302
1.11162e-301
-7.11394e-302
1.73015e-301
-3.01697e-302
2.53962e-301
-2.61951e-302
7.26733e-302
-1.71895e-302
1.32896e-302
-1.18191e-302
2.95311e-303
-8.21074e-303
3.04275e-304
-5.67976e-303
-3.22611e-304
-3.91079e-303
-2.81431e-304
-2.68507e-303
-4.0801e-305
-1.82897e-303
2.39033e-304
-1.13189e-303
5.20704e-304
7.05438e-304
-5.17518e-303
-1.30724e-303
-1.03238e-302
-4.75365e-303
-1.56683e-302
-6.58665e-303
-2.13647e-302
-6.60868e-303
-2.75433e-302
-4.38089e-303
-3.42925e-302
8.00315e-304
-4.16409e-302
9.95586e-303
-4.95309e-302
2.45246e-302
-5.7784e-302
4.65367e-302
-6.60655e-302
7.89098e-302
-7.32121e-302
1.25951e-301
-9.3485e-302
1.94152e-301
-4.24417e-302
2.82618e-301
-3.19434e-302
7.99342e-302
-2.00686e-302
1.51662e-302
-1.37689e-302
3.69751e-303
-9.62991e-303
6.72984e-304
-6.74064e-303
-1.3175e-304
-4.71115e-303
-1.89878e-304
-3.29683e-303
-7.84187e-306
-2.31392e-303
2.30074e-304
-1.52999e-303
4.64725e-304
5.42633e-304
-6.30079e-303
-1.60642e-303
-1.25739e-302
-5.69381e-303
-1.90792e-302
-7.95439e-303
-2.60015e-302
-8.12077e-303
-3.3503e-302
-5.67678e-303
-4.17069e-302
1.74252e-304
-5.06815e-302
1.0561e-302
-6.04207e-302
2.70493e-302
-7.08183e-302
5.18019e-302
-8.16443e-302
8.78582e-302
-9.16901e-302
1.39571e-301
-1.17768e-301
2.1328e-301
-5.55996e-302
3.07475e-301
-3.81877e-302
8.65411e-302
-2.32488e-302
1.70476e-302
-1.59351e-302
4.46089e-303
-1.12101e-302
1.04434e-303
-7.92342e-303
5.43504e-305
-5.60372e-303
-1.09038e-304
-3.97642e-303
4.71369e-306
-2.8489e-303
1.80319e-304
-2.03091e-303
3.17611e-304
2.23853e-304
-1.63174e-307
-8.7674e-307
-2.17188e-307
-3.81094e-306
-1.58088e-307
-3.21608e-306
-1.63822e-307
-1.75176e-306
-1.57012e-307
-7.59345e-307
-1.23761e-307
-2.76971e-307
-8.33202e-308
-8.19787e-308
-4.99613e-308
-1.44729e-308
-2.74417e-308
4.22759e-309
-1.40429e-308
6.77279e-309
-6.75918e-309
5.15305e-309
-3.07275e-309
3.17866e-309
-1.31892e-309
1.7531e-309
-5.31759e-310
8.92672e-310
-1.98907e-310
4.23858e-310
-6.72422e-311
1.87207e-310
-1.93038e-311
7.54829e-311
-3.85835e-312
2.55904e-311
4.28881e-312
-3.37145e-307
-2.53262e-306
-6.09256e-307
-7.51501e-306
-5.92307e-307
-5.72511e-306
-5.57535e-307
-2.99865e-306
-4.58569e-307
-1.26742e-306
-3.28987e-307
-4.44283e-307
-2.11198e-307
-1.1698e-307
-1.24259e-307
-7.86353e-309
-6.81532e-308
1.85922e-308
-3.52279e-308
1.87008e-308
-1.72671e-308
1.30036e-308
-8.04589e-309
7.77534e-309
-3.56102e-309
4.24437e-309
-1.48986e-309
2.16336e-309
-5.82935e-310
1.03767e-309
-2.08539e-310
4.67939e-310
-6.46233e-311
1.95933e-310
-1.43266e-311
7.16703e-311
1.46393e-311
-6.65034e-307
-6.14497e-306
-1.29784e-306
-1.32688e-305
-1.33988e-306
-9.09015e-306
-1.19063e-306
-4.51905e-306
-9.11355e-307
-1.84621e-306
-6.20479e-307
-6.20734e-307
-3.85825e-307
-1.44969e-307
-2.233e-307
7.92077e-309
-1.21806e-307
4.04047e-308
-6.31133e-308
3.57655e-308
-3.11961e-308
2.40877e-308
-1.47308e-308
1.42819e-308
-6.63645e-309
7.8086e-309
-2.83946e-309
4.01168e-309
-1.14262e-309
1.95089e-309
-4.23832e-310
8.9866e-310
-1.3808e-310
3.89195e-310
-3.30166e-311
1.51211e-310
3.57629e-311
-1.4725e-306
-1.41787e-305
-2.66427e-306
-2.26535e-305
-2.7063e-306
-1.38993e-305
-2.26637e-306
-6.52199e-306
-1.64198e-306
-2.56914e-306
-1.07419e-306
-8.30139e-307
-6.51162e-307
-1.71749e-307
-3.71602e-307
3.30554e-308
-2.01588e-307
7.13222e-308
-1.04551e-307
5.95824e-308
-5.19892e-308
3.95947e-308
-2.4801e-308
2.347e-308
-1.13311e-308
1.29087e-308
-4.93592e-309
6.70017e-309
-2.03167e-309
3.30594e-309
-7.75915e-310
1.55401e-309
-2.63143e-310
6.93475e-310
-6.68942e-311
2.83302e-310
7.53381e-311
-3.51432e-306
-3.20127e-305
-5.38653e-306
-3.75223e-305
-5.17661e-306
-2.05768e-305
-4.07107e-306
-9.11838e-306
-2.8118e-306
-3.47425e-306
-1.78041e-306
-1.08634e-306
-1.05751e-306
-2.01231e-307
-5.96882e-307
6.75428e-308
-3.22509e-307
1.12551e-307
-1.67494e-307
9.14508e-308
-8.37571e-308
6.05532e-308
-4.03244e-308
3.60487e-308
-1.86541e-308
1.99941e-308
-8.25511e-309
1.04968e-308
-3.46549e-309
5.25559e-309
-1.35732e-309
2.51819e-309
-4.76449e-310
1.15428e-309
-1.27627e-310
4.922e-310
1.44857e-310
-8.69285e-306
-7.08039e-305
-1.07288e-305
-5.96815e-305
-9.50305e-306
-2.93217e-305
-7.00111e-306
-1.23463e-305
-4.63078e-306
-4.58397e-306
-2.85308e-306
-1.40129e-306
-1.66763e-306
-2.37832e-307
-9.33737e-307
1.10845e-307
-5.03451e-307
1.65029e-307
-2.62079e-307
1.32591e-307
-1.3183e-307
8.80032e-308
-6.40347e-308
5.27679e-308
-2.99689e-308
2.95553e-308
-1.34552e-308
1.57021e-308
-5.74984e-309
7.97482e-309
-2.30333e-309
3.88938e-309
-8.33596e-310
1.82521e-309
-2.33995e-310
8.0614e-310
2.58196e-310
-2.16787e-305
-1.57917e-304
-2.10244e-305
-8.92687e-305
-1.6801e-305
-3.97969e-305
-1.15891e-305
-1.61419e-305
-7.37405e-306
-5.906e-306
-4.4423e-306
-1.78748e-306
-2.56537e-306
-2.88503e-307
-1.42911e-306
1.60343e-307
-7.70455e-307
2.28331e-307
-4.02517e-307
1.83415e-307
-2.03799e-307
1.22533e-307
-9.98899e-308
7.41356e-308
-4.72815e-308
4.19574e-308
-2.15206e-308
2.2552e-308
-9.34961e-309
1.16056e-308
-3.82311e-309
5.74803e-309
-1.42196e-309
2.749e-309
-4.16348e-310
1.24508e-309
4.23615e-310
-5.24574e-305
-2.54096e-304
-4.01985e-305
-1.18717e-304
-2.83066e-305
-5.04715e-305
-1.83606e-305
-2.01559e-305
-1.13076e-305
-7.34301e-306
-6.69452e-306
-2.21417e-306
-3.8337e-306
-3.43033e-307
-2.13015e-306
2.19428e-307
-1.15005e-306
3.03558e-307
-6.03484e-307
2.44278e-307
-3.07617e-307
1.64261e-307
-1.52094e-307
1.00196e-307
-7.2753e-308
5.72191e-308
-3.35271e-308
3.1054e-308
-1.47805e-308
1.61487e-308
-6.15277e-309
8.09062e-309
-2.3427e-309
3.91872e-309
-7.13048e-310
1.79891e-309
6.2742e-310
-1.75334e-302
-2.38427e-303
-3.49972e-302
-8.06061e-303
-5.30726e-302
-1.14987e-302
-7.22523e-302
-1.2261e-302
-9.29939e-302
-9.66219e-303
-1.15683e-301
-2.72409e-303
-1.4061e-301
9.87991e-303
-1.67942e-301
2.99152e-302
-1.97701e-301
5.97188e-302
-2.29742e-301
1.024e-301
-2.59103e-301
1.62129e-301
-3.3951e-301
2.44395e-301
-1.63495e-301
3.45041e-301
-1.03135e-301
9.74839e-302
-6.06541e-302
2.06875e-302
-4.15488e-302
6.03165e-303
-2.9436e-302
1.8272e-303
-2.10359e-302
4.47432e-304
-1.50615e-302
5.2283e-305
-1.08071e-302
6.58802e-306
-7.7967e-303
4.10441e-305
-5.64955e-303
7.54063e-306
-2.21701e-304
-3.64488e-303
-2.34698e-302
-3.38038e-303
-4.68529e-302
-1.10544e-302
-7.1034e-302
-1.61278e-302
-9.66645e-302
-1.7992e-302
-1.24378e-301
-1.57987e-302
-1.54751e-301
-8.41007e-303
-1.8829e-301
5.65314e-303
-2.25413e-301
2.82796e-302
-2.66446e-301
6.18596e-302
-3.11614e-301
1.09397e-301
-3.54785e-301
1.74652e-301
-4.64667e-301
2.62076e-301
-2.33538e-301
3.65682e-301
-1.34754e-301
1.04278e-301
-7.66213e-302
2.33658e-302
-5.21625e-302
7.25529e-303
-3.70073e-302
2.454e-303
-2.65703e-302
7.6144e-304
-1.91069e-302
1.71501e-304
-1.36987e-302
-8.87643e-306
-9.74006e-303
-7.21991e-305
-6.75758e-303
-1.5877e-304
-3.28609e-304
-4.29714e-303
-2.97021e-302
-4.69833e-303
-5.92556e-302
-1.5019e-302
-8.97984e-302
-2.23924e-302
-1.22159e-301
-2.60456e-302
-1.5716e-301
-2.49745e-302
-1.95577e-301
-1.78959e-302
-2.38126e-301
-3.20792e-303
-2.85448e-301
2.10569e-302
-3.38104e-301
5.72796e-302
-3.96567e-301
1.08295e-301
-4.53783e-301
1.77418e-301
-5.91414e-301
2.68193e-301
-3.05716e-301
3.73421e-301
-1.67823e-301
1.07592e-301
-9.33708e-302
2.4863e-302
-6.30489e-302
7.9159e-303
-4.46024e-302
2.7744e-303
-3.20023e-302
9.04537e-304
-2.29912e-302
2.04098e-304
-1.64158e-302
-4.82046e-305
-1.15458e-302
-1.49217e-304
-7.85598e-303
-2.26225e-304
-3.11751e-304
-4.95996e-303
-3.62574e-302
-6.46075e-303
-7.22372e-302
-2.03246e-302
-1.09383e-301
-3.08913e-302
-1.48714e-301
-3.72238e-302
-1.91254e-301
-3.81618e-302
-2.37978e-301
-3.2282e-302
-2.89794e-301
-1.78699e-302
-3.47535e-301
7.10474e-303
-4.11938e-301
4.50047e-302
-4.83635e-301
9.85117e-302
-5.54517e-301
1.70588e-301
-7.19224e-301
2.64131e-301
-3.79163e-301
3.71216e-301
-2.02244e-301
1.08101e-301
-1.10947e-301
2.51783e-302
-7.43157e-302
7.93021e-303
-5.23411e-302
2.70908e-303
-3.74522e-302
8.18405e-304
-2.68384e-302
1.12384e-304
-1.90916e-302
-1.36302e-304
-1.33494e-302
-2.1909e-304
-9.02016e-303
-2.5398e-304
-2.70554e-304
-5.69439e-303
-4.31501e-302
-8.80578e-303
-8.58117e-302
-2.73801e-302
-1.29791e-301
-4.22903e-302
-1.76314e-301
-5.24233e-302
-2.26615e-301
-5.64533e-302
-2.8187e-301
-5.28088e-302
-3.43174e-301
-3.96583e-302
-4.11522e-301
-1.48969e-302
-4.87795e-301
2.38463e-302
-5.72734e-301
7.91689e-302
-6.57125e-301
1.53825e-301
-8.48633e-301
2.50346e-301
-4.54309e-301
3.60398e-301
-2.38066e-301
1.06034e-301
-1.29347e-301
2.42606e-302
-8.60106e-302
7.21447e-303
-6.0293e-302
2.181e-303
-4.29978e-302
4.40805e-304
-3.07258e-302
-1.52557e-304
-2.17946e-302
-3.14898e-304
-1.51932e-302
-3.25015e-304
-1.02432e-302
-2.91745e-304
-2.45109e-304
-6.47768e-303
-5.03842e-302
-1.18914e-302
-9.99748e-302
-3.66504e-302
-1.51009e-301
-5.73469e-302
-2.04938e-301
-7.26684e-302
-2.63225e-301
-8.11004e-302
-3.27258e-301
-8.09067e-302
-3.98314e-301
-7.01185e-302
-4.77547e-301
-4.65311e-302
-5.65959e-301
-7.71379e-303
-6.64384e-301
4.89385e-302
-7.62483e-301
1.26135e-301
-9.80989e-301
2.263e-301
-5.32109e-301
3.40908e-301
-2.7547e-301
1.01171e-301
-1.48585e-301
2.19218e-302
-9.81554e-302
5.62524e-303
-6.84921e-302
1.08134e-303
-4.86788e-302
-3.11006e-304
-3.46911e-302
-6.54903e-304
-2.45516e-302
-6.36439e-304
-1.70848e-302
-5.12643e-304
-1.15102e-302
-3.77998e-304
-2.56922e-304
-7.29098e-303
-5.79444e-302
-1.59018e-302
-1.14685e-301
-4.86732e-302
-1.72975e-301
-7.69389e-302
-2.34521e-301
-9.91451e-302
-3.01044e-301
-1.13556e-301
-3.74159e-301
-1.18243e-301
-4.55342e-301
-1.11076e-301
-5.45902e-301
-8.97154e-302
-6.46961e-301
-5.16158e-302
-7.59443e-301
5.9369e-303
-8.71879e-301
8.5764e-302
-1.11809e-300
1.90425e-301
-6.13829e-301
3.11369e-301
-3.14747e-301
9.28154e-302
-1.68695e-301
1.77897e-302
-1.10761e-301
2.92572e-303
-7.69498e-302
-7.51087e-304
-5.45087e-302
-1.55038e-303
-3.87463e-302
-1.47667e-303
-2.7368e-302
-1.1622e-303
-1.902e-302
-8.2852e-304
-1.28092e-302
-5.45845e-304
-3.23296e-304
-8.12318e-303
-6.57791e-302
-2.10557e-302
-1.29829e-301
-6.40808e-302
-1.95529e-301
-1.02095e-301
-2.64884e-301
-1.33242e-301
-3.39916e-301
-1.55517e-301
-4.22498e-301
-1.66768e-301
-5.14324e-301
-1.64681e-301
-6.16869e-301
-1.46756e-301
-7.3138e-301
-1.10279e-301
-8.5887e-301
-5.23401e-302
-9.86742e-301
3.01436e-302
-1.26188e-300
1.40081e-301
-7.00869e-301
2.6907e-301
-3.56242e-301
7.97448e-302
-1.89723e-301
1.12768e-302
-1.23827e-301
-1.23228e-303
-8.56582e-302
-3.539e-303
-6.04809e-302
-3.42455e-303
-4.28856e-302
-2.71747e-303
-3.02369e-302
-1.96097e-303
-2.09893e-302
-1.32026e-303
-1.413e-302
-8.26478e-304
-4.61212e-304
-8.96668e-303
-7.3772e-302
-2.76174e-302
-1.45161e-301
-8.36284e-302
-2.18323e-301
-1.34038e-301
-2.95625e-301
-1.76597e-301
-3.79444e-301
-2.08972e-301
-4.71957e-301
-2.28757e-301
-5.75098e-301
-2.33448e-301
-6.90527e-301
-2.20373e-301
-8.1962e-301
-1.86627e-301
-9.63481e-301
-1.29033e-301
-1.10839e-300
-4.41288e-302
-1.41426e-300
7.1548e-302
-7.94596e-301
2.09916e-301
-4.00292e-301
6.01502e-302
-2.11694e-301
1.55726e-303
-1.3733e-301
-7.31385e-303
-9.45879e-302
-7.56494e-303
-6.65706e-302
-6.11014e-303
-4.70891e-302
-4.48976e-303
-3.31421e-302
-3.10545e-303
-2.29794e-302
-2.03506e-303
-1.54618e-302
-1.24952e-303
-6.87445e-304
-9.81449e-303
-8.17037e-302
-3.59144e-302
-1.60231e-301
-1.08237e-301
-2.40718e-301
-1.74244e-301
-3.25983e-301
-2.31163e-301
-4.18834e-301
-2.76256e-301
-5.218e-301
-3.06851e-301
-6.37083e-301
-3.2027e-301
-7.66538e-301
-3.13706e-301
-9.11674e-301
-2.84068e-301
-1.07369e-300
-2.27892e-301
-1.23773e-300
-1.41248e-301
-1.57667e-300
-1.9961e-302
-8.96115e-301
1.28406e-301
-4.47138e-301
3.15802e-302
-2.34572e-301
-1.24388e-302
-1.51206e-301
-1.58886e-302
-1.03682e-301
-1.31548e-302
-7.27332e-302
-9.79834e-303
-5.13239e-302
-6.90754e-303
-3.6059e-302
-4.66484e-303
-2.49721e-302
-3.01541e-303
-1.67916e-302
-1.84082e-303
-1.01694e-303
-1.06584e-302
-8.91934e-302
-4.63657e-302
-1.74268e-301
-1.39058e-301
-2.61627e-301
-2.24528e-301
-3.54664e-301
-2.99289e-301
-4.56703e-301
-3.60119e-301
-5.70673e-301
-4.0409e-301
-6.9906e-301
-4.28431e-301
-8.43913e-301
-4.30279e-301
-1.00687e-300
-4.06439e-301
-1.1892e-300
-3.53181e-301
-1.37495e-300
-2.66095e-301
-1.74983e-300
-1.40183e-301
-1.006e-300
1.76942e-302
-4.96816e-301
-9.07094e-303
-2.58224e-301
-3.1993e-302
-1.65333e-301
-2.75872e-302
-1.12848e-301
-2.06389e-302
-7.89023e-302
-1.46655e-302
-5.55422e-302
-1.00664e-302
-3.89535e-302
-6.69219e-303
-2.69428e-302
-4.29173e-303
-1.81027e-302
-2.61825e-303
-1.46018e-303
-1.14875e-302
-9.56149e-302
-5.95323e-302
-1.86018e-301
-1.77582e-301
-2.79306e-301
-2.87179e-301
-3.79605e-301
-3.83849e-301
-4.9085e-301
-4.63806e-301
-6.16383e-301
-5.23952e-301
-7.58957e-301
-5.61578e-301
-9.20784e-301
-5.73944e-301
-1.1036e-300
-5.57888e-301
-1.30876e-300
-5.09529e-301
-1.51916e-300
-4.24033e-301
-1.93326e-300
-2.95579e-301
-1.12398e-300
-1.30175e-301
-5.49012e-301
-6.54681e-302
-2.82363e-301
-5.84889e-302
-1.79513e-301
-4.30038e-302
-1.21951e-301
-3.02797e-302
-8.49846e-302
-2.0825e-302
-5.96784e-302
-1.40137e-302
-4.17785e-302
-9.20706e-303
-2.88581e-302
-5.87255e-303
-1.93716e-302
-3.58621e-303
-2.02008e-303
-1.22866e-302
-9.99525e-302
-7.62163e-302
-1.93486e-301
-2.25823e-301
-2.91047e-301
-3.65166e-301
-3.97686e-301
-4.88403e-301
-5.17995e-301
-5.9116e-301
-6.55675e-301
-6.70372e-301
-8.1365e-301
-7.23686e-301
-9.94208e-301
-7.48768e-301
-1.19913e-300
-7.42723e-301
-1.42982e-300
-7.01699e-301
-1.66807e-300
-6.20606e-301
-2.12489e-300
-4.92936e-301
-1.24857e-300
-3.23806e-301
-6.0291e-301
-1.4154e-301
-3.06507e-301
-9.31609e-302
-1.93453e-301
-6.25141e-302
-1.30802e-301
-4.21554e-302
-9.08515e-302
-2.82586e-302
-6.36415e-302
-1.87104e-302
-4.44683e-302
-1.21749e-302
-3.06705e-302
-7.73363e-303
-2.05651e-302
-4.72983e-303
-2.68879e-303
-1.30337e-302
-1.00542e-301
-9.76668e-302
-1.93491e-301
-2.86635e-301
-2.92706e-301
-4.62457e-301
-4.04325e-301
-6.17431e-301
-5.33495e-301
-7.46723e-301
-6.84041e-301
-8.47741e-301
-8.58829e-301
-9.18974e-301
-1.06005e-300
-9.58901e-301
-1.28945e-300
-9.65204e-301
-1.54843e-300
-9.34309e-301
-1.81771e-300
-8.61128e-301
-2.3207e-300
-7.38807e-301
-1.37671e-300
-5.71705e-301
-6.56993e-301
-2.40828e-301
-3.29911e-301
-1.36602e-301
-2.06734e-301
-8.59756e-302
-1.39135e-301
-5.59965e-302
-9.632e-302
-3.6734e-302
-6.72998e-302
-2.3991e-302
-4.69268e-302
-1.5488e-302
-3.23106e-302
-9.80856e-303
-2.16348e-302
-6.01017e-303
-3.44504e-303
-1.36972e-302
-9.45186e-302
-1.26033e-301
-1.80831e-301
-3.64272e-301
-2.77942e-301
-5.84491e-301
-3.92954e-301
-7.76591e-301
-5.31053e-301
-9.358e-301
-6.95617e-301
-1.06083e-300
-8.89004e-301
-1.15175e-300
-1.11305e-300
-1.20838e-300
-1.36932e-300
-1.22931e-300
-1.65921e-300
-1.21151e-300
-1.96237e-300
-1.15021e-300
-2.51455e-300
-1.03878e-300
-1.50351e-300
-8.81242e-301
-7.08738e-301
-3.65164e-301
-3.51457e-301
-1.87876e-301
-2.18743e-301
-1.12287e-301
-1.46554e-301
-7.09925e-302
-1.01113e-301
-4.57261e-302
-7.0453e-302
-2.95335e-302
-4.90094e-302
-1.89539e-302
-3.36762e-302
-1.19841e-302
-2.2511e-302
-7.36178e-303
-4.25263e-303
-1.42322e-302
-7.65209e-302
-1.65284e-301
-1.46639e-301
-4.65342e-301
-2.36966e-301
-7.38796e-301
-3.54345e-301
-9.72922e-301
-5.02521e-301
-1.16438e-300
-6.83258e-301
-1.31459e-300
-8.97718e-301
-1.42619e-300
-1.14705e-300
-1.50091e-300
-1.43255e-300
-1.53853e-300
-1.75559e-300
-1.53672e-300
-2.09484e-300
-1.49131e-300
-2.69837e-300
-1.39663e-300
-1.62173e-300
-1.25735e-300
-7.53902e-301
-5.11873e-301
-3.6936e-301
-2.42992e-301
-2.28508e-301
-1.38848e-301
-1.52426e-301
-8.56354e-302
-1.0479e-301
-5.43859e-302
-7.27917e-302
-3.48596e-302
-5.05018e-302
-2.23002e-302
-3.46223e-302
-1.41034e-302
-2.30988e-302
-8.69413e-303
-5.06059e-303
-1.45798e-302
-3.5145e-302
-2.22677e-301
-7.49637e-302
-6.00095e-301
-1.54577e-301
-9.3545e-301
-2.75963e-301
-1.21466e-300
-4.38022e-301
-1.43869e-300
-6.39006e-301
-1.6137e-300
-8.78101e-301
-1.74596e-300
-1.15561e-300
-1.83959e-300
-1.47261e-300
-1.89564e-300
-1.83051e-300
-1.9124e-300
-2.20703e-300
-1.88634e-300
-2.86272e-300
-1.81355e-300
-1.72063e-300
-1.70098e-300
-7.84432e-301
-6.66757e-301
-3.80534e-301
-2.92538e-301
-2.34368e-301
-1.61138e-301
-1.55696e-301
-9.77456e-302
-1.06656e-301
-6.16153e-302
-7.38596e-302
-3.9386e-302
-5.11082e-302
-2.52019e-302
-3.49605e-302
-1.5979e-302
-2.32808e-302
-9.89745e-303
-5.80563e-303
-1.467e-302
5.79751e-302
-2.80965e-301
6.42401e-302
-7.571e-301
-7.53044e-303
-1.16049e-300
-1.41913e-301
-1.48405e-300
-3.26891e-301
-1.7381e-300
-5.55173e-301
-1.93565e-300
-8.23819e-301
-2.08752e-300
-1.13279e-300
-2.20036e-300
-1.48347e-300
-2.27635e-300
-1.87747e-300
-2.31389e-300
-2.29121e-300
-2.30943e-300
-2.99836e-300
-2.25643e-300
-1.78171e-300
-2.20639e-300
-7.8244e-301
-7.80116e-301
-3.79546e-301
-3.18298e-301
-2.33492e-301
-1.73063e-301
-1.547e-301
-1.04925e-301
-1.05717e-301
-6.63022e-302
-7.30646e-302
-4.25294e-302
-5.04772e-302
-2.73284e-302
-3.44829e-302
-1.74151e-302
-2.29357e-302
-1.08536e-302
-6.41759e-303
-1.44342e-302
2.83053e-301
-6.30726e-301
3.27497e-301
-1.23869e-300
2.35943e-301
-1.70981e-300
6.39512e-302
-2.07359e-300
-1.60919e-301
-2.3538e-300
-4.26724e-301
-2.57133e-300
-7.30545e-301
-2.74168e-300
-1.07409e-300
-2.87396e-300
-1.4605e-300
-2.9711e-300
-1.89199e-300
-3.03108e-300
-2.3378e-300
-3.04958e-300
-3.10082e-300
-3.02784e-300
-1.7733e-300
-1.87763e-300
-7.10392e-301
-6.79202e-301
-3.57554e-301
-3.00966e-301
-2.21291e-301
-1.70672e-301
-1.47183e-301
-1.0571e-301
-1.00838e-301
-6.76861e-302
-6.98219e-302
-4.38413e-302
-4.83006e-302
-2.84027e-302
-3.30243e-302
-1.82374e-302
-2.19741e-302
-1.1453e-302
-6.82895e-303
-1.38255e-302
8.38043e-301
-9.05414e-302
7.6729e-301
-5.78015e-301
5.82937e-301
-9.22125e-301
3.34853e-301
-1.17591e-300
5.06943e-302
-1.36707e-300
-2.6102e-301
-1.51348e-300
-6.02627e-301
-1.62716e-300
-9.81264e-301
-1.71463e-300
-1.40442e-300
-1.777e-300
-1.87605e-300
-1.80942e-300
-2.39187e-300
-1.79837e-300
-1.99846e-300
-1.72179e-300
-9.72635e-301
-9.37803e-301
-4.82201e-301
-4.5264e-301
-2.92923e-301
-2.53101e-301
-1.92337e-301
-1.5585e-301
-1.31453e-301
-1.00193e-301
-9.14286e-302
-6.55638e-302
-6.39106e-302
-4.31144e-302
-4.44926e-302
-2.82642e-302
-3.05517e-302
-1.83314e-302
-2.03849e-302
-1.16171e-302
-6.98827e-303
-1.28414e-302
4.58534e-301
-3.24655e-301
3.34657e-301
-5.14637e-301
2.23902e-301
-6.23111e-301
1.08948e-301
-7.0101e-301
-8.73883e-303
-7.58898e-301
-1.32475e-301
-8.01319e-301
-2.66466e-301
-8.31236e-301
-4.14006e-301
-8.50025e-301
-5.73968e-301
-8.56803e-301
-7.32627e-301
-8.46654e-301
-8.37329e-301
-8.0566e-301
-7.14177e-301
-7.04816e-301
-4.675e-301
-4.73609e-301
-3.15087e-301
-3.08936e-301
-2.19365e-301
-2.0169e-301
-1.54898e-301
-1.3392e-301
-1.10266e-301
-8.97949e-302
-7.86395e-302
-6.03679e-302
-5.58834e-302
-4.0471e-302
-3.93453e-302
-2.69295e-302
-2.72293e-302
-1.76801e-302
-1.8263e-302
-1.13218e-302
-6.87395e-303
-1.15371e-302
6.81824e-302
-2.25964e-301
3.66396e-302
-3.02522e-301
1.19421e-302
-3.37841e-301
-1.94434e-302
-3.67561e-301
-5.71955e-302
-3.91368e-301
-1.01313e-301
-4.0867e-301
-1.51731e-301
-4.19637e-301
-2.07336e-301
-4.24568e-301
-2.64213e-301
-4.23353e-301
-3.13046e-301
-4.14857e-301
-3.35647e-301
-3.96155e-301
-3.13323e-301
-3.61538e-301
-2.60546e-301
-2.91751e-301
-2.05703e-301
-2.17151e-301
-1.57662e-301
-1.55721e-301
-1.18534e-301
-1.09865e-301
-8.79624e-302
-7.67177e-302
-6.45469e-302
-5.30807e-302
-4.68004e-302
-3.63594e-302
-3.34299e-302
-2.46052e-302
-2.3377e-302
-1.6377e-302
-1.57915e-302
-1.06073e-302
-6.50138e-303
-1.00163e-302
-3.4468e-302
-1.30537e-301
-3.24031e-302
-1.86029e-301
-3.44454e-302
-2.12199e-301
-4.31471e-302
-2.31385e-301
-5.76315e-302
-2.45845e-301
-7.70147e-302
-2.55934e-301
-1.00372e-301
-2.61931e-301
-1.26191e-301
-2.64134e-301
-1.51704e-301
-2.62658e-301
-1.72374e-301
-2.57095e-301
-1.82194e-301
-2.4605e-301
-1.7744e-301
-2.26371e-301
-1.60358e-301
-1.93428e-301
-1.36615e-301
-1.54458e-301
-1.11319e-301
-1.17752e-301
-8.77883e-302
-8.70999e-302
-6.75562e-302
-6.30478e-302
-5.09519e-302
-4.48458e-302
-3.77184e-302
-3.13946e-302
-2.73689e-302
-2.16211e-302
-1.9364e-302
-1.45988e-302
-1.31891e-302
-9.56744e-303
-5.91903e-303
-8.40544e-303
-4.39447e-302
-7.27021e-302
-4.22399e-302
-1.15299e-301
-4.09479e-302
-1.3774e-301
-4.31938e-302
-1.52931e-301
-4.91861e-302
-1.6363e-301
-5.8421e-302
-1.70783e-301
-7.01397e-302
-1.74901e-301
-8.32138e-302
-1.7634e-301
-9.59678e-302
-1.75259e-301
-1.0617e-301
-1.71458e-301
-1.11452e-301
-1.64146e-301
-1.10442e-301
-1.51836e-301
-1.03349e-301
-1.33193e-301
-9.17076e-302
-1.10607e-301
-7.77617e-302
-8.77997e-302
-6.35402e-302
-6.73159e-302
-5.03802e-302
-5.02179e-302
-3.89379e-302
-3.66211e-302
-2.93966e-302
-2.61703e-302
-2.16647e-302
-1.83339e-302
-1.55131e-302
-1.25562e-302
-1.06577e-302
-8.32476e-303
-5.1959e-303
-6.82547e-303
-3.54289e-302
-4.09141e-302
-3.63203e-302
-7.14599e-302
-3.5719e-302
-8.9636e-302
-3.64002e-302
-1.02063e-301
-3.90679e-302
-1.10659e-301
-4.36335e-302
-1.16328e-301
-4.96756e-302
-1.19611e-301
-5.65056e-302
-1.20862e-301
-6.31731e-302
-1.20247e-301
-6.85415e-302
-1.17672e-301
-7.15114e-302
-1.1271e-301
-7.13692e-302
-1.04681e-301
-6.79713e-302
-9.32042e-302
-6.17967e-302
-7.92913e-302
-5.38287e-302
-6.47104e-302
-4.51612e-302
-5.0976e-302
-3.66797e-302
-3.89758e-302
-2.89492e-302
-2.90433e-302
-2.22457e-302
-2.11453e-302
-1.66351e-302
-1.50515e-302
-1.20499e-302
-1.04477e-302
-8.34837e-303
-7.00319e-303
-4.4062e-303
-5.37115e-303
-2.52867e-302
-2.33466e-302
-2.7332e-302
-4.4266e-302
-2.7627e-302
-5.80739e-302
-2.81203e-302
-6.79349e-302
-2.94977e-302
-7.48804e-302
-3.18632e-302
-7.95249e-302
-3.50418e-302
-8.22968e-302
-3.8666e-302
-8.34891e-302
-4.22226e-302
-8.3251e-302
-4.51182e-302
-8.15565e-302
-4.67858e-302
-7.81977e-302
-4.68117e-302
-7.28835e-302
-4.50282e-302
-6.55346e-302
-4.15811e-302
-5.66589e-302
-3.69101e-302
-4.71606e-302
-3.15892e-302
-3.79256e-302
-2.61552e-302
-2.958e-302
-2.10097e-302
-2.24488e-302
-1.63968e-302
-1.66141e-302
-1.24238e-302
-1.19973e-302
-9.09595e-303
-8.43087e-303
-6.35131e-303
-5.70827e-303
-3.61661e-303
-4.10257e-303
-1.70262e-302
-1.34602e-302
-1.92099e-302
-2.73855e-302
-1.99552e-302
-3.73868e-302
-2.05081e-302
-4.49024e-302
-2.13722e-302
-5.03771e-302
-2.26893e-302
-5.41446e-302
-2.44128e-302
-5.6484e-302
-2.63678e-302
-5.76048e-302
-2.82898e-302
-5.76255e-302
-2.98669e-302
-5.65571e-302
-3.07924e-302
-5.43139e-302
-3.08211e-302
-5.07873e-302
-2.98232e-302
-4.5995e-302
-2.78317e-302
-4.02247e-302
-2.50454e-302
-3.39708e-302
-2.17635e-302
-2.77566e-302
-1.82998e-302
-2.19982e-302
-1.4917e-302
-1.69525e-302
-1.17982e-302
-1.27249e-302
-9.04407e-303
-9.30613e-303
-6.68544e-303
-6.61204e-303
-4.701e-303
-4.51689e-303
-2.87844e-303
-3.0462e-303
-1.10448e-302
-7.81054e-303
-1.29162e-302
-1.69015e-302
-1.37539e-302
-2.38953e-302
-1.43226e-302
-2.94145e-302
-1.49481e-302
-3.35912e-302
-1.57469e-302
-3.65652e-302
-1.67237e-302
-3.84893e-302
-1.78041e-302
-3.94953e-302
-1.8858e-302
-3.96674e-302
-1.97232e-302
-3.90303e-302
-2.02313e-302
-3.75601e-302
-2.02381e-302
-3.52301e-302
-1.96548e-302
-3.2085e-302
-1.84783e-302
-2.83017e-302
-1.67982e-302
-2.41656e-302
-1.47703e-302
-1.99918e-302
-1.25747e-302
-1.60504e-302
-1.0376e-302
-1.25273e-302
-8.30058e-303
-9.5172e-303
-6.42773e-303
-7.03731e-303
-4.79183e-303
-5.04847e-303
-3.39011e-303
-3.47554e-303
-2.22502e-303
-2.20171e-303
-6.96544e-303
-4.54827e-303
-8.40033e-303
-1.03921e-302
-9.14475e-303
-1.51499e-302
-9.6572e-303
-1.90749e-302
-1.01346e-302
-2.21589e-302
-1.0656e-302
-2.44323e-302
-1.12389e-302
-2.59622e-302
-1.18559e-302
-2.68205e-302
-1.24459e-302
-2.7061e-302
-1.29257e-302
-2.67087e-302
-1.32037e-302
-2.57666e-302
-1.31962e-302
-2.42411e-302
-1.28464e-302
-2.21792e-302
-1.21423e-302
-1.96952e-302
-1.11238e-302
-1.69612e-302
-9.87226e-303
-1.41703e-302
-8.48963e-303
-1.14963e-302
-7.07656e-303
-9.06791e-303
-5.71608e-303
-6.95954e-303
-4.46524e-303
-5.19494e-303
-3.35339e-303
-3.75789e-303
-2.38476e-303
-2.60409e-303
-1.67279e-303
-1.55079e-303
-4.29154e-303
-2.65198e-303
-5.31664e-303
-6.3567e-303
-5.90238e-303
-9.51933e-303
-6.31911e-303
-1.22332e-302
-6.68104e-303
-1.44418e-302
-7.03632e-303
-1.61249e-302
-7.40084e-303
-1.72997e-302
-7.76643e-303
-1.79984e-302
-8.10559e-303
-1.82511e-302
-8.37654e-303
-1.80773e-302
-8.52998e-303
-1.7489e-302
-8.51818e-303
-1.65029e-302
-8.30625e-303
-1.51594e-302
-7.88282e-303
-1.35345e-302
-7.26517e-303
-1.17352e-302
-6.49575e-303
-9.88166e-303
-5.63205e-303
-8.08551e-303
-4.7344e-303
-6.43355e-303
-3.85563e-303
-4.98015e-303
-3.03457e-303
-3.74739e-303
-2.29339e-303
-2.73002e-303
-1.63793e-303
-1.90213e-303
-1.2246e-303
-1.0655e-303
-2.59198e-303
-1.54535e-303
-3.28779e-303
-3.86256e-303
-3.71381e-303
-5.92174e-303
-4.02725e-303
-7.7512e-303
-4.29277e-303
-9.28885e-303
-4.53767e-303
-1.04977e-302
-4.77277e-303
-1.13702e-302
-4.99668e-303
-1.19155e-302
-5.19739e-303
-1.21475e-302
-5.35418e-303
-1.2079e-302
-5.44085e-303
-1.17222e-302
-5.43065e-303
-1.10946e-302
-5.30275e-303
-1.02278e-302
-5.04861e-303
-9.17274e-303
-4.6755e-303
-7.9974e-303
-4.20561e-303
-6.77744e-303
-3.6712e-303
-5.58436e-303
-3.10795e-303
-4.47568e-303
-2.54868e-303
-3.48952e-303
-2.01881e-303
-2.64359e-303
-1.53393e-303
-1.93737e-303
-1.09927e-303
-1.3558e-303
-8.73872e-304
-7.14678e-304
-1.53941e-303
-8.98483e-304
-1.99316e-303
-2.3283e-303
-2.28553e-303
-3.64325e-303
-2.507e-303
-4.84792e-303
-2.69376e-303
-5.8907e-303
-2.8606e-303
-6.73453e-303
-3.01391e-303
-7.3628e-303
-3.15409e-303
-7.77272e-303
-3.27594e-303
-7.96843e-303
-3.3692e-303
-7.95698e-303
-3.41999e-303
-7.74784e-303
-3.41346e-303
-7.35549e-303
-3.33746e-303
-6.80319e-303
-3.18619e-303
-6.12512e-303
-2.96257e-303
-5.36491e-303
-2.67821e-303
-4.57051e-303
-2.35117e-303
-3.78765e-303