/*--------------------------------*- C++ -*----------------------------------*\
| =========                 |                                                 |
| \\      /  F ield         | OpenFOAM: The Open Source CFD Toolbox           |
|  \\    /   O peration     | Version:  2406                                  |
|   \\  /    A nd           | Website:  www.openfoam.com                      |
|    \\/     M anipulation  |                                                 |
\*---------------------------------------------------------------------------*/
FoamFile
{
    version     2.0;
    format      ascii;
    arch        "LSB;label=32;scalar=64";
    class       volVectorField;
    location    "0.65";
    object      U;
}
// * * * * * * * * * * * * * * * * * * * * * * * * * * * * * * * * * * * * * //

dimensions      [0 1 -1 0 0 0 0];

internalField   nonuniform List<vector> 
2268
(
(-1.95378e-300 -5.74442e-301 0)
(-5.59357e-300 -2.46822e-300 0)
(-9.38777e-300 -3.17746e-300 0)
(-1.33657e-299 -3.16487e-300 0)
(-1.76465e-299 -2.32826e-300 0)
(-2.22732e-299 -3.66652e-301 0)
(-2.71907e-299 3.21456e-300 0)
(-3.21736e-299 9.17436e-300 0)
(-3.66469e-299 1.87336e-299 0)
(-3.91166e-299 3.40317e-299 0)
(-3.45284e-299 5.92054e-299 0)
(-2.24632e-300 9.73579e-299 0)
(1.99706e-298 1.61144e-298 0)
(1.69135e-299 6.79762e-299 0)
(-9.08226e-299 1.74489e-299 0)
(-6.20738e-299 -7.28289e-300 0)
(-3.75778e-299 -9.55432e-300 0)
(-2.22933e-299 -7.09557e-300 0)
(-1.31631e-299 -4.2024e-300 0)
(-7.67378e-300 -1.98776e-300 0)
(-4.27298e-300 -5.48541e-301 0)
(-2.0699e-300 1.99453e-301 0)
(-4.30662e-301 2.44954e-301 0)
(-6.0816e-300 -1.2078e-300 0)
(-1.72796e-299 -5.89228e-300 0)
(-2.86481e-299 -7.88672e-300 0)
(-4.05963e-299 -7.72903e-300 0)
(-5.34208e-299 -5.06439e-300 0)
(-6.722e-299 9.83491e-301 0)
(-8.18024e-299 1.18148e-299 0)
(-9.64694e-299 2.95729e-299 0)
(-1.09529e-298 5.75438e-299 0)
(-1.17033e-298 1.01061e-298 0)
(-1.09083e-298 1.69362e-298 0)
(-5.70823e-299 2.79977e-298 0)
(9.09081e-299 4.48575e-298 0)
(-4.79982e-299 1.62984e-298 0)
(-1.22189e-298 2.75403e-299 0)
(-8.38859e-299 -3.57609e-300 0)
(-5.4375e-299 -8.60166e-300 0)
(-3.42875e-299 -7.09328e-300 0)
(-2.13812e-299 -4.36763e-300 0)
(-1.317e-299 -2.00488e-300 0)
(-7.859e-300 -3.10415e-301 0)
(-4.26866e-300 7.0931e-301 0)
(-1.32667e-300 8.53858e-301 0)
(-1.01877e-299 -2.05903e-300 0)
(-2.92749e-299 -9.10541e-300 0)
(-4.86724e-299 -1.23119e-299 0)
(-6.90816e-299 -1.19986e-299 0)
(-9.10199e-299 -7.49092e-300 0)
(-1.14706e-298 2.63605e-300 0)
(-1.39922e-298 2.06606e-299 0)
(-1.65708e-298 4.99822e-299 0)
(-1.89748e-298 9.57771e-299 0)
(-2.07002e-298 1.66168e-298 0)
(-2.06737e-298 2.74984e-298 0)
(-1.63933e-298 4.49275e-298 0)
(-6.69944e-299 7.08933e-298 0)
(-1.25182e-298 2.33343e-298 0)
(-1.44095e-298 3.65928e-299 0)
(-9.9768e-299 9.5474e-301 0)
(-6.70352e-299 -6.32949e-300 0)
(-4.38981e-299 -6.04036e-300 0)
(-2.83591e-299 -3.85003e-300 0)
(-1.81005e-299 -1.64231e-300 0)
(-1.12766e-299 9.92722e-302 0)
(-6.53759e-300 1.28066e-300 0)
(-2.46304e-300 1.53989e-300 0)
(-1.44768e-299 -2.98132e-300 0)
(-4.19936e-299 -1.22667e-299 0)
(-7.00256e-299 -1.66805e-299 0)
(-9.95551e-299 -1.62268e-299 0)
(-1.3135e-298 -9.89334e-300 0)
(-1.65814e-298 4.3082e-300 0)
(-2.02818e-298 2.94471e-299 0)
(-2.41368e-298 7.01111e-299 0)
(-2.78992e-298 1.33109e-298 0)
(-3.1058e-298 2.29014e-298 0)
(-3.26518e-298 3.75225e-298 0)
(-3.07951e-298 6.03914e-298 0)
(-2.59783e-298 9.2849e-298 0)
(-2.01203e-298 2.85227e-298 0)
(-1.68675e-298 4.64336e-299 0)
(-1.16729e-298 5.48516e-300 0)
(-7.99338e-299 -3.87335e-300 0)
(-5.37075e-299 -4.74216e-300 0)
(-3.56432e-299 -3.14417e-300 0)
(-2.34188e-299 -1.17186e-300 0)
(-1.51301e-299 5.57042e-301 0)
(-9.26761e-300 1.88942e-300 0)
(-4.00946e-300 2.34529e-300 0)
(-1.91185e-299 -3.97432e-300 0)
(-5.581e-299 -1.55738e-299 0)
(-9.3261e-299 -2.12659e-299 0)
(-1.32743e-298 -2.07501e-299 0)
(-1.75303e-298 -1.26286e-299 0)
(-2.2159e-298 5.6005e-300 0)
(-2.71674e-298 3.77917e-299 0)
(-3.24727e-298 8.95532e-299 0)
(-3.78478e-298 1.69185e-298 0)
(-4.28343e-298 2.89222e-298 0)
(-4.66403e-298 4.69754e-298 0)
(-4.78754e-298 7.44864e-298 0)
(-4.7643e-298 1.11845e-297 0)
(-2.80191e-298 3.30029e-298 0)
(-1.98365e-298 5.65195e-299 0)
(-1.36373e-298 9.80565e-300 0)
(-9.43262e-299 -1.53381e-300 0)
(-6.45331e-299 -3.45924e-300 0)
(-4.37464e-299 -2.43207e-300 0)
(-2.94534e-299 -7.1629e-301 0)
(-1.96463e-299 9.68427e-301 0)
(-1.26515e-299 2.44395e-300 0)
(-6.11348e-300 3.18766e-300 0)
(-2.42556e-299 -5.06896e-300 0)
(-7.10778e-299 -1.91908e-299 0)
(-1.18926e-298 -2.63322e-299 0)
(-1.6937e-298 -2.58802e-299 0)
(-2.23765e-298 -1.60734e-299 0)
(-2.83057e-298 6.13628e-300 0)
(-3.47612e-298 4.52784e-299 0)
(-4.16918e-298 1.07941e-298 0)
(-4.89152e-298 2.03617e-298 0)
(-5.6054e-298 3.46484e-298 0)
(-6.24802e-298 5.5837e-298 0)
(-6.71146e-298 8.73993e-298 0)
(-7.11993e-298 1.28993e-297 0)
(-3.64752e-298 3.71897e-298 0)
(-2.33323e-298 6.6636e-299 0)
(-1.5914e-298 1.3927e-299 0)
(-1.10709e-298 6.30664e-301 0)
(-7.67548e-299 -2.27601e-300 0)
(-5.29229e-299 -1.78969e-300 0)
(-3.63665e-299 -3.43926e-301 0)
(-2.49378e-299 1.25074e-300 0)
(-1.68205e-299 2.81095e-300 0)
(-9.02241e-300 3.83477e-300 0)
(-3.00155e-299 -6.31536e-300 0)
(-8.81418e-299 -2.3284e-299 0)
(-1.47567e-298 -3.21301e-299 0)
(-2.10166e-298 -3.19618e-299 0)
(-2.77623e-298 -2.06034e-299 0)
(-3.51232e-298 5.47394e-300 0)
(-4.31719e-298 5.14931e-299 0)
(-5.19007e-298 1.24829e-298 0)
(-6.11859e-298 2.36051e-298 0)
(-7.07439e-298 4.00465e-298 0)
(-8.00937e-298 6.41065e-298 0)
(-8.83613e-298 9.92842e-298 0)
(-9.65876e-298 1.45033e-297 0)
(-4.56198e-298 4.12249e-298 0)
(-2.73119e-298 7.67589e-299 0)
(-1.85078e-298 1.79371e-299 0)
(-1.29288e-298 2.65247e-300 0)
(-9.05777e-299 -1.20497e-300 0)
(-6.33214e-299 -1.24695e-300 0)
(-4.42414e-299 -9.6317e-302 0)
(-3.10304e-299 1.32843e-300 0)
(-2.17999e-299 2.80746e-300 0)
(-1.31321e-299 3.77692e-300 0)
(-3.65126e-299 -7.78979e-300 0)
(-1.07344e-298 -2.8008e-299 0)
(-1.79737e-298 -3.894e-299 0)
(-2.5587e-298 -3.9346e-299 0)
(-3.37784e-298 -2.66665e-299 0)
(-4.27142e-298 3.16147e-300 0)
(-5.25091e-298 5.59308e-299 0)
(-6.32047e-298 1.39792e-298 0)
(-7.4745e-298 2.6608e-298 0)
(-8.6944e-298 4.50973e-298 0)
(-9.94626e-298 7.17947e-298 0)
(-1.11654e-297 1.10206e-297 0)
(-1.2408e-297 1.59913e-297 0)
(-5.54934e-298 4.50243e-298 0)
(-3.16949e-298 8.68842e-299 0)
(-2.13858e-298 2.19591e-299 0)
(-1.49964e-298 4.60904e-300 0)
(-1.05981e-298 -2.16614e-301 0)
(-7.49233e-299 -8.01836e-301 0)
(-5.30183e-299 1.17032e-302 0)
(-3.77694e-299 1.15407e-300 0)
(-2.72753e-299 2.20693e-300 0)
(-1.90936e-299 2.0781e-300 0)
(-5.68059e-304 -1.64088e-303 0)
(-3.15744e-303 -1.11086e-302 0)
(-1.8013e-303 -1.01525e-302 0)
(-1.80809e-303 -5.64728e-303 0)
(-1.93222e-303 -2.48025e-303 0)
(-1.6526e-303 -9.30806e-304 0)
(-1.17305e-303 -3.00087e-304 0)
(-7.29275e-304 -7.53196e-305 0)
(-4.11419e-304 -6.50501e-306 0)
(-2.15118e-304 9.03439e-306 0)
(-1.05504e-304 9.08387e-306 0)
(-4.8819e-305 6.08913e-306 0)
(-2.13366e-305 3.47388e-306 0)
(-8.77647e-306 1.79002e-306 0)
(-3.3644e-306 8.47056e-307 0)
(-1.17695e-306 3.66893e-307 0)
(-3.58294e-307 1.41513e-307 0)
(-8.24405e-308 4.30371e-308 0)
(-5.65167e-309 5.16629e-309 0)
(-5.43962e-304 -6.87376e-303 0)
(-7.15358e-303 -2.59021e-302 0)
(-6.75667e-303 -2.1081e-302 0)
(-6.7666e-303 -1.13653e-302 0)
(-5.96279e-303 -4.89428e-303 0)
(-4.50706e-303 -1.75905e-303 0)
(-3.00422e-303 -4.96065e-304 0)
(-1.81775e-303 -6.52372e-305 0)
(-1.01928e-303 4.7562e-305 0)
(-5.36763e-304 5.67409e-305 0)
(-2.67543e-304 4.0961e-305 0)
(-1.26691e-304 2.47811e-305 0)
(-5.70092e-305 1.35517e-305 0)
(-2.42944e-305 6.87933e-306 0)
(-9.72134e-306 3.26932e-306 0)
(-3.58796e-306 1.4512e-306 0)
(-1.1733e-306 5.91554e-307 0)
(-3.02149e-307 2.05489e-307 0)
(-2.49493e-308 3.64853e-308 0)
(-1.13297e-303 -1.77222e-302 0)
(-1.40508e-302 -4.70814e-302 0)
(-1.55809e-302 -3.45195e-302 0)
(-1.50106e-302 -1.77566e-302 0)
(-1.21734e-302 -7.41452e-303 0)
(-8.63425e-303 -2.55569e-303 0)
(-5.53224e-303 -6.40009e-304 0)
(-3.27673e-303 -1.11311e-305 0)
(-1.82155e-303 1.33e-304 0)
(-9.59475e-304 1.24875e-304 0)
(-4.81499e-304 8.53264e-305 0)
(-2.30756e-304 5.07307e-305 0)
(-1.05571e-304 2.76683e-305 0)
(-4.59497e-305 1.41306e-305 0)
(-1.88797e-305 6.80817e-306 0)
(-7.20805e-306 3.09328e-306 0)
(-2.46869e-306 1.31129e-306 0)
(-6.83903e-307 4.90551e-307 0)
(-6.99159e-308 1.05687e-307 0)
(-5.19639e-303 -4.19558e-302 0)
(-2.8423e-302 -8.17811e-302 0)
(-3.24063e-302 -5.37613e-302 0)
(-2.93828e-302 -2.6131e-302 0)
(-2.23619e-302 -1.05153e-302 0)
(-1.51271e-302 -3.47269e-303 0)
(-9.39837e-303 -7.67887e-304 0)
(-5.46866e-303 8.80552e-305 0)
(-3.01558e-303 2.59399e-304 0)
(-1.58699e-303 2.22468e-304 0)
(-8.00075e-304 1.48606e-304 0)
(-3.86919e-304 8.79711e-305 0)
(-1.79328e-304 4.81664e-305 0)
(-7.9379e-305 2.48297e-305 0)
(-3.33158e-305 1.21383e-305 0)
(-1.30702e-305 5.63423e-306 0)
(-4.64511e-306 2.46845e-306 0)
(-1.36286e-306 9.77961e-307 0)
(-1.64437e-307 2.41632e-307 0)
(-2.13854e-302 -9.57433e-302 0)
(-5.88519e-302 -1.38223e-301 0)
(-6.4131e-302 -8.12249e-302 0)
(-5.40589e-302 -3.72086e-302 0)
(-3.88899e-302 -1.44354e-302 0)
(-2.53079e-302 -4.58937e-303 0)
(-1.53415e-302 -9.00088e-304 0)
(-8.803e-303 2.32969e-304 0)
(-4.82475e-303 4.33261e-304 0)
(-2.53863e-303 3.56178e-304 0)
(-1.28551e-303 2.35926e-304 0)
(-6.26792e-304 1.39962e-304 0)
(-2.93876e-304 7.71993e-305 0)
(-1.32027e-304 4.02403e-305 0)
(-5.64498e-305 1.9968e-305 0)
(-2.26727e-305 9.45781e-306 0)
(-8.31691e-306 4.26637e-306 0)
(-2.56115e-306 1.77338e-306 0)
(-3.52779e-307 4.90029e-307 0)
(-7.55115e-302 -2.15154e-301 0)
(-1.2296e-301 -2.26182e-301 0)
(-1.21996e-301 -1.18611e-301 0)
(-9.49736e-302 -5.13463e-302 0)
(-6.48726e-302 -1.93055e-302 0)
(-4.08554e-302 -5.96083e-303 0)
(-2.42848e-302 -1.0542e-303 0)
(-1.37898e-302 4.22986e-304 0)
(-7.52888e-303 6.59803e-304 0)
(-3.96568e-303 5.31965e-304 0)
(-2.01799e-303 3.52149e-304 0)
(-9.91884e-304 2.10132e-304 0)
(-4.70127e-304 1.16977e-304 0)
(-2.14109e-304 6.17018e-305 0)
(-9.30936e-305 3.10727e-305 0)
(-3.81841e-305 1.49981e-305 0)
(-1.44044e-305 6.94364e-306 0)
(-4.62789e-306 3.00672e-306 0)
(-7.14582e-307 9.16781e-307 0)
(-2.38324e-301 -4.72472e-301 0)
(-2.56634e-301 -3.53426e-301 0)
(-2.23386e-301 -1.66152e-301 0)
(-1.60206e-301 -6.85569e-302 0)
(-1.0439e-301 -2.52127e-302 0)
(-6.39705e-302 -7.64807e-303 0)
(-3.74541e-302 -1.25556e-303 0)
(-2.11171e-302 6.53506e-304 0)
(-1.15117e-302 9.42911e-304 0)
(-6.07899e-303 7.55721e-304 0)
(-3.11109e-303 5.02512e-304 0)
(-1.54195e-303 3.02334e-304 0)
(-7.38687e-304 1.70055e-304 0)
(-3.40822e-304 9.07921e-305 0)
(-1.50526e-304 4.63763e-305 0)
(-6.294e-305 2.27744e-305 0)
(-2.43476e-305 1.07822e-305 0)
(-8.11784e-306 4.82227e-306 0)
(-1.38802e-306 1.59074e-306 0)
(-6.68351e-301 -1.06117e-300 0)
(-5.29332e-301 -5.13524e-301 0)
(-3.88462e-301 -2.20344e-301 0)
(-2.57822e-301 -8.82083e-302 0)
(-1.61379e-301 -3.21446e-302 0)
(-9.67898e-302 -9.71143e-303 0)
(-5.60566e-302 -1.5463e-303 0)
(-3.14726e-302 9.03701e-304 0)
(-1.71621e-302 1.27457e-303 0)
(-9.09526e-303 1.02555e-303 0)
(-4.6832e-303 6.87491e-304 0)
(-2.34018e-303 4.17648e-304 0)
(-1.13237e-303 2.37422e-304 0)
(-5.28694e-304 1.28226e-304 0)
(-2.36781e-304 6.63334e-305 0)
(-1.00682e-304 3.30487e-305 0)
(-3.97949e-305 1.59152e-305 0)
(-1.36926e-305 7.26959e-306 0)
(-2.58739e-306 2.52328e-306 0)
(-4.77234e-299 -1.05318e-299 0)
(-1.40479e-298 -3.64828e-299 0)
(-2.3518e-298 -5.1367e-299 0)
(-3.345e-298 -5.33101e-299 0)
(-4.41055e-298 -3.90488e-299 0)
(-5.5714e-298 -3.78486e-300 0)
(-6.84601e-298 5.92018e-299 0)
(-8.24704e-298 1.58989e-298 0)
(-9.77987e-298 3.07956e-298 0)
(-1.14413e-297 5.22965e-298 0)
(-1.32191e-297 8.27515e-298 0)
(-1.50872e-297 1.25399e-297 0)
(-1.707e-297 1.78583e-297 0)
(-7.17611e-298 5.023e-298 0)
(-3.89435e-298 1.02794e-298 0)
(-2.61625e-298 2.85492e-299 0)
(-1.84359e-298 7.8149e-300 0)
(-1.31607e-298 1.37766e-300 0)
(-9.41922e-299 -1.3398e-301 0)
(-6.74775e-299 5.46287e-302 0)
(-4.85255e-299 5.87301e-301 0)
(-3.51641e-299 6.64005e-301 0)
(-2.54781e-299 -6.43715e-301 0)
(-6.38513e-299 -1.51945e-299 0)
(-1.88074e-298 -5.04912e-299 0)
(-3.14845e-298 -7.27039e-299 0)
(-4.47633e-298 -7.89866e-299 0)
(-5.89962e-298 -6.52064e-299 0)
(-7.45105e-298 -2.56081e-299 0)
(-9.15989e-298 4.74025e-299 0)
(-1.10511e-297 1.63796e-298 0)
(-1.31447e-297 3.36412e-298 0)
(-1.54555e-297 5.81929e-298 0)
(-1.7993e-297 9.21863e-298 0)
(-2.07623e-297 1.38304e-297 0)
(-2.3761e-297 1.93717e-297 0)
(-9.52526e-298 5.49553e-298 0)
(-4.93917e-298 1.20424e-298 0)
(-3.28534e-298 3.65324e-299 0)
(-2.31378e-298 1.19006e-299 0)
(-1.65858e-298 3.45015e-300 0)
(-1.19347e-298 6.98114e-301 0)
(-8.57459e-299 1.64562e-302 0)
(-6.12962e-299 -1.44434e-301 0)
(-4.32534e-299 -5.82641e-301 0)
(-2.92823e-299 -1.74845e-300 0)
(-8.08859e-299 -2.12798e-299 0)
(-2.37936e-298 -6.87855e-299 0)
(-3.98113e-298 -1.01315e-298 0)
(-5.65781e-298 -1.15147e-298 0)
(-7.45467e-298 -1.05262e-298 0)
(-9.41481e-298 -6.51366e-299 0)
(-1.15784e-297 1.3595e-299 0)
(-1.3982e-297 1.41341e-298 0)
(-1.66579e-297 3.31055e-298 0)
(-1.96341e-297 5.98464e-298 0)
(-2.29334e-297 9.62634e-298 0)
(-2.65762e-297 1.44476e-297 0)
(-3.05343e-297 2.00854e-297 0)
(-1.19696e-297 5.7561e-298 0)
(-6.04453e-298 1.31693e-298 0)
(-3.97788e-298 4.17524e-299 0)
(-2.78978e-298 1.45781e-299 0)
(-1.99783e-298 4.76581e-300 0)
(-1.43728e-298 1.15239e-300 0)
(-1.03059e-298 -1.12233e-301 0)
(-7.31475e-299 -6.34595e-301 0)
(-5.07847e-299 -1.13049e-300 0)
(-3.35413e-299 -1.79725e-300 0)
(-9.89381e-299 -2.94152e-299 0)
(-2.90248e-298 -9.32699e-299 0)
(-4.85144e-298 -1.403e-298 0)
(-6.88969e-298 -1.65885e-298 0)
(-9.07324e-298 -1.64214e-298 0)
(-1.14559e-297 -1.2796e-298 0)
(-1.40885e-297 -4.82085e-299 0)
(-1.70179e-297 8.58635e-299 0)
(-2.02864e-297 2.86993e-298 0)
(-2.39309e-297 5.7004e-298 0)
(-2.79823e-297 9.51714e-298 0)
(-3.24679e-297 1.44905e-297 0)
(-3.7344e-297 2.02068e-297 0)
(-1.44989e-297 5.85313e-298 0)
(-7.20995e-298 1.36579e-298 0)
(-4.69904e-298 4.36603e-299 0)
(-3.27798e-298 1.53577e-299 0)
(-2.34029e-298 4.99416e-300 0)
(-1.67982e-298 1.04984e-300 0)
(-1.20101e-298 -4.07896e-301 0)
(-8.48288e-299 -9.75462e-301 0)
(-5.84634e-299 -1.31048e-300 0)
(-3.83588e-299 -1.56655e-300 0)
(-1.18073e-298 -4.02964e-299 0)
(-3.45099e-298 -1.26033e-298 0)
(-5.76001e-298 -1.93018e-298 0)
(-8.17172e-298 -2.35761e-298 0)
(-1.07538e-297 -2.47553e-298 0)
(-1.3571e-297 -2.20363e-298 0)
(-1.66848e-297 -1.44608e-298 0)
(-2.01514e-297 -9.20326e-300 0)
(-2.40213e-297 1.98608e-298 0)
(-2.83385e-297 4.92903e-298 0)
(-3.31387e-297 8.88936e-298 0)
(-3.84533e-297 1.40093e-297 0)
(-4.42317e-297 1.98475e-297 0)
(-1.71204e-297 5.81096e-298 0)
(-8.43355e-298 1.35095e-298 0)
(-5.45057e-298 4.19068e-299 0)
(-3.78179e-298 1.38733e-299 0)
(-2.69004e-298 3.83645e-300 0)
(-1.92533e-298 1.6279e-301 0)
(-1.37277e-298 -1.06281e-300 0)
(-9.66661e-299 -1.38852e-300 0)
(-6.64178e-299 -1.42997e-300 0)
(-4.35323e-299 -1.35273e-300 0)
(-1.38329e-298 -5.47182e-299 0)
(-4.02495e-298 -1.69399e-298 0)
(-6.70633e-298 -2.63295e-298 0)
(-9.50292e-298 -3.29887e-298 0)
(-1.2495e-297 -3.61579e-298 0)
(-1.57595e-297 -3.49445e-298 0)
(-1.93682e-297 -2.83306e-298 0)
(-2.33868e-297 -1.51534e-298 0)
(-2.78731e-297 5.86932e-299 0)
(-3.28768e-297 3.6133e-298 0)
(-3.8438e-297 7.70835e-298 0)
(-4.45909e-297 1.30031e-297 0)
(-5.12835e-297 1.90395e-297 0)
(-1.98531e-297 5.6301e-298 0)
(-9.71585e-298 1.26677e-298 0)
(-6.23321e-298 3.59374e-299 0)
(-4.30276e-298 9.65972e-300 0)
(-3.04917e-298 9.19847e-301 0)
(-2.176e-298 -1.80888e-300 0)
(-1.54774e-298 -2.33495e-300 0)
(-1.08763e-298 -2.11839e-300 0)
(-7.46253e-299 -1.71796e-300 0)
(-4.89253e-299 -1.29199e-300 0)
(-1.59697e-298 -7.35901e-299 0)
(-4.62277e-298 -2.2606e-298 0)
(-7.68754e-298 -3.5548e-298 0)
(-1.08796e-297 -4.54206e-298 0)
(-1.42939e-297 -5.13496e-298 0)
(-1.80202e-297 -5.2354e-298 0)
(-2.2142e-297 -4.73275e-298 0)
(-2.67343e-297 -3.50537e-298 0)
(-3.18627e-297 -1.41925e-298 0)
(-3.7582e-297 1.66717e-298 0)
(-4.39365e-297 5.90159e-298 0)
(-5.09629e-297 1.14148e-297 0)
(-5.86098e-297 1.77445e-297 0)
(-2.27249e-297 5.28628e-298 0)
(-1.106e-297 1.0986e-298 0)
(-7.04768e-298 2.4759e-299 0)
(-4.84141e-298 2.00791e-300 0)
(-3.41837e-298 -4.27561e-300 0)
(-2.43259e-298 -5.25753e-300 0)
(-1.72643e-298 -4.53223e-300 0)
(-1.21125e-298 -3.41304e-300 0)
(-8.30354e-299 -2.36064e-300 0)
(-5.44588e-299 -1.4802e-300 0)
(-1.82079e-298 -9.7991e-299 0)
(-5.23992e-298 -2.99125e-298 0)
(-8.69586e-298 -4.74692e-298 0)
(-1.22921e-297 -6.15571e-298 0)
(-1.61405e-297 -7.11778e-298 0)
(-2.0346e-297 -7.52301e-298 0)
(-2.50049e-297 -7.25235e-298 0)
(-3.02025e-297 -6.17493e-298 0)
(-3.6012e-297 -4.1501e-298 0)
(-4.24941e-297 -1.02658e-298 0)
(-4.96968e-297 3.35236e-298 0)
(-5.76599e-297 9.13206e-298 0)
(-6.63305e-297 1.58522e-297 0)
(-2.57684e-297 4.72852e-298 0)
(-1.24706e-297 8.20919e-299 0)
(-7.89432e-298 6.80961e-300 0)
(-5.3973e-298 -1.01122e-299 0)
(-3.79723e-298 -1.2453e-299 0)
(-2.69478e-298 -1.06758e-299 0)
(-1.90855e-298 -8.00797e-300 0)
(-1.33707e-298 -5.52671e-300 0)
(-9.15916e-299 -3.52904e-300 0)
(-6.00793e-299 -2.00817e-300 0)
(-2.05218e-298 -1.292e-298 0)
(-5.86649e-298 -3.92308e-298 0)
(-9.71506e-298 -6.26914e-298 0)
(-1.37197e-297 -8.22112e-298 0)
(-1.80127e-297 -9.66254e-298 0)
(-2.27167e-297 -1.04713e-297 0)
(-2.7943e-297 -1.05167e-297 0)
(-3.37879e-297 -9.66003e-298 0)
(-4.03331e-297 -7.74902e-298 0)
(-4.76447e-297 -4.62093e-298 0)
(-5.57752e-297 -9.98557e-300 0)
(-6.47668e-297 5.98274e-298 0)
(-7.45615e-297 1.31804e-297 0)
(-2.90163e-297 3.87595e-298 0)
(-1.39509e-297 3.95851e-299 0)
(-8.77222e-298 -2.0106e-299 0)
(-5.96878e-298 -2.80737e-299 0)
(-4.18427e-298 -2.44979e-299 0)
(-2.9614e-298 -1.86458e-299 0)
(-2.09314e-298 -1.31509e-299 0)
(-1.46433e-298 -8.71889e-300 0)
(-1.00228e-298 -5.38867e-300 0)
(-6.5738e-299 -2.96832e-300 0)
(-2.28591e-298 -1.68792e-298 0)
(-6.48414e-298 -5.10044e-298 0)
(-1.0715e-297 -8.19361e-298 0)
(-1.51236e-297 -1.08338e-297 0)
(-1.98674e-297 -1.28856e-297 0)
(-2.50902e-297 -1.42116e-297 0)
(-3.09196e-297 -1.46723e-297 0)
(-3.74647e-297 -1.41182e-297 0)
(-4.48153e-297 -1.23881e-297 0)
(-5.30436e-297 -9.30178e-298 0)
(-6.22057e-297 -4.66164e-298 0)
(-7.23474e-297 1.7373e-298 0)
(-8.33965e-297 9.46954e-298 0)
(-3.24948e-297 2.61427e-298 0)
(-1.5501e-297 -2.27823e-299 0)
(-9.67797e-298 -5.88106e-299 0)
(-6.55244e-298 -5.35521e-299 0)
(-4.57676e-298 -4.14306e-299 0)
(-3.23041e-298 -2.97988e-299 0)
(-2.2787e-298 -2.0357e-299 0)
(-1.59188e-298 -1.32394e-299 0)
(-1.08862e-298 -8.09369e-300 0)
(-7.13787e-299 -4.44923e-300 0)
(-2.5128e-298 -2.18725e-298 0)
(-7.06121e-298 -6.57833e-298 0)
(-1.16447e-297 -1.06074e-297 0)
(-1.64384e-297 -1.41088e-297 0)
(-2.16311e-297 -1.69225e-297 0)
(-2.73913e-297 -1.88976e-297 0)
(-3.38646e-297 -1.98849e-297 0)
(-4.11724e-297 -1.97307e-297 0)
(-4.94131e-297 -1.8263e-297 0)
(-5.86639e-297 -1.52878e-297 0)
(-6.89849e-297 -1.0579e-297 0)
(-8.04254e-297 -3.89109e-298 0)
(-9.28876e-297 4.38549e-298 0)
(-3.62146e-297 7.93237e-299 0)
(-1.71135e-297 -1.11433e-298 0)
(-1.06042e-297 -1.12628e-298 0)
(-7.14256e-298 -8.83884e-299 0)
(-4.97054e-298 -6.42937e-299 0)
(-3.49882e-298 -4.47337e-299 0)
(-2.46308e-298 -2.99767e-299 0)
(-1.71818e-298 -1.92969e-299 0)
(-1.17385e-298 -1.17688e-299 0)
(-7.69286e-299 -6.52352e-300 0)
(-2.71741e-298 -2.81561e-298 0)
(-7.54588e-298 -8.42601e-298 0)
(-1.24212e-297 -1.36193e-297 0)
(-1.75594e-297 -1.81846e-297 0)
(-2.31873e-297 -2.19344e-297 0)
(-2.95004e-297 -2.47038e-297 0)
(-3.6662e-297 -2.63428e-297 0)
(-4.48044e-297 -2.66965e-297 0)
(-5.40324e-297 -2.55919e-297 0)
(-6.4428e-297 -2.28205e-297 0)
(-7.60538e-297 -1.81327e-297 0)
(-8.89645e-297 -1.12347e-297 0)
(-1.0302e-296 -2.47628e-298 0)
(-4.01604e-297 -1.77199e-298 0)
(-1.87705e-297 -2.33772e-298 0)
(-1.15384e-297 -1.85038e-298 0)
(-7.73053e-298 -1.34306e-298 0)
(-5.35971e-298 -9.39473e-299 0)
(-3.76252e-298 -6.38828e-299 0)
(-2.64335e-298 -4.22322e-299 0)
(-1.84114e-298 -2.7011e-299 0)
(-1.25648e-298 -1.64821e-299 0)
(-8.22866e-299 -9.2318e-300 0)
(-2.87468e-298 -3.60793e-298 0)
(-7.8542e-298 -1.07351e-297 0)
(-1.29146e-297 -1.73674e-297 0)
(-1.83263e-297 -2.32327e-297 0)
(-2.43612e-297 -2.81103e-297 0)
(-3.12402e-297 -3.18307e-297 0)
(-3.91398e-297 -3.42515e-297 0)
(-4.81972e-297 -3.52321e-297 0)
(-5.85208e-297 -3.46043e-297 0)
(-7.01941e-297 -3.21578e-297 0)
(-8.32827e-297 -2.76206e-297 0)
(-9.78473e-297 -2.06583e-297 0)
(-1.13689e-296 -1.15696e-297 0)
(-4.42769e-297 -5.29203e-298 0)
(-2.04393e-297 -3.97324e-298 0)
(-1.2461e-297 -2.78973e-298 0)
(-8.30415e-298 -1.92412e-298 0)
(-5.73615e-298 -1.30754e-298 0)
(-4.01583e-298 -8.73248e-299 0)
(-2.81543e-298 -5.71121e-299 0)
(-1.95779e-298 -3.6354e-299 0)
(-1.33438e-298 -2.22131e-299 0)
(-8.73078e-299 -1.25649e-299 0)
(-2.94301e-298 -4.61582e-298 0)
(-7.84909e-298 -1.36312e-297 0)
(-1.29202e-297 -2.20341e-297 0)
(-1.84988e-297 -2.9466e-297 0)
(-2.49014e-297 -3.56759e-297 0)
(-3.23638e-297 -4.05025e-297 0)
(-4.1061e-297 -4.38344e-297 0)
(-5.11256e-297 -4.55601e-297 0)
(-6.26604e-297 -4.55356e-297 0)
(-7.57494e-297 -4.35557e-297 0)
(-9.04592e-297 -3.93429e-297 0)
(-1.06861e-296 -3.25296e-297 0)
(-1.24676e-296 -2.33692e-297 0)
(-4.84533e-297 -9.98019e-298 0)
(-2.20682e-297 -6.07884e-298 0)
(-1.33444e-297 -3.95556e-298 0)
(-8.84634e-298 -2.62445e-298 0)
(-6.08838e-298 -1.74157e-298 0)
(-4.2506e-298 -1.14561e-298 0)
(-2.97335e-298 -7.42558e-299 0)
(-2.06376e-298 -4.70921e-299 0)
(-1.40445e-298 -2.88219e-299 0)
(-9.17824e-299 -1.64472e-299 0)
(-2.84863e-298 -5.92244e-298 0)
(-7.29698e-298 -1.72967e-297 0)
(-1.21134e-297 -2.78651e-297 0)
(-1.77208e-297 -3.71549e-297 0)
(-2.44588e-297 -4.48956e-297 0)
(-3.25443e-297 -5.09689e-297 0)
(-4.21231e-297 -5.5323e-297 0)
(-5.33025e-297 -5.79055e-297 0)
(-6.61721e-297 -5.86101e-297 0)
(-8.08106e-297 -5.72564e-297 0)
(-9.72881e-297 -5.35729e-297 0)
(-1.15688e-296 -4.71878e-297 0)
(-1.3564e-296 -3.83179e-297 0)
(-5.24984e-297 -1.60052e-297 0)
(-2.35775e-297 -8.66054e-298 0)
(-1.41478e-297 -5.32122e-298 0)
(-9.33197e-298 -3.41758e-298 0)
(-6.39912e-298 -2.22203e-298 0)
(-4.45435e-298 -1.44303e-298 0)
(-3.10806e-298 -9.28604e-299 0)
(-2.1526e-298 -5.87425e-299 0)
(-1.4622e-298 -3.60279e-299 0)
(-9.54125e-299 -2.07249e-299 0)
(-2.43956e-298 -7.67652e-298 0)
(-5.77419e-298 -2.20083e-297 0)
(-9.966e-298 -3.52016e-297 0)
(-1.54699e-297 -4.66394e-297 0)
(-2.25654e-297 -5.60774e-297 0)
(-3.13751e-297 -6.34948e-297 0)
(-4.19656e-297 -6.89512e-297 0)
(-5.43953e-297 -7.24791e-297 0)
(-6.8729e-297 -7.40331e-297 0)
(-8.50408e-297 -7.34658e-297 0)
(-1.03403e-296 -7.05352e-297 0)
(-1.23919e-296 -6.48962e-297 0)
(-1.46122e-296 -5.67682e-297 0)
(-5.60838e-297 -2.33961e-297 0)
(-2.48398e-297 -1.16113e-297 0)
(-1.48072e-297 -6.79458e-298 0)
(-9.72073e-298 -4.24252e-298 0)
(-6.6406e-298 -2.71182e-298 0)
(-4.60754e-298 -1.74364e-298 0)
(-3.20591e-298 -1.11652e-298 0)
(-2.21494e-298 -7.0566e-299 0)
(-1.50142e-298 -4.34058e-299 0)
(-9.78004e-299 -2.51611e-299 0)
(-1.32435e-298 -1.01576e-297 0)
(-2.44811e-298 -2.82021e-297 0)
(-5.59848e-298 -4.45146e-297 0)
(-1.09938e-297 -5.83391e-297 0)
(-1.8628e-297 -6.95593e-297 0)
(-2.83892e-297 -7.83494e-297 0)
(-4.02015e-297 -8.49351e-297 0)
(-5.40536e-297 -8.94695e-297 0)
(-6.99891e-297 -9.19748e-297 0)
(-8.80801e-297 -9.23461e-297 0)
(-1.08406e-296 -9.03771e-297 0)
(-1.31086e-296 -8.58005e-297 0)
(-1.55578e-296 -7.89002e-297 0)
(-5.85668e-297 -3.1835e-297 0)
(-2.56339e-297 -1.46076e-297 0)
(-1.52126e-297 -8.18711e-298 0)
(-9.94441e-298 -4.99755e-298 0)
(-6.76795e-298 -3.15643e-298 0)
(-4.68051e-298 -2.01772e-298 0)
(-3.24756e-298 -1.28967e-298 0)
(-2.23838e-298 -8.16097e-299 0)
(-1.51427e-298 -5.0404e-299 0)
(-9.84693e-299 -2.94428e-299 0)
(1.7849e-298 -1.38693e-297 0)
(4.43814e-298 -3.65483e-297 0)
(2.45739e-298 -5.64206e-297 0)
(-3.2657e-298 -7.27225e-297 0)
(-1.19672e-297 -8.5676e-297 0)
(-2.31213e-297 -9.57686e-297 0)
(-3.64709e-297 -1.03455e-296 0)
(-5.19577e-297 -1.09022e-296 0)
(-6.96358e-297 -1.12565e-296 0)
(-8.9599e-297 -1.14002e-296 0)
(-1.11928e-296 -1.13159e-296 0)
(-1.3673e-296 -1.09881e-296 0)
(-1.63469e-296 -1.04635e-296 0)
(-5.84184e-297 -4.01082e-297 0)
(-2.55686e-297 -1.69573e-297 0)
(-1.51718e-297 -9.19975e-298 0)
(-9.89116e-298 -5.54921e-298 0)
(-6.71428e-298 -3.49187e-298 0)
(-4.63342e-298 -2.23203e-298 0)
(-3.20932e-298 -1.42962e-298 0)
(-2.20889e-298 -9.0804e-299 0)
(-1.4925e-298 -5.63896e-299 0)
(-9.69418e-299 -3.32001e-299 0)
(1.16792e-297 -1.86932e-297 0)
(1.87036e-297 -4.8034e-297 0)
(1.64499e-297 -7.16879e-297 0)
(8.87624e-298 -9.02975e-297 0)
(-2.01173e-298 -1.04757e-296 0)
(-1.52613e-297 -1.1598e-296 0)
(-3.05432e-297 -1.2468e-296 0)
(-4.78734e-297 -1.31288e-296 0)
(-6.74193e-297 -1.35944e-296 0)
(-8.93502e-297 -1.38558e-296 0)
(-1.13735e-296 -1.38921e-296 0)
(-1.40524e-296 -1.36966e-296 0)
(-1.69175e-296 -1.33434e-296 0)
(-5.22272e-297 -4.40665e-297 0)
(-2.40261e-297 -1.73871e-297 0)
(-1.43536e-297 -9.47381e-298 0)
(-9.39973e-298 -5.77222e-298 0)
(-6.39886e-298 -3.66214e-298 0)
(-4.42503e-298 -2.3569e-298 0)
(-3.06964e-298 -1.51913e-298 0)
(-2.11494e-298 -9.7105e-299 0)
(-1.42988e-298 -6.07214e-299 0)
(-9.28825e-299 -3.60458e-299 0)
(4.49484e-297 -2.67572e-297 0)
(4.50069e-297 -6.2371e-297 0)
(3.73538e-297 -8.95514e-297 0)
(2.52185e-297 -1.10194e-296 0)
(1.07246e-297 -1.2597e-296 0)
(-5.28308e-298 -1.38218e-296 0)
(-2.27347e-297 -1.47899e-296 0)
(-4.19512e-297 -1.55563e-296 0)
(-6.33774e-297 -1.61388e-296 0)
(-8.73727e-297 -1.65247e-296 0)
(-1.14002e-296 -1.66873e-296 0)
(-1.4274e-296 -1.65989e-296 0)
(-7.17745e-297 -6.91622e-297 0)
(-3.2628e-297 -2.92195e-297 0)
(-1.91314e-297 -1.50871e-297 0)
(-1.2311e-297 -8.94169e-298 0)
(-8.33444e-298 -5.63389e-298 0)
(-5.77565e-298 -3.6412e-298 0)
(-4.03828e-298 -2.37359e-298 0)
(-2.82188e-298 -1.54553e-298 0)
(-1.95395e-298 -9.96772e-299 0)
(-1.32546e-298 -6.28571e-299 0)
(-8.62649e-299 -3.76387e-299 0)
(2.8379e-297 -1.97043e-297 0)
(2.084e-297 -3.52797e-297 0)
(1.5082e-297 -4.46785e-297 0)
(8.95156e-298 -5.10496e-297 0)
(2.74294e-298 -5.56439e-297 0)
(-3.68096e-298 -5.90075e-297 0)
(-1.05388e-297 -6.14476e-297 0)
(-1.80635e-297 -6.30947e-297 0)
(-2.63758e-297 -6.38694e-297 0)
(-3.52339e-297 -6.33346e-297 0)
(-4.34061e-297 -6.02077e-297 0)
(-4.64726e-297 -5.17449e-297 0)
(-3.0187e-297 -3.20269e-297 0)
(-1.99944e-297 -1.96205e-297 0)
(-1.3827e-297 -1.22225e-297 0)
(-9.71963e-298 -7.87455e-298 0)
(-6.90711e-298 -5.17695e-298 0)
(-4.92886e-298 -3.43314e-298 0)
(-3.51229e-298 -2.27846e-298 0)
(-2.48622e-298 -1.50418e-298 0)
(-1.73709e-298 -9.81193e-299 0)
(-1.18569e-298 -6.24921e-299 0)
(-7.74657e-299 -3.77648e-299 0)
(4.78272e-298 -1.5326e-297 0)
(2.53596e-298 -2.02498e-297 0)
(1.39692e-298 -2.25553e-297 0)
(-1.15056e-299 -2.45895e-297 0)
(-1.972e-298 -2.62412e-297 0)
(-4.16736e-298 -2.7455e-297 0)
(-6.70759e-298 -2.82429e-297 0)
(-9.57922e-298 -2.86232e-297 0)
(-1.26762e-297 -2.85797e-297 0)
(-1.56843e-297 -2.80196e-297 0)
(-1.79179e-297 -2.67232e-297 0)
(-1.81103e-297 -2.43049e-297 0)
(-1.55216e-297 -1.90755e-297 0)
(-1.24453e-297 -1.37138e-297 0)
(-9.63483e-298 -9.53991e-298 0)
(-7.28854e-298 -6.57547e-298 0)
(-5.43483e-298 -4.51194e-298 0)
(-4.00703e-298 -3.08056e-298 0)
(-2.92142e-298 -2.08836e-298 0)
(-2.10213e-298 -1.40152e-298 0)
(-1.48624e-298 -9.26494e-299 0)
(-1.02304e-298 -5.96703e-299 0)
(-6.72014e-299 -3.64052e-299 0)
(-1.92095e-298 -9.05553e-298 0)
(-1.77884e-298 -1.23923e-297 0)
(-1.69931e-298 -1.38978e-297 0)
(-1.99806e-298 -1.50705e-297 0)
(-2.63335e-298 -1.59874e-297 0)
(-3.55281e-298 -1.66405e-297 0)
(-4.71394e-298 -1.7036e-297 0)
(-6.06e-298 -1.71878e-297 0)
(-7.48536e-298 -1.71001e-297 0)
(-8.79853e-298 -1.67436e-297 0)
(-9.70406e-298 -1.6022e-297 0)
(-9.85258e-298 -1.47051e-297 0)
(-9.19382e-298 -1.24044e-297 0)
(-8.01898e-298 -9.71682e-298 0)
(-6.64522e-298 -7.26242e-298 0)
(-5.30375e-298 -5.27893e-298 0)
(-4.11943e-298 -3.76592e-298 0)
(-3.13203e-298 -2.64686e-298 0)
(-2.33714e-298 -1.83483e-298 0)
(-1.71155e-298 -1.25338e-298 0)
(-1.22623e-298 -8.40583e-299 0)
(-8.523e-299 -5.47822e-299 0)
(-5.6342e-299 -3.37448e-299 0)
(-2.37323e-298 -5.02943e-298 0)
(-2.34378e-298 -7.68021e-298 0)
(-2.19025e-298 -8.99842e-298 0)
(-2.2051e-298 -9.89601e-298 0)
(-2.43132e-298 -1.05393e-297 0)
(-2.84831e-298 -1.09748e-297 0)
(-3.42259e-298 -1.12264e-297 0)
(-4.1062e-298 -1.13124e-297 0)
(-4.82595e-298 -1.12407e-297 0)
(-5.47521e-298 -1.09971e-297 0)
(-5.921e-298 -1.05268e-297 0)
(-6.04229e-298 -9.7204e-298 0)
(-5.81252e-298 -8.46652e-298 0)
(-5.2809e-298 -6.9492e-298 0)
(-4.56297e-298 -5.44299e-298 0)
(-3.78395e-298 -4.11916e-298 0)
(-3.03644e-298 -3.03695e-298 0)
(-2.37136e-298 -2.19201e-298 0)
(-1.80822e-298 -1.55266e-298 0)
(-1.3472e-298 -1.07954e-298 0)
(-9.78285e-299 -7.34627e-299 0)
(-6.86883e-299 -4.84506e-299 0)
(-4.57111e-299 -3.01216e-299 0)
(-1.82899e-298 -2.81514e-298 0)
(-1.97395e-298 -4.76058e-298 0)
(-1.92466e-298 -5.86374e-298 0)
(-1.90941e-298 -6.60526e-298 0)
(-1.99778e-298 -7.11634e-298 0)
(-2.19576e-298 -7.45267e-298 0)
(-2.48785e-298 -7.64544e-298 0)
(-2.84432e-298 -7.71475e-298 0)
(-3.22098e-298 -7.66981e-298 0)
(-3.56e-298 -7.50325e-298 0)
(-3.79722e-298 -7.18455e-298 0)
(-3.87879e-298 -6.66268e-298 0)
(-3.78196e-298 -5.90506e-298 0)
(-3.51407e-298 -4.98528e-298 0)
(-3.11918e-298 -4.03061e-298 0)
(-2.65878e-298 -3.14424e-298 0)
(-2.18882e-298 -2.38158e-298 0)
(-1.74837e-298 -1.75941e-298 0)
(-1.35903e-298 -1.27112e-298 0)
(-1.02882e-298 -8.98686e-299 0)
(-7.56785e-299 -6.20186e-299 0)
(-5.36649e-299 -4.13736e-299 0)
(-3.59464e-299 -2.59422e-299 0)
(-1.25998e-298 -1.5995e-298 0)
(-1.45429e-298 -2.94996e-298 0)
(-1.47952e-298 -3.80799e-298 0)
(-1.48596e-298 -4.40732e-298 0)
(-1.53247e-298 -4.82377e-298 0)
(-1.63381e-298 -5.09914e-298 0)
(-1.78638e-298 -5.26066e-298 0)
(-1.975e-298 -5.32632e-298 0)
(-2.17541e-298 -5.3049e-298 0)
(-2.35676e-298 -5.19361e-298 0)
(-2.48622e-298 -4.97692e-298 0)
(-2.53576e-298 -4.63237e-298 0)
(-2.489e-298 -4.15169e-298 0)
(-2.34432e-298 -3.57027e-298 0)
(-2.119e-298 -2.95165e-298 0)