/*--------------------------------*- C++ -*----------------------------------*\
| =========                 |                                                 |
| \\      /  F ield         | OpenFOAM: The Open Source CFD Toolbox           |
|  \\    /   O peration     | Version:  2406                                  |
|   \\  /    A nd           | Website:  www.openfoam.com                      |
|    \\/     M anipulation  |                                                 |
\*---------------------------------------------------------------------------*/
FoamFile
{
    version     2.0;
    format      ascii;
    arch        "LSB;label=32;scalar=64";
    class       volScalarField;
    location    "0.45";
    object      epsilon;
}
// * * * * * * * * * * * * * * * * * * * * * * * * * * * * * * * * * * * * * //

dimensions      [0 2 -3 0 0 0 0];

internalField   nonuniform List<scalar> 
2268
(
3.11056
4.22461
4.22461
4.22461
4.22461
4.22461
4.22461
4.22461
4.22461
4.22461
4.22461
4.22461
4.22461
0.0984143
0.0625136
0.0884038
0.104901
0.113183
0.113691
0.105825
0.0880418
0.0579413
0.0147185
1.99652
3.53904
3.87395
3.99094
4.04704
4.07915
4.09939
4.11284
4.12192
4.12796
4.13166
4.13343
4.13343
0.135645
0.0522305
0.0573374
0.0634575
0.0666845
0.066627
0.0629153
0.0548628
0.041737
0.0259877
1.99652
3.12319
3.57196
3.77086
3.87483
3.93633
3.9757
4.00204
4.01992
4.03183
4.03915
4.04264
4.04264
0.157669
0.0591771
0.0572014
0.0601909
0.0620118
0.0617707
0.0590862
0.0535133
0.0449143
0.0404493
1.99652
2.85875
3.32579
3.572
3.71211
3.79847
3.85491
3.89313
3.91926
3.93673
3.9475
3.95264
3.95264
0.174596
0.0667582
0.0604642
0.0614787
0.0624242
0.0620778
0.060043
0.0560497
0.0503709
0.0535802
1.99652
2.68257
3.12893
3.39682
3.5614
3.66728
3.7382
3.78692
3.82053
3.84312
3.8571
3.86378
3.86378
0.188129
0.0735681
0.0641772
0.0636694
0.0639224
0.0635034
0.0620297
0.0594426
0.0565262
0.066738
1.99652
2.55993
2.97193
3.24473
3.42379
3.54389
3.62645
3.68408
3.72425
3.75144
3.76833
3.77642
3.77642
0.199282
0.0794174
0.0675718
0.0657922
0.0654491
0.0649704
0.0640168
0.0628331
0.0631909
0.0826489
1.99652
2.47111
2.84601
3.11356
3.29936
3.4289
3.52027
3.58515
3.63088
3.66207
3.68152
3.69087
3.69087
0.208716
0.0843175
0.0703424
0.067445
0.0665693
0.0660271
0.0655326
0.0657169
0.0702928
0.109753
1.99652
2.40455
2.74407
3.00066
3.1875
3.32242
3.42
3.49049
3.54076
3.57531
3.59697
3.60741
3.60741
0.216851
0.088259
0.0722999
0.0683959
0.0670413
0.0664202
0.06627
0.0675288
0.0765955
0.182452
0.0164186
0.0659835
0.101312
0.124502
0.139335
0.14859
0.154111
0.157085
0.158225
0.15788
0.156094
0.152648
0.147101
0.138814
0.126974
0.110572
0.0882434
0.0578294
0.0177875
0.0264918
0.0453
0.060516
0.0706145
0.0770023
0.0809202
0.0832197
0.0844466
0.0849243
0.0848088
0.0841213
0.0827658
0.0805383
0.0771274
0.072106
0.0649083
0.054798
0.0410145
0.0255208
0.0410652
0.0476049
0.0575512
0.0643831
0.068717
0.0713589
0.0728978
0.0737149
0.0740343
0.0739627
0.0735138
0.0726196
0.0711317
0.0688118
0.065315
0.0601693
0.0528085
0.0430171
0.037028
0.0545449
0.0527089
0.0592624
0.0640884
0.0672178
0.0691381
0.0702577
0.0708518
0.0710824
0.0710258
0.0706902
0.0700221
0.0689032
0.0671358
0.0644201
0.0603379
0.0544241
0.0467951
0.0467828
0.0683674
0.0586333
0.0619983
0.0651098
0.0672743
0.0686396
0.0694447
0.069873
0.0700363
0.0699865
0.0697265
0.0692134
0.0683509
0.0669718
0.0648123
0.0614981
0.0566401
0.0505824
0.0551248
0.0854928
0.0649947
0.0647278
0.0662138
0.0675356
0.068434
0.0689794
0.0692719
0.0693798
0.0693342
0.0691341
0.0687442
0.0680863
0.067019
0.0653114
0.0626328
0.0586653
0.0539454
0.0624348
0.114681
0.071524
0.0668996
0.0668855
0.0674849
0.0679925
0.0683227
0.0685032
0.0685656
0.0685243
0.0683746
0.0680879
0.0676004
0.0667933
0.0654678
0.0633411
0.0601787
0.0567292
0.0690117
0.188282
0.0768858
0.0680123
0.0668481
0.0668839
0.0670825
0.0672423
0.0673343
0.0673612
0.0673248
0.0672174
0.0670155
0.0666669
0.0660725
0.0650647
0.0634156
0.0609964
0.0588324
0.0750788
1.99652
2.32441
2.61365
2.8485
3.03072
3.16899
3.27269
3.34954
3.40535
3.44416
3.46869
3.48056
3.48056
0.22776
0.0927688
0.0739041
0.0686232
0.0666222
0.0658525
0.0659906
0.0677777
0.0743467
0.0985442
1.99652
2.25443
2.4912
2.69466
2.86183
2.99522
3.09939
3.17908
3.23831
3.28019
3.30695
3.31999
3.31999
0.23851
0.0977587
0.0761511
0.0695018
0.0667789
0.065677
0.0656796
0.0670317
0.0707735
0.0791033
1.99652
2.20583
2.40242
2.57749
2.72709
2.85096
2.95085
3.02928
3.08879
3.13151
3.15908
3.1726
3.1726
0.246377
0.101754
0.0782205
0.0705588
0.0672325
0.0657453
0.0654156
0.0661698
0.0682561
0.0720249
1.99652
2.17008
2.33538
2.48605
2.61835
2.73092
2.82398
2.89862
2.95622
2.99812
3.02542
3.03887
3.03887
0.25231
0.104886
0.0799073
0.0714745
0.0676502
0.0657915
0.065105
0.0653565
0.0665314
0.0686735
1.99652
2.14267
2.28313
2.41316
2.52956
2.6306
2.71574
2.78518
2.83953
2.8795
2.90574
2.91874
2.91874
0.256889
0.107361
0.0812443
0.0722054
0.0679733
0.0657889
0.0647869
0.0646574
0.0653006
0.0667136
1.99652
2.12103
2.24141
2.35406
2.45628
2.54635
2.62335
2.68699
2.73737
2.77475
2.79946
2.81174
2.81174
0.260474
0.109344
0.0823026
0.0727779
0.0682151
0.0657608
0.0645017
0.0640914
0.0644003
0.065416
1.99652
2.10357
2.2075
2.30549
2.3953
2.4753
2.54446
2.60221
2.64834
2.68282
2.70572
2.71715
2.71715
0.263307
0.110949
0.0831478
0.0732305
0.0684029
0.0657334
0.0642748
0.0636609
0.0637495
0.0645236
1.99652
2.08927
2.17958
2.26519
2.34423
2.41521
2.47709
2.52918
2.57108
2.60258
2.6236
2.63411
2.63411
0.265563
0.112261
0.0838316
0.0735965
0.0685595
0.0657234
0.0641152
0.0633565
0.0632987
0.0639202
1.99652
2.07744
2.1564
2.23155
2.30129
2.36432
2.41961
2.46644
2.50432
2.53294
2.55209
2.56169
2.56169
0.267373
0.113346
0.0843931
0.0739001
0.0686987
0.0657363
0.0640191
0.0631598
0.0630059
0.0635319
1.99652
2.0676
2.13707
2.20337
2.26515
2.32123
2.37068
2.41276
2.44694
2.47285
2.49024
2.49897
2.49897
0.26884
0.114252
0.0848623
0.0741586
0.0688278
0.0657702
0.0639748
0.0630472
0.0628315
0.0632992
1.99652
2.0594
2.12092
2.17978
2.23477
2.28486
2.32919
2.36705
2.39791
2.42137
2.43715
2.44508
2.44508
0.270053
0.115025
0.085265
0.0743853
0.06895
0.0658195
0.0639677
0.0629942
0.0627395
0.0631726
1.99652
2.05258
2.10748
2.16008
2.20933
2.25432
2.29424
2.32843
2.35637
2.37765
2.39199
2.39921
2.39921
0.271091
0.115709
0.0856262
0.0745923
0.0690674
0.0658776
0.0639835
0.0629785
0.0626996
0.0631127
1.99652
2.04695
2.09636
2.14376
2.18821
2.2289
2.26508
2.29613
2.32155
2.34095
2.35404
2.36063
2.36063
0.272047
0.116356
0.0859751
0.0747927
0.0691816
0.0659379
0.0640093
0.0629818
0.0626881
0.0630902
1.99652
2.04235
2.08727
2.1304
2.17091
2.20803
2.2411
2.26952
2.29283
2.31063
2.32266
2.32871
2.32871
0.27305
0.117042
0.0863491
0.0749998
0.0692925
0.065993
0.0640332
0.0629891
0.062687
0.0630845
1.99652
2.03867
2.08
2.11971
2.15703
2.19127
2.22181
2.24809
2.26966
2.28615
2.2973
2.30292
2.30292
0.274326
0.117887
0.0867934
0.0752221
0.0693929
0.0660306
0.0640418
0.062987
0.0626829
0.0630815
1.99652
2.03582
2.07437
2.11141
2.14626
2.17826
2.20681
2.23141
2.25162
2.26708
2.27754
2.28281
2.28281
0.276326
0.119074
0.087342
0.0754429
0.0694568
0.0660277
0.0640173
0.0629617
0.0626648
0.0630715
1.99652
2.03374
2.07025
2.10535
2.13838
2.16872
2.19582
2.21918
2.23838
2.25307
2.26302
2.26803
2.26803
0.279993
0.120774
0.0879251
0.0755711
0.0694183
0.0659434
0.0639354
0.0628986
0.0626229
0.0630478
1.99652
2.03237
2.06755
2.10137
2.13321
2.16247
2.18861
2.21115
2.22968
2.24387
2.25348
2.25832
2.25832
0.286633
0.122499
0.0880794
0.0753501
0.0691507
0.0657168
0.0637665
0.0627828
0.0625499
0.063006
1.99652
2.0317
2.06621
2.09941
2.13066
2.15938
2.18504
2.20718
2.22538
2.23932
2.24875
2.25351
2.25351
0.286154
0.119932
0.0863738
0.0743
0.0684853
0.0652853
0.0634866
0.0626052
0.0624418
0.0629447
1.99652
2.0317
2.06621
2.09941
2.13066
2.15938
2.18504
2.20717
2.22537
2.23932
2.24875
2.25351
0.384277
0.151432
0.0995604
0.0808014
0.0720577
0.0673495
0.0646361
0.063096
0.0623683
0.0623016
0.062866
0.176586
0.210701
0.23229
0.246102
0.255303
0.261607
0.266091
0.269595
0.272994
0.27754
0.284749
0.284589
0.151094
0.105259
0.085471
0.0752741
0.0694712
0.0659795
0.0638524
0.0626306
0.0620902
0.0621388
0.0627752
0.0663102
0.0754931
0.088904
0.0984
0.10489
0.109346
0.112497
0.114911
0.117079
0.119385
0.121474
0.119142
0.0992056
0.0853461
0.0765231
0.0708179
0.067071
0.0646089
0.0630401
0.0621417
0.0617973
0.0619677
0.0626802
0.075085
0.0624751
0.0682234
0.0737589
0.0779248
0.0808948
0.0830118
0.0845897
0.0858628
0.0869008
0.0873362
0.0858232
0.0804614
0.0750864
0.0707351
0.0674476
0.0650542
0.0633777
0.0622814
0.0616753
0.0615153
0.0618027
0.062589
0.0872931
0.0626497
0.0639088
0.0668729
0.0694227
0.0713178
0.0726708
0.0736408
0.07434
0.0747707
0.0747425
0.073829
0.0717111
0.0692272
0.0669103
0.0649693
0.063453
0.0623477
0.0616249
0.0612638
0.0612641
0.0616555
0.0625082
0.0965465
0.0645913
0.0631689
0.0644758
0.0659031
0.0670109
0.0677892
0.0683127
0.0686382
0.0687622
0.0686007
0.0680153
0.0669532
0.0656515
0.0643452
0.0631809
0.0622325
0.0615314
0.0610911
0.0609242
0.0610558
0.061534
0.0624428
0.10324
0.0664259
0.0633342
0.0635669
0.0642215
0.0647599
0.0651117
0.0653094
0.0653858
0.0653413
0.065141
0.0647368
0.0641224
0.0633804
0.0626159
0.0619149
0.0613356
0.0609154
0.0606815
0.0606619
0.0608955
0.0614422
0.0623954
0.107987
0.0678451
0.0636872
0.0632235
0.0633546
0.0634908
0.063534
0.0634979
0.0634053
0.0632605
0.0630483
0.0627489
0.0623605
0.0619145
0.0614591
0.0610419
0.0607027
0.0604743
0.0603868
0.0604743
0.0607835
0.0613815
0.0623677
0.111294
0.068871
0.0640277
0.0631162
0.0628998
0.0627598
0.0625864
0.0623859
0.0621782
0.0619697
0.061753
0.0615159
0.0612537
0.0609762
0.0607044
0.0604636
0.06028
0.06018
0.060193
0.0603555
0.060718
0.0613521
0.0623611
0.113573
0.0695944
0.0643133
0.0631189
0.0626779
0.0623544
0.0620339
0.061721
0.0614354
0.0611852
0.0609654
0.0607657
0.0605774
0.0603996
0.0602389
0.0601079
0.0600237
0.0600076
0.0600872
0.0602999
0.0606981
0.0613558
0.0623785
0.115161
0.0701118
0.0645527
0.0631844
0.0626038
0.0621633
0.0617469
0.0613599
0.0610228
0.0607449
0.0605225
0.0603447
0.0602002
0.0600817
0.0599882
0.0599247
0.0599025
0.0599394
0.0600614
0.0603059
0.0607261
0.0613973
0.0624258
0.116345
0.0705134
0.0647754
0.0633035
0.0626405
0.0621296
0.0616542
0.0612205
0.0608506
0.0605547
0.0603298
0.0601645
0.0600455
0.0599619
0.0599082
0.0598851
0.0599003
0.0599692
0.0601166
0.0603795
0.0608114
0.0614878
0.0625148
0.117386
0.0708901
0.0650267
0.0634943
0.0627857
0.0622354
0.0617258
0.0612644
0.0608744
0.0605671
0.0603401
0.0601814
0.0600766
0.0600128
0.0599818
0.0599819
0.0600184
0.0601053
0.0602663
0.060538
0.0609735
0.0616477
0.0626657
0.118568
0.0713508
0.0653769
0.0638051
0.063071
0.0624986
0.0619692
0.0614913
0.0610889
0.0607744
0.0605453
0.0603897
0.0602922
0.0602388
0.0602199
0.0602322
0.0602797
0.0603753
0.0605418
0.060815
0.0612473
0.0619122
0.0629124
0.120269
0.0720559
0.0659443
0.0643297
0.0635705
0.0629777
0.0624313
0.0619399
0.0615279
0.0612075
0.0609759
0.0608208
0.0607263
0.0606776
0.0606643
0.0606819
0.0607339
0.0608318
0.060998
0.0612669
0.0616895
0.0623371
0.0633086
0.123084
0.0732772
0.0669353
0.0652334
0.0644168
0.0637813
0.0632042
0.0626922
0.0622673
0.0619393
0.0617038
0.0615473
0.0614529
0.0614053
0.0613933
0.0614121
0.061464
0.06156
0.0617211
0.0619805
0.0623865
0.0630072
0.0639363
0.128036
0.0755057
0.0687114
0.0667887
0.0658186
0.0650766
0.064431
0.0638782
0.0634303
0.06309
0.062848
0.0626881
0.0625918
0.0625429
0.0625297
0.0625467
0.0625956
0.0626863
0.0628383
0.0630826
0.0634645
0.0640471
0.0649169
0.136949
0.0796379
0.0718786
0.0694067
0.0680662
0.0670889
0.0663056
0.0656778
0.0651917
0.0648326
0.0645815
0.0644168
0.0643173
0.0642657
0.0642496
0.0642628
0.0643063
0.0643889
0.0645279
0.0647515
0.0651008
0.0656324
0.0664234
0.153131
0.0872789
0.0773594
0.0736135
0.0714936
0.0700751
0.0690603
0.0683191
0.0677811
0.0673998
0.0671394
0.0669703
0.0668679
0.0668132
0.0667933
0.0668015
0.0668379
0.0669096
0.0670318
0.0672289
0.0675364
0.068003
0.0686939
0.182888
0.101245
0.0863099
0.0798671
0.076352
0.0742597
0.0729404
0.0720721
0.0714869
0.0710918
0.0708294
0.0706609
0.0705585
0.0705022
0.0704788
0.0704814
0.0705093
0.0705678
0.0706693
0.0708338
0.0710901
0.0714776
0.0720472
0.241664
0.126444
0.0994326
0.0880332
0.0825704
0.0797507
0.0781849
0.0772531
0.0766686
0.0762916
0.0760476
0.0758924
0.0757975
0.0757437
0.0757189
0.0757166
0.0757352
0.0757785
0.0758555
0.0759812
0.0761769
0.0764712
0.0769001
0.407092
0.169886
0.114228
0.0963631
0.0895172
0.0865281
0.0850615
0.0842616
0.0837877
0.083492
0.0833036
0.083184
0.08311
0.0830668
0.0830452
0.0830399
0.0830495
0.083076
0.0831248
0.0832053
0.0833308
0.0835188
0.08379
1.58131
0.212472
0.117161
0.100743
0.0962917
0.0947143
0.0940256
0.0936708
0.0934653
0.0933377
0.0932559
0.0932033
0.09317
0.0931498
0.0931388
0.0931348
0.0931368
0.0931456
0.0931628
0.0931918
0.0932372
0.0933052
0.0934034
0.2195
0.170977
0.172614
0.226216
0.0908331
0.0921044
0.092492
0.092155
0.0757579
0.0772769
0.0773773
0.0762279
0.0708472
0.0718735
0.0718727
0.0710086
0.0683029
0.0690638
0.0690127
0.0682966
0.0666939
0.0673017
0.0672207
0.0665828
0.0656118
0.0661248
0.0660246
0.0654322
0.0648902
0.065344
0.0652308
0.0646645
0.0644294
0.0648468
0.0647244
0.0641721
0.0641535
0.0645491
0.0644201
0.063874
0.064002
0.0643847
0.064251
0.0637069
0.063928
0.0643033
0.0641663
0.0636224
0.0638979
0.0642691
0.0641301
0.0635858
0.0638888
0.0642582
0.0641185
0.0635743
0.063886
0.0642555
0.0641166
0.0635734
0.0638802
0.0642522
0.0641158
0.0635748
0.0638656
0.0642428
0.0641111
0.0635739
0.0638392
0.0642247
0.0641
0.0635685
0.0638
0.0641972
0.0640822
0.0635581
0.0637496
0.0641615
0.0640584
0.0635434
0.0636917
0.0641205
0.0640309
0.063526
0.0636313
0.0640779
0.0640022
0.0635079
0.0635737
0.0640375
0.0639754
0.0634911
0.0635234
0.0640028
0.0639529
0.0634777
0.0634836
0.0639761
0.0639365
0.0634691
0.0634564
0.0639592
0.0639279
0.0634668
0.0634432
0.0639535
0.0639283
0.0634722
0.0634457
0.0639606
0.0639398
0.0634877
0.0634671
0.063984
0.0639661
0.0635173
0.0635133
0.0640297
0.0640136
0.0635682
0.0635956
0.0641088
0.0640936
0.0636523
0.0637332
0.0642401
0.0642252
0.0637897
0.0639582
0.0644546
0.0644398
0.0640126
0.0643215
0.064802
0.0647871
0.0643724
0.0649017
0.0653594
0.0653445
0.0649477
0.0658167
0.0662429
0.066228
0.0658564
0.0672364
0.0676211
0.0676065
0.0672687
0.0693976
0.06973
0.0697162
0.0694217
0.0726197
0.0728895
0.0728772
0.0726354
0.0773226
0.0775213
0.0775112
0.0773304
0.0840491
0.0841705
0.0841636
0.0840503
0.0934935
0.093534
0.0935308
0.0934896
0.0994259
0.0741614
0.0674498
0.0655395
0.0649919
0.0648433
0.0648077
0.0647976
0.0647842
0.0647551
0.0646996
0.0645992
0.0644155
0.0640747
0.0634577
0.0624314
0.0610685
0.0609742
0.084
0.0794242
0.0701114
0.0659465
0.0641326
0.0633241
0.0629452
0.0627586
0.0626656
0.0626232
0.0626119
0.0626211
0.0626381
0.062637
0.0625671
0.0623525
0.0619444
0.0615935
0.0633998
0.0927339
0.0718761
0.0672391
0.0645226
0.0630154
0.0621864
0.0617254
0.06147
0.0613379
0.0612883
0.0613031
0.0613745
0.0614959
0.0616507
0.0618034
0.0619044
0.0619526
0.062296
0.0653206
0.0987629
0.0682283
0.0652283
0.0632809
0.0620547
0.0612987
0.0608398
0.0605716
0.0604335
0.0603936
0.0604391
0.0605672
0.0607766
0.0610578
0.0613845
0.0617216
0.0620932
0.0628993
0.066705
0.102896
0.0660743
0.0637783
0.0622581
0.061249
0.0605912
0.0601739
0.0599252
0.0598019
0.0597823
0.0598598
0.060037
0.0603177
0.060697
0.0611539
0.0616604
0.0622525
0.0633588
0.0676622
0.105699
0.0646477
0.0627157
0.0614508
0.0606018
0.0600383
0.059676
0.0594613
0.0593632
0.0593682
0.059476
0.0596942
0.0600302
0.0604824
0.0610327
0.0616559
0.0623934
0.0636897
0.068307
0.107574
0.0636669
0.0619453
0.0608404
0.0601068
0.0596227
0.059314
0.0591363
0.059066
0.0590957
0.05923
0.0594805
0.0598577
0.060362
0.0609766
0.0616772
0.0625071
0.0639204
0.0687325
0.108807
0.0630006
0.0614044
0.0604008
0.0597476
0.0593249
0.0590618
0.0589175
0.0588728
0.0589242
0.0590801
0.059355
0.0597615
0.0603015
0.0609585
0.0617083
0.0625947
0.0640778
0.0690082
0.109604
0.0625657
0.0610424
0.0601011
0.0595016
0.0591232
0.0588952
0.0587779
0.0587542
0.058823
0.0589953
0.0592875
0.059714
0.0602772
0.060961
0.0617406
0.0626601
0.0641833
0.0691841
0.11011
0.0622979
0.0608144
0.0599095
0.0593437
0.0589952
0.0587921
0.0586948
0.0586867
0.0587685
0.0589524
0.0592564
0.0596957
0.0602733
0.060973
0.0617698
0.0627077
0.064253
0.0692945
0.110426
0.062145
0.0606813
0.059796
0.05925
0.0589203
0.0587336
0.0586499
0.0586527
0.0587433
0.0589349
0.0592462
0.0596933
0.0602793
0.060988
0.061794
0.0627416
0.0642983
0.0693629
0.110621
0.0620663
0.0606112
0.0597353
0.0592
0.0588812
0.0587045
0.0586292
0.0586389
0.0587351
0.0589314
0.0592471
0.0596986
0.0602891
0.0610023
0.0618129
0.0627651
0.0643275
0.0694048
0.110739
0.0620321
0.0605799
0.0597078
0.0591775
0.0588643
0.0586932
0.0586228
0.0586365
0.0587358
0.0589348
0.0592528
0.0597065
0.0602991
0.0610145
0.061827
0.062781
0.0643459
0.06943
0.11081
0.062022
0.0605705
0.0596994
0.0591709
0.0588602
0.0586918
0.0586238
0.0586396
0.0587405
0.0589407
0.0592598
0.0597144
0.0603079
0.0610239
0.0618371
0.0627916
0.0643574
0.0694451
0.110852
0.0620231
0.060572
0.0597007
0.0591725
0.0588626
0.0586951
0.0586282
0.0586447
0.0587463
0.0589469
0.0592663
0.0597211
0.0603148
0.0610309
0.061844
0.0627985
0.0643645
0.0694541
0.110877
0.0620278
0.0605777
0.0597062
0.0591777
0.0588676
0.0587002
0.0586334
0.0586501
0.0587517
0.0589523
0.0592717
0.0597264
0.0603199
0.0610358
0.0618487
0.0628029
0.0643688
0.0694593
0.110891
0.0620321
0.0605841
0.0597127
0.0591837
0.0588732
0.0587054
0.0586383
0.0586548
0.0587563
0.0589567
0.0592758
0.0597303
0.0603235
0.0610392
0.0618517
0.0628057
0.0643714
0.0694623
0.1109
0.0620339
0.0605895
0.0597187
0.0591894
0.0588784
0.0587101
0.0586426
0.0586587
0.0587598
0.05896
0.0592789
0.059733
0.0603261
0.0610414
0.0618537
0.0628074
0.064373
0.0694641
0.110905
0.0620329
0.0605933
0.0597238
0.0591944
0.0588829
0.058714
0.0586461
0.0586618
0.0587626
0.0589624
0.0592811
0.059735
0.0603278
0.0610429
0.061855
0.0628085
0.0643739
0.0694651
0.110907
0.0620294
0.0605956
0.0597279
0.0591987
0.0588867
0.0587174
0.0586489
0.0586643
0.0587647
0.0589643
0.0592827
0.0597364
0.060329
0.0610439
0.0618558
0.0628092
0.0643745
0.0694658
0.110909
0.0620242
0.0605971
0.0597314
0.0592024
0.0588901
0.0587203
0.0586514
0.0586664
0.0587665
0.0589659
0.059284
0.0597376
0.06033
0.0610447
0.0618565
0.0628097
0.0643749
0.0694662
0.11091
0.0620187
0.0605983
0.0597348
0.0592061
0.0588935
0.0587232
0.0586539
0.0586685
0.0587683
0.0589674
0.0592853
0.0597387
0.0603309
0.0610455
0.0618571
0.0628102
0.0643753
0.0694666
0.110911
0.0620141
0.0606002
0.0597386
0.0592102
0.0588972
0.0587265
0.0586567
0.0586709
0.0587704
0.0589693
0.059287
0.0597401
0.0603321
0.0610464
0.0618578
0.0628107
0.0643758
0.069467
0.110913
0.0620116
0.0606034
0.0597436
0.0592153
0.0589019
0.0587306
0.0586604
0.0586742
0.0587734
0.0589719
0.0592893
0.0597422
0.0603338
0.0610479
0.061859
0.0628117
0.0643765
0.0694678
0.110915
0.0620125
0.0606092
0.0597506
0.0592223
0.0589085
0.0587367
0.058666
0.0586793
0.0587781
0.0589762
0.0592932
0.0597456
0.0603368
0.0610504
0.061861
0.0628132
0.0643778
0.0694691
0.110918
0.0620182
0.0606189
0.0597613
0.0592328
0.0589184
0.058746
0.0586747
0.0586875
0.0587858
0.0589834
0.0592997
0.0597514
0.0603419
0.0610547
0.0618646
0.0628161
0.0643801
0.0694715
0.110925
0.0620305
0.0606347
0.0597778
0.059249
0.0589341
0.058761
0.058689
0.0587011
0.0587987
0.0589955
0.0593109
0.0597616
0.0603509
0.0610625
0.061871
0.0628213
0.0643844
0.069476
0.110937
0.0620525
0.0606601
0.059804
0.0592749
0.0589594
0.0587855
0.0587127
0.058724
0.0588205
0.0590161
0.0593302
0.0597793
0.0603668
0.0610763
0.0618826
0.0628309
0.0643925
0.0694845
0.11096
0.062089
0.0607009
0.059846
0.0593169
0.0590008
0.0588261
0.0587522
0.0587623
0.0588574
0.0590514
0.0593635
0.0598101
0.0603946
0.0611008
0.0619036
0.0628484
0.0644075
0.0695004
0.111002
0.0621487
0.0607666
0.059914
0.0593854
0.0590689
0.0588933
0.0588181
0.0588266
0.0589198
0.0591113
0.0594205
0.0598634
0.0604435
0.0611445
0.0619416
0.0628808
0.0644357
0.0695305
0.111081
0.0622452
0.0608728
0.0600243
0.0594973
0.0591808
0.0590043
0.0589276
0.058934
0.0590246
0.0592127
0.0595176
0.0599553
0.0605289
0.061222
0.0620103
0.0629405
0.0644886
0.0695876
0.111229
0.0624011
0.061044
0.060203
0.0596793
0.0593637
0.0591865
0.0591082
0.0591119
0.059199
0.0593827
0.0596819
0.0601124
0.0606769
0.0613591
0.0621346
0.0630514
0.0645893
0.0696971
0.111507
0.0626519
0.0613189
0.0604905
0.0599731
0.0596599
0.0594827
0.0594026
0.0594034
0.0594863
0.0596644
0.0599565
0.0603778
0.060931
0.0615992
0.0623584
0.0632575
0.0647822
0.0699094
0.112032
0.063053
0.0617569
0.0609486
0.0604419
0.0601336
0.0599576
0.0598763
0.059874
0.0599522
0.0601241
0.0604081
0.0608196
0.0613608
0.0620151
0.0627584
0.0636409
0.0651556
0.0703273
0.113037
0.063688
0.0624463
0.0616686
0.0611789
0.0608792
0.0607066
0.0606253
0.0606205
0.0606943
0.0608601
0.0611367
0.0615399
0.0620732
0.0627218
0.0634633
0.0643496
0.0658824
0.0711634
0.114979
0.0646798
0.0635146
0.0627811
0.0623169
0.0620312
0.0618653
0.0617861
0.0617804
0.0618511
0.0620124
0.0622842
0.0626849
0.0632226
0.06389
0.0646745
0.0656374
0.0672927
0.0728574
0.118772
0.0662027
0.0651405
0.0644676
0.0640395
0.0637745
0.0636199
0.063546
0.0635418
0.0636117
0.0637713
0.0640431
0.0644512
0.0650155
0.0657503
0.0666767
0.0678981
0.0699724
0.0762917
0.126212
0.0684961
0.0675661
0.0669722
0.0665923
0.0663561
0.0662184
0.0661538
0.0661544
0.0662259
0.0663862
0.066662
0.0670873
0.0677046
0.0685747
0.069806
0.0716428
0.0748305
0.0831196
0.140729
0.0718796
0.071111
0.0706157
0.0702971
0.0700987
0.0699838
0.0699328
0.0699405
0.0700145
0.0701743
0.0704515
0.0708925
0.0715725
0.0726295
0.0743448
0.0773204
0.0829599
0.0961649
0.168757
0.0767701
0.0761906
0.0758131
0.0755692
0.0754176
0.0753316
0.0752971
0.075312
0.0753848
0.0755351
0.0757961
0.0762234
0.0769223
0.0781189
0.0803407
0.0848625
0.0948845
0.119845
0.225383
0.0837049
0.0833389
0.0830978
0.0829417
0.0828455
0.0827927
0.0827755
0.0827936
0.0828545
0.0829741
0.08318
0.0835226
0.0841079
0.0851928
0.0874677
0.0929461
0.108181
0.159097
0.386417
0.0933696
0.0932397
0.0931531
0.0930973
0.0930635
0.0930463
0.0930432
0.0930548
0.0930845
0.0931393
0.0932311
0.0933823
0.0936425
0.0941445
0.0953076
0.0987093
0.111937
0.193423
1.44645
)
;

boundaryField
{
    leftWall
    {
        type            epsilonWallFunction;
        blending        stepwise;
        value           nonuniform List<scalar> 
50
(
3.11056
1.99652
1.99652
1.99652
1.99652
1.99652
1.99652
1.99652
1.99652
1.99652
1.99652
1.99652
1.99652
1.99652
1.99652
1.99652
1.99652
1.99652
1.99652
1.99652
1.99652
1.99652
1.99652
1.99652
1.99652
1.99652
1.99652
1.99652
0.176586
0.0663102
0.075085
0.0872931
0.0965465
0.10324
0.107987
0.111294
0.113573
0.115161
0.116345
0.117386
0.118568
0.120269
0.123084
0.128036
0.136949
0.153131
0.182888
0.241664
0.407092
1.58131
)
;
    }
    rightWall
    {
        type            epsilonWallFunction;
        blending        stepwise;
        value           nonuniform List<scalar> 
50
(
0.0177875
0.0255208
0.037028
0.0467828
0.0551248
0.0624348
0.0690117
0.0750788
0.084
0.0927339
0.0987629
0.102896
0.105699
0.107574
0.108807
0.109604
0.11011
0.110426
0.110621
0.110739
0.11081
0.110852
0.110877
0.110891
0.1109
0.110905
0.110907
0.110909
0.11091
0.110911
0.110913
0.110915
0.110918
0.110925
0.110937
0.11096
0.111002
0.111081
0.111229
0.111507
0.112032
0.113037
0.114979
0.118772
0.126212
0.140729
0.168757
0.225383
0.386417
1.44645
)
;
    }
    lowerWall
    {
        type            epsilonWallFunction;
        blending        stepwise;
        value           nonuniform List<scalar> 
62
(
3.11056
4.22461
4.22461
4.22461
4.22461
4.22461
4.22461
4.22461
4.22461
4.22461
4.22461
4.22461
4.22461
0.0984143
0.0625136
0.0884038
0.104901
0.113183
0.113691
0.105825
0.0880418
0.0579413
0.0147185
0.0147185
0.0259877
0.0404493
0.0535802
0.066738
0.0826489
0.109753
0.182452
0.2195
0.170977
0.172614
0.226216
0.0164186
0.0264918
0.0410652
0.0545449
0.0683674
0.0854928
0.114681
0.188282
0.0164186
0.0659835
0.101312
0.124502
0.139335
0.14859
0.154111
0.157085
0.158225
0.15788
0.156094
0.152648
0.147101
0.138814
0.126974
0.110572
0.0882434
0.0578294
0.0177875
)
;
    }
    atmosphere
    {
        type            inletOutlet;
        inletValue      uniform 0.1;
        value           uniform 0.1;
    }
    defaultFaces
    {
        type            empty;
    }
}


// ************************************************************************* //
