/*--------------------------------*- C++ -*----------------------------------*\
| =========                 |                                                 |
| \\      /  F ield         | OpenFOAM: The Open Source CFD Toolbox           |
|  \\    /   O peration     | Version:  2406                                  |
|   \\  /    A nd           | Website:  www.openfoam.com                      |
|    \\/     M anipulation  |                                                 |
\*---------------------------------------------------------------------------*/
FoamFile
{
    version     2.0;
    format      ascii;
    arch        "LSB;label=32;scalar=64";
    class       volScalarField;
    location    "0.45";
    object      epsilon;
}
// * * * * * * * * * * * * * * * * * * * * * * * * * * * * * * * * * * * * * //

dimensions      [0 2 -3 0 0 0 0];

internalField   nonuniform List<scalar> 
2268
(
0.016456
0.0584299
0.0922792
0.11774
0.136939
0.151377
0.162136
0.170033
0.175702
0.179635
0.1822
0.183646
0.184106
0.183582
0.181933
0.178838
0.173746
0.165777
0.153567
0.135053
0.107313
0.0670319
0.0153734
0.0266566
0.0406141
0.0543276
0.0648088
0.0725956
0.0783249
0.0824979
0.0854943
0.0876017
0.0890361
0.0899545
0.0904604
0.0906068
0.0903935
0.0897609
0.0885769
0.0866151
0.0835185
0.0787438
0.07149
0.0606701
0.0452779
0.0282829
0.0402947
0.0419049
0.0500011
0.056649
0.0616378
0.0652825
0.0679033
0.0697583
0.0710443
0.071908
0.0724535
0.0727488
0.0728278
0.0726901
0.0722977
0.0715679
0.0703615
0.0684662
0.0655756
0.0612742
0.0550801
0.0469384
0.0455419
0.0521546
0.0451156
0.0499063
0.0544475
0.0579629
0.0605436
0.0623902
0.0636857
0.0645748
0.0651657
0.0655351
0.0657323
0.0657818
0.0656841
0.0654136
0.0649158
0.0641025
0.0628488
0.0609979
0.0583931
0.0549986
0.0515832
0.0618386
0.062323
0.0484869
0.0508759
0.0539363
0.0564392
0.0583032
0.0596368
0.0605663
0.0611982
0.0616138
0.0618706
0.0620056
0.0620376
0.0619679
0.0617804
0.0614414
0.0609004
0.0600991
0.0589993
0.0576656
0.056504
0.0572672
0.0782828
0.0710715
0.0516185
0.0521294
0.0540505
0.0557802
0.0571015
0.0580497
0.0587059
0.0591466
0.0594319
0.0596053
0.0596944
0.0597138
0.059666
0.0595423
0.0593255
0.0589953
0.0585467
0.0580393
0.0577376
0.0585372
0.0636973
0.097695
0.0786311
0.0544097
0.0533996
0.0544082
0.0555188
0.0564053
0.0570452
0.0574828
0.0577704
0.0579514
0.0580574
0.0581094
0.0581185
0.0580882
0.058016
0.0578977
0.0577369
0.05757
0.0575331
0.0580559
0.0605432
0.0707289
0.129525
0.0851832
0.0568528
0.054585
0.0548474
0.0554498
0.0559781
0.0563627
0.0566187
0.0567784
0.0568716
0.0569208
0.0569409
0.0569406
0.0569241
0.0568937
0.0568554
0.0568307
0.0568855
0.0572061
0.0583209
0.0619697
0.0769315
0.213986
0.0169045
0.0728659
0.114702
0.14211
0.159453
0.170205
0.176623
0.180073
0.18133
0.180756
0.178405
0.174072
0.167324
0.157502
0.143692
0.12465
0.0986349
0.0631821
0.0181496
0.0279508
0.047534
0.0635968
0.0742846
0.0810713
0.0852691
0.0877632
0.0891045
0.0896112
0.0894343
0.088596
0.0870088
0.0844833
0.0807232
0.0753076
0.0676568
0.057
0.0425588
0.0266519
0.0442379
0.0481179
0.0567811
0.0629471
0.0669949
0.069547
0.0710791
0.0719102
0.0722327
0.07214
0.0716446
0.0706878
0.0691414
0.0668029
0.063384
0.0585009
0.0517194
0.0430168
0.0394337
0.0595812
0.0520342
0.0559452
0.0594147
0.0619111
0.0635665
0.0645892
0.0651541
0.0653782
0.0653204
0.0649865
0.064332
0.0632618
0.061626
0.0592152
0.0557708
0.0510877
0.0456998
0.0505102
0.0751781
0.0570631
0.0568347
0.0581929
0.0595438
0.0605585
0.0612245
0.0616048
0.0617594
0.0617211
0.0614897
0.0610298
0.0602692
0.0590957
0.0573582
0.0548936
0.0516725
0.048669
0.0599996
0.0939898
0.0627812
0.058309
0.0578576
0.0582914
0.0588043
0.0591933
0.0594308
0.0595311
0.0595059
0.0593499
0.0590344
0.0585042
0.0576764
0.0564464
0.0547264
0.0526256
0.0514764
0.0681614
0.125359
0.0689207
0.0598135
0.0578458
0.0575521
0.0576668
0.0578346
0.0579575
0.0580141
0.0579997
0.0579042
0.0577041
0.0573581
0.0568066
0.0559824
0.0548579
0.0536526
0.053999
0.0752124
0.204891
0.0741132
0.0608791
0.0578718
0.0570484
0.0568571
0.0568499
0.056881
0.056903
0.0568986
0.0568545
0.0567512
0.0565585
0.0562361
0.0557465
0.0551109
0.0546375
0.0562162
0.0813215
0.0941431
0.0601682
0.0562495
0.0555452
0.0554871
0.0555462
0.0555941
0.055609
0.0555978
0.0555727
0.0555443
0.05552
0.0555053
0.0555049
0.0555268
0.0555886
0.0557308
0.0560475
0.056759
0.0583983
0.0623605
0.0728335
0.104944
0.103047
0.0634061
0.0579129
0.0563081
0.055631
0.0552429
0.0549634
0.0547386
0.0545537
0.0544054
0.0542935
0.0542186
0.0541821
0.0541885
0.0542479
0.0543823
0.0546365
0.0550996
0.0559481
0.0575322
0.0605462
0.066331
0.0771611
0.109562
0.065704
0.0590882
0.0568551
0.0557441
0.0550367
0.0545181
0.0541139
0.0537954
0.0535495
0.0533688
0.0532487
0.0531875
0.0531874
0.0532572
0.0534161
0.053701
0.0541772
0.0549571
0.0562234
0.0582474
0.0613404
0.0655325
0.114276
0.0673154
0.0598995
0.0572255
0.055808
0.0548712
0.0541766
0.053637
0.0532147
0.0528905
0.052652
0.0524909
0.0524023
0.0523857
0.0524462
0.0525972
0.0528632
0.0532848
0.0539217
0.0548522
0.0561544
0.0578396
0.0596914
0.117636
0.0684306
0.0604497
0.057467
0.0558331
0.0547311
0.0539067
0.0532645
0.0527614
0.052374
0.0520867
0.0518883
0.0517712
0.0517316
0.0517705
0.0518946
0.0521173
0.0524592
0.0529463
0.053603
0.0544341
0.0553877
0.0563012
0.119991
0.0691912
0.060817
0.0576202
0.055834
0.0546133
0.0536934
0.0529735
0.0524074
0.0519691
0.0516406
0.0514086
0.0512632
0.0511975
0.0512086
0.0512973
0.0514684
0.051729
0.0520862
0.0525402
0.0530738
0.0536359
0.0541279
0.121612
0.0697021
0.0610589
0.0577151
0.0558228
0.0545172
0.0535272
0.0527488
0.0521338
0.0516545
0.0512916
0.05103
0.0508577
0.0507655
0.0507471
0.0507988
0.0509192
0.0511074
0.0513608
0.0516706
0.0520162
0.0523594
0.0526428
0.122707
0.07004
0.0612161
0.057773
0.0558073
0.0544416
0.0534005
0.0525783
0.0519256
0.0514138
0.0510224
0.0507352
0.0505386
0.0504213
0.0503746
0.0503915
0.0504667
0.0505946
0.0507685
0.050977
0.0512021
0.0514172
0.0515884
0.123434
0.0702601
0.061317
0.0578079
0.0557922
0.0543843
0.0533064
0.0524517
0.0517703
0.0512328
0.0508183
0.0505094
0.0502916
0.050152
0.0500799
0.0500662
0.0501032
0.0501831
0.0502973
0.0504349
0.0505812
0.050718
0.0508248
0.123909
0.0704013
0.0613811
0.0578288
0.0557795
0.0543425
0.0532384
0.0523599
0.0516567
0.0510994
0.0506664
0.0503398
0.050104
0.0499452
0.0498514
0.0498122
0.0498183
0.0498608
0.0499309
0.0500187
0.0501125
0.0501997
0.0502674
0.124214
0.0704907
0.0614215
0.0578414
0.0557699
0.054313
0.0531905
0.0522948
0.0515756
0.0510031
0.0505556
0.0502147
0.0499643
0.0497897
0.0496782
0.0496183
0.0496
0.0496142
0.049652
0.0497046
0.049763
0.049818
0.049861
0.124407
0.0705466
0.0614467
0.0578491
0.0557631
0.0542929
0.0531576
0.0522497
0.0515188
0.0509351
0.0504765
0.0501245
0.0498624
0.0496752
0.0495496
0.0494735
0.0494366
0.0494295
0.0494439
0.0494719
0.0495062
0.0495397
0.0495667
0.124527
0.0705811
0.0614624
0.0578538
0.0557586
0.0542796
0.0531357
0.0522193
0.05148
0.050888
0.0504212
0.0500607
0.0497896
0.0495927
0.0494561
0.0493677
0.0493168
0.0492942
0.0492918
0.0493026
0.0493203
0.0493395
0.049356
0.124601
0.0706022
0.061472
0.0578568
0.0557558
0.0542711
0.0531214
0.0521992
0.0514541
0.0508562
0.0503833
0.0500165
0.0497387
0.0495345
0.0493897
0.0492921
0.049231
0.0491971
0.0491829
0.0491817
0.0491881
0.0491977
0.0492071
0.124646
0.0706149
0.0614779
0.0578587
0.0557542
0.0542658
0.0531124
0.0521863
0.0514372
0.0508351
0.0503578
0.0499865
0.0497038
0.0494942
0.0493435
0.0492392
0.0491707
0.0491289
0.0491064
0.0490969
0.0490957
0.0490988
0.0491037
0.124673
0.0706225
0.0614815
0.0578599
0.0557532
0.0542626
0.0531068
0.0521782
0.0514263
0.0508214
0.0503411
0.0499666
0.0496804
0.0494669
0.0493119
0.049203
0.0491293
0.049082
0.0490538
0.0490387
0.0490323
0.0490311
0.0490329
0.124689
0.0706271
0.0614837
0.0578608
0.0557528
0.0542608
0.0531035
0.0521732
0.0514195
0.0508127
0.0503304
0.0499536
0.049665
0.0494488
0.0492909
0.0491786
0.0491014
0.0490504
0.0490183
0.0489995
0.0489896
0.0489856
0.0489854
0.124699
0.0706297
0.061485
0.0578613
0.0557526
0.0542598
0.0531015
0.0521701
0.0514154
0.0508073
0.0503236
0.0499453
0.0496551
0.0494371
0.0492771
0.0491626
0.049083
0.0490295
0.0489948
0.0489735
0.0489614
0.0489556
0.0489541
0.124704
0.0706313
0.0614858
0.0578616
0.0557525
0.0542592
0.0531004
0.0521684
0.0514129
0.050804
0.0503194
0.0499401
0.0496488
0.0494296
0.0492683
0.0491523
0.0490711
0.0490159
0.0489796
0.0489567
0.0489432
0.0489362
0.0489338
0.124708
0.0706322
0.0614863
0.0578619
0.0557525
0.0542589
0.0530997
0.0521674
0.0514114
0.050802
0.0503169
0.049937
0.0496449
0.0494249
0.0492627
0.0491458
0.0490636
0.0490073
0.0489699
0.048946
0.0489316
0.0489238
0.0489209
0.124709
0.0706327
0.0614866
0.057862
0.0557525
0.0542588
0.0530994
0.0521668
0.0514106
0.0508009
0.0503154
0.049935
0.0496425
0.049422
0.0492593
0.0491418
0.0490589
0.0490019
0.0489639
0.0489393
0.0489243
0.0489161
0.0489129
0.124711
0.070633
0.0614867
0.0578621
0.0557525
0.0542587
0.0530992
0.0521665
0.0514101
0.0508002
0.0503145
0.0499339
0.0496411
0.0494203
0.0492572
0.0491393
0.0490561
0.0489987
0.0489602
0.0489352
0.0489199
0.0489114
0.0489079
0.124711
0.0706332
0.0614868
0.0578622
0.0557525
0.0542587
0.0530991
0.0521663
0.0514098
0.0507998
0.050314
0.0499333
0.0496403
0.0494193
0.049256
0.0491379
0.0490543
0.0489967
0.0489579
0.0489327
0.0489172
0.0489085
0.048905
0.124711
0.0706333
0.0614869
0.0578622
0.0557526
0.0542587
0.0530991
0.0521662
0.0514097
0.0507996
0.0503137
0.0499329
0.0496398
0.0494187
0.0492553
0.049137
0.0490533
0.0489955
0.0489566
0.0489313
0.0489156
0.0489068
0.0489032
0.124712
0.0706334
0.0614869
0.0578622
0.0557526
0.0542587
0.0530991
0.0521662
0.0514096
0.0507995
0.0503136
0.0499327
0.0496396
0.0494184
0.0492548
0.0491365
0.0490528
0.0489949
0.0489559
0.0489304
0.0489147
0.0489058
0.0489022
0.124712
0.0706334
0.061487
0.0578623
0.0557526
0.0542587
0.0530991
0.0521662
0.0514096
0.0507995
0.0503135
0.0499326
0.0496394
0.0494182
0.0492546
0.0491362
0.0490524
0.0489945
0.0489554
0.04893
0.0489142
0.0489053
0.0489016
0.124712
0.0706334
0.061487
0.0578623
0.0557526
0.0542587
0.0530991
0.0521662
0.0514096
0.0507994
0.0503134
0.0499325
0.0496394
0.0494181
0.0492545
0.0491361
0.0490522
0.0489943
0.0489552
0.0489297
0.0489139
0.048905
0.0489013
0.124712
0.0706334
0.061487
0.0578623
0.0557526
0.0542587
0.0530991
0.0521662
0.0514096
0.0507994
0.0503134
0.0499325
0.0496393
0.049418
0.0492544
0.049136
0.0490521
0.0489941
0.0489551
0.0489295
0.0489137
0.0489048
0.0489011
0.124712
0.0706334
0.061487
0.0578623
0.0557526
0.0542587
0.0530991
0.0521662
0.0514096
0.0507994
0.0503134
0.0499325
0.0496393
0.049418
0.0492544
0.0491359
0.0490521
0.0489941
0.048955
0.0489295
0.0489136
0.0489047
0.048901
0.124712
0.0706334
0.061487
0.0578623
0.0557526
0.0542587
0.0530991
0.0521662
0.0514096
0.0507994
0.0503134
0.0499325
0.0496393
0.049418
0.0492544
0.0491359
0.0490521
0.048994
0.0489549
0.0489294
0.0489136
0.0489047
0.048901
0.124712
0.0706334
0.061487
0.0578623
0.0557526
0.0542587
0.0530991
0.0521662
0.0514096
0.0507994
0.0503134
0.0499325
0.0496393
0.049418
0.0492544
0.0491359
0.049052
0.048994
0.0489549
0.0489294
0.0489135
0.0489046
0.0489009
0.124712
0.0706334
0.061487
0.0578623
0.0557526
0.0542587
0.0530991
0.0521662
0.0514096
0.0507994
0.0503134
0.0499325
0.0496393
0.049418
0.0492544
0.0491359
0.049052
0.048994
0.0489549
0.0489294
0.0489135
0.0489046
0.0489009
0.124712
0.0706334
0.061487
0.0578623
0.0557526
0.0542587
0.0530991
0.0521662
0.0514096
0.0507994
0.0503134
0.0499325
0.0496393
0.049418
0.0492543
0.0491359
0.049052
0.048994
0.0489549
0.0489294
0.0489135
0.0489046
0.0489009
0.124712
0.0706334
0.061487
0.0578623
0.0557526
0.0542587
0.0530991
0.0521662
0.0514096
0.0507994
0.0503134
0.0499325
0.0496393
0.049418
0.0492543
0.0491359
0.049052
0.048994
0.0489549
0.0489294
0.0489135
0.0489046
0.0489009
0.124712
0.0706334
0.061487
0.0578623
0.0557526
0.0542587
0.0530991
0.0521662
0.0514096
0.0507994
0.0503134
0.0499325
0.0496393
0.049418
0.0492543
0.0491359
0.049052
0.048994
0.0489549
0.0489293
0.0489135
0.0489045
0.0489008
0.124712
0.0706334
0.061487
0.0578623
0.0557526
0.0542587
0.0530991
0.0521662
0.0514096
0.0507994
0.0503134
0.0499325
0.0496393
0.049418
0.0492543
0.0491359
0.049052
0.048994
0.0489549
0.0489293
0.0489134
0.0489045
0.0489008
0.124712
0.0706334
0.061487
0.0578623
0.0557526
0.0542587
0.0530991
0.0521662
0.0514096
0.0507994
0.0503134
0.0499325
0.0496393
0.049418
0.0492543
0.0491359
0.049052
0.048994
0.0489548
0.0489293
0.0489134
0.0489045
0.0489008
0.124712
0.0706334
0.061487
0.0578623
0.0557526
0.0542587
0.0530991
0.0521662
0.0514096
0.0507994
0.0503134
0.0499325
0.0496393
0.049418
0.0492543
0.0491359
0.049052
0.048994
0.0489548
0.0489293
0.0489134
0.0489045
0.0489007
0.124712
0.0706334
0.061487
0.0578623
0.0557526
0.0542587
0.0530991
0.0521662
0.0514096
0.0507994
0.0503134
0.0499325
0.0496393
0.049418
0.0492543
0.0491359
0.049052
0.0489939
0.0489548
0.0489293
0.0489134
0.0489044
0.0489007
0.124712
0.0706334
0.061487
0.0578623
0.0557526
0.0542587
0.0530991
0.0521662
0.0514096
0.0507994
0.0503134
0.0499325
0.0496393
0.049418
0.0492543
0.0491359
0.049052
0.0489939
0.0489548
0.0489292
0.0489133
0.0489044
0.0489006
0.124712
0.0706334
0.061487
0.0578623
0.0557526
0.0542587
0.0530991
0.0521662
0.0514096
0.0507994
0.0503134
0.0499325
0.0496393
0.049418
0.0492543
0.0491359
0.049052
0.0489939
0.0489548
0.0489292
0.0489133
0.0489043
0.0489006
0.124712
0.0706334
0.061487
0.0578623
0.0557526
0.0542587
0.0530991
0.0521662
0.0514096
0.0507994
0.0503134
0.0499325
0.0496393
0.049418
0.0492543
0.0491358
0.049052
0.0489939
0.0489548
0.0489292
0.0489133
0.0489043
0.0489006
0.253141
0.195528
0.195098
0.250673
0.0905028
0.0912089
0.0911689
0.090417
0.0684147
0.0692289
0.0692247
0.0684066
0.0606689
0.0609983
0.0609989
0.0606716
0.0567227
0.0568668
0.0568686
0.0567283
0.0543389
0.0544107
0.0544127
0.0543451
0.0527596
0.0527993
0.0528013
0.0527657
0.0516577
0.0516815
0.0516835
0.0516637
0.0508678
0.0508828
0.0508848
0.0508737
0.0502949
0.0503049
0.0503069
0.0503009
0.049879
0.0498858
0.0498878
0.049885
0.0495786
0.0495835
0.0495855
0.0495847
0.0493639
0.0493675
0.0493696
0.0493701
0.0492125
0.0492152
0.0492173
0.0492188
0.0491073
0.0491095
0.0491116
0.0491136
0.0490354
0.0490373
0.0490394
0.0490418
0.0489872
0.0489888
0.0489909
0.0489937
0.0489554
0.0489568
0.048959
0.0489619
0.0489348
0.0489362
0.0489383
0.0489414
0.0489217
0.048923
0.0489252
0.0489283
0.0489135
0.0489149
0.048917
0.0489202
0.0489085
0.0489098
0.048912
0.0489152
0.0489055
0.0489068
0.048909
0.0489122
0.0489038
0.048905
0.0489072
0.0489104
0.0489027
0.048904
0.0489062
0.0489094
0.0489021
0.0489034
0.0489056
0.0489088
0.0489018
0.0489031
0.0489052
0.0489084
0.0489016
0.0489029
0.0489051
0.0489083
0.0489015
0.0489028
0.048905
0.0489082
0.0489015
0.0489027
0.0489049
0.0489081
0.0489014
0.0489027
0.0489049
0.0489081
0.0489014
0.0489027
0.0489048
0.048908
0.0489014
0.0489026
0.0489048
0.048908
0.0489014
0.0489026
0.0489048
0.048908
0.0489013
0.0489026
0.0489048
0.048908
0.0489013
0.0489026
0.0489047
0.0489079
0.0489013
0.0489025
0.0489047
0.0489079
0.0489012
0.0489025
0.0489046
0.0489078
0.0489012
0.0489024
0.0489046
0.0489078
0.0489011
0.0489023
0.0489045
0.0489077
0.048901
0.0489023
0.0489045
0.0489077
0.048901
0.0489022
0.0489044
0.0489076
0.102307
0.0708705
0.0611791
0.0577407
0.0564104
0.0558744
0.0556578
0.0555769
0.055558
0.0555701
0.0555966
0.0556237
0.0556354
0.0556157
0.0555653
0.055566
0.0560403
0.0592305
0.0896705
0.0764097
0.0652879
0.05967
0.0569105
0.0555434
0.0548574
0.0545166
0.0543635
0.0543244
0.0543655
0.0544713
0.0546345
0.0548524
0.0551303
0.0555017
0.056101
0.0574569
0.0621745
0.097954
0.0653175
0.0608262
0.0576858
0.0557455
0.0546023
0.053947
0.0535896
0.0534235
0.0533927
0.0534703
0.0536456
0.0539177
0.0542934
0.0547918
0.0554671
0.0564882
0.0584586
0.0642593
0.104004
0.0596259
0.0575875
0.0558162
0.0545216
0.0536535
0.053107
0.052793
0.0526519
0.0526492
0.0527687
0.0530065
0.0533676
0.0538657
0.0545291
0.0554253
0.0567458
0.0591475
0.0657172
0.108373
0.0562824
0.0552631
0.0542376
0.0533907
0.0527662
0.0523472
0.0521028
0.0520069
0.0520436
0.0522075
0.0525014
0.0529358
0.0535296
0.0543172
0.0553745
0.0569079
0.059612
0.0667234
0.111482
0.0541257
0.0535753
0.0529645
0.0524147
0.051982
0.0516818
0.0515125
0.0514692
0.0515497
0.0517574
0.0521013
0.0525962
0.0532649
0.0541461
0.0553208
0.0570054
0.05992
0.067408
0.113659
0.0526474
0.052333
0.0519609
0.0516067
0.0513173
0.0511172
0.0510182
0.0510269
0.0511507
0.0513994
0.0517868
0.0523314
0.0530588
0.0540103
0.0552705
0.0570617
0.0601214
0.0678671
0.115156
0.0515963
0.0514103
0.0511813
0.0509566
0.050772
0.0506521
0.0506136
0.0506697
0.0508332
0.0511186
0.0515432
0.0521281
0.0529012
0.0539053
0.0552272
0.057093
0.0602515
0.0681705
0.116168
0.0508345
0.0507229
0.050583
0.0504452
0.0503365
0.0502789
0.0502904
0.0503871
0.0505852
0.0509021
0.0513576
0.0519749
0.0527831
0.0538263
0.0551923
0.0571098
0.0603346
0.068368
0.11684
0.0502783
0.0502123
0.0501296
0.050051
0.049997
0.0499868
0.0500381
0.0501682
0.0503952
0.0507383
0.0512191
0.0518618
0.0526966
0.0537685
0.0551659
0.0571187
0.0603872
0.0684949
0.117279
0.0498728
0.0498358
0.0497908
0.0497528
0.0497381
0.0497634
0.0498456
0.0500024
0.0502527
0.0506169
0.0511176
0.05178
0.0526349
0.0537274
0.0551467
0.0571233
0.0604203
0.0685753
0.117562
0.0495792
0.0495611
0.0495413
0.0495314
0.0495448
0.0495963
0.049702
0.0498795
0.050148
0.0505288
0.051045
0.0517222
0.0525917
0.0536991
0.0551334
0.0571257
0.060441
0.0686258
0.117741
0.049369
0.0493634
0.0493607
0.0493702
0.0494035
0.049474
0.0495972
0.0497903
0.0500728
0.0504662
0.050994
0.0516822
0.0525623
0.05368
0.0551245
0.0571271
0.0604538
0.068657
0.117854
0.0492205
0.0492233
0.0492322
0.0492551
0.0493024
0.0493865
0.0495224
0.0497271
0.0500199
0.0504227
0.050959
0.0516551
0.0525427
0.0536675
0.0551188
0.057128
0.0604618
0.0686762
0.117923
0.0491174
0.0491257
0.0491424
0.0491745
0.0492314
0.0493252
0.0494701
0.0496831
0.0499835
0.050393
0.0509354
0.0516372
0.0525299
0.0536595
0.0551152
0.0571286
0.0604667
0.0686879
0.117966
0.0490468
0.049059
0.0490808
0.0491191
0.0491827
0.0492831
0.0494344
0.0496532
0.0499589
0.0503732
0.0509199
0.0516256
0.0525218
0.0536545
0.0551131
0.057129
0.0604698
0.0686949
0.117992
0.0489995
0.0490141
0.0490394
0.0490818
0.0491499
0.0492548
0.0494104
0.0496333
0.0499427
0.0503603
0.0509099
0.0516182
0.0525168
0.0536515
0.0551118
0.0571293
0.0604716
0.0686991
0.118007
0.0489683
0.0489845
0.049012
0.0490572
0.0491282
0.0492362
0.0493947
0.0496203
0.0499322
0.050352
0.0509036
0.0516136
0.0525137
0.0536497
0.0551111
0.0571296
0.0604728
0.0687016
0.118016
0.0489481
0.0489653
0.0489943
0.0490412
0.0491142
0.0492242
0.0493846
0.049612
0.0499255
0.0503468
0.0508997
0.0516108
0.0525118
0.0536487
0.0551108
0.0571298
0.0604735
0.0687031
0.118022
0.0489353
0.0489531
0.0489831
0.0490311
0.0491053
0.0492165
0.0493782
0.0496068
0.0499214
0.0503436
0.0508973
0.0516091
0.0525108
0.0536481
0.0551106
0.0571299
0.0604739
0.068704
0.118025
0.0489273
0.0489455
0.0489761
0.0490248
0.0490998
0.0492118
0.0493743
0.0496036
0.0499188
0.0503416
0.0508959
0.0516081
0.0525101
0.0536478
0.0551105
0.05713
0.0604742
0.0687045
0.118027
0.0489224
0.0489409
0.0489718
0.0490209
0.0490964
0.0492089
0.0493719
0.0496016
0.0499173
0.0503405
0.0508951
0.0516076
0.0525098
0.0536477
0.0551105
0.0571301
0.0604743
0.0687048
0.118028
0.0489194
0.0489381
0.0489692
0.0490186
0.0490944
0.0492072
0.0493705
0.0496005
0.0499164
0.0503398
0.0508946
0.0516073
0.0525096
0.0536476
0.0551105
0.0571301
0.0604744
0.068705
0.118029
0.0489177
0.0489364
0.0489676
0.0490172
0.0490932
0.0492062
0.0493696
0.0495998
0.0499159
0.0503394
0.0508943
0.0516071
0.0525095
0.0536475
0.0551105
0.0571302
0.0604745
0.0687051
0.118029
0.0489167
0.0489354
0.0489668
0.0490164
0.0490925
0.0492056
0.0493692
0.0495995
0.0499156
0.0503392
0.0508942
0.051607
0.0525095
0.0536475
0.0551105
0.0571302
0.0604745
0.0687051
0.118029
0.0489161
0.0489349
0.0489663
0.049016
0.0490921
0.0492053
0.0493689
0.0495993
0.0499155
0.0503391
0.0508941
0.051607
0.0525095
0.0536475
0.0551105
0.0571302
0.0604745
0.0687051
0.118029
0.0489158
0.0489346
0.048966
0.0490157
0.0490919
0.0492051
0.0493687
0.0495991
0.0499154
0.0503391
0.0508941
0.051607
0.0525095
0.0536475
0.0551105
0.0571302
0.0604745
0.0687052
0.118029
0.0489156
0.0489344
0.0489658
0.0490156
0.0490918
0.049205
0.0493687
0.0495991
0.0499153
0.050339
0.0508941
0.051607
0.0525095
0.0536475
0.0551105
0.0571302
0.0604745
0.0687052
0.118029
0.0489155
0.0489343
0.0489657
0.0490155
0.0490917
0.049205
0.0493686
0.049599
0.0499153
0.050339
0.050894
0.0516069
0.0525095
0.0536475
0.0551105
0.0571302
0.0604745
0.0687052
0.118029
0.0489154
0.0489343
0.0489657
0.0490155
0.0490917
0.0492049
0.0493686
0.049599
0.0499153
0.050339
0.050894
0.0516069
0.0525095
0.0536475
0.0551105
0.0571302
0.0604745
0.0687052
0.118029
0.0489154
0.0489342
0.0489657
0.0490155
0.0490917
0.0492049
0.0493686
0.049599
0.0499153
0.050339
0.050894
0.0516069
0.0525095
0.0536475
0.0551105
0.0571302
0.0604745
0.0687052
0.118029
0.0489154
0.0489342
0.0489656
0.0490154
0.0490917
0.0492049
0.0493686
0.049599
0.0499153
0.050339
0.050894
0.0516069
0.0525095
0.0536475
0.0551105
0.0571302
0.0604745
0.0687052
0.118029
0.0489154
0.0489342
0.0489656
0.0490154
0.0490916
0.0492049
0.0493686
0.049599
0.0499153
0.050339
0.050894
0.0516069
0.0525095
0.0536475
0.0551105
0.0571302
0.0604745
0.0687052
0.118029
0.0489153
0.0489342
0.0489656
0.0490154
0.0490916
0.0492049
0.0493686
0.049599
0.0499153
0.050339
0.050894
0.0516069
0.0525095
0.0536475
0.0551105
0.0571302
0.0604745
0.0687052
0.118029
0.0489153
0.0489342
0.0489656
0.0490154
0.0490916
0.0492049
0.0493686
0.049599
0.0499153
0.050339
0.050894
0.0516069
0.0525095
0.0536475
0.0551105
0.0571302
0.0604745
0.0687052
0.118029
0.0489153
0.0489341
0.0489656
0.0490154
0.0490916
0.0492049
0.0493686
0.049599
0.0499153
0.050339
0.050894
0.0516069
0.0525095
0.0536475
0.0551105
0.0571302
0.0604745
0.0687052
0.118029
0.0489152
0.0489341
0.0489655
0.0490154
0.0490916
0.0492048
0.0493685
0.049599
0.0499153
0.050339
0.050894
0.0516069
0.0525095
0.0536475
0.0551105
0.0571302
0.0604745
0.0687052
0.118029
0.0489152
0.0489341
0.0489655
0.0490153
0.0490916
0.0492048
0.0493685
0.049599
0.0499153
0.050339
0.050894
0.0516069
0.0525095
0.0536475
0.0551105
0.0571302
0.0604745
0.0687052
0.118029
0.0489151
0.048934
0.0489655
0.0490153
0.0490916
0.0492048
0.0493685
0.049599
0.0499153
0.050339
0.050894
0.0516069
0.0525095
0.0536475
0.0551105
0.0571302
0.0604745
0.0687052
0.118029
0.0489151
0.048934
0.0489654
0.0490153
0.0490915
0.0492048
0.0493685
0.049599
0.0499153
0.050339
0.050894
0.0516069
0.0525095
0.0536475
0.0551105
0.0571302
0.0604745
0.0687052
0.118029
0.048915
0.0489339
0.0489654
0.0490153
0.0490915
0.0492048
0.0493685
0.049599
0.0499153
0.050339
0.050894
0.0516069
0.0525095
0.0536475
0.0551105
0.0571302
0.0604745
0.0687052
0.118029
0.048915
0.0489339
0.0489654
0.0490153
0.0490915
0.0492048
0.0493685
0.049599
0.0499153
0.050339
0.050894
0.0516069
0.0525095
0.0536475
0.0551105
0.0571302
0.0604745
0.0687052
0.118029
)
;

boundaryField
{
    leftWall
    {
        type            epsilonWallFunction;
        blending        stepwise;
        value           nonuniform List<scalar> 
50
(
0.016456
0.0266566
0.0402947
0.0521546
0.062323
0.0710715
0.0786311
0.0851832
0.0941431
0.103047
0.109562
0.114276
0.117636
0.119991
0.121612
0.122707
0.123434
0.123909
0.124214
0.124407
0.124527
0.124601
0.124646
0.124673
0.124689
0.124699
0.124704
0.124708
0.124709
0.124711
0.124711
0.124711
0.124712
0.124712
0.124712
0.124712
0.124712
0.124712
0.124712
0.124712
0.124712
0.124712
0.124712
0.124712
0.124712
0.124712
0.124712
0.124712
0.124712
0.124712
)
;
    }
    rightWall
    {
        type            epsilonWallFunction;
        blending        stepwise;
        value           nonuniform List<scalar> 
50
(
0.0181496
0.0266519
0.0394337
0.0505102
0.0599996
0.0681614
0.0752124
0.0813215
0.0896705
0.097954
0.104004
0.108373
0.111482
0.113659
0.115156
0.116168
0.11684
0.117279
0.117562
0.117741
0.117854
0.117923
0.117966
0.117992
0.118007
0.118016
0.118022
0.118025
0.118027
0.118028
0.118029
0.118029
0.118029
0.118029
0.118029
0.118029
0.118029
0.118029
0.118029
0.118029
0.118029
0.118029
0.118029
0.118029
0.118029
0.118029
0.118029
0.118029
0.118029
0.118029
)
;
    }
    lowerWall
    {
        type            epsilonWallFunction;
        blending        stepwise;
        value           nonuniform List<scalar> 
62
(
0.016456
0.0584299
0.0922792
0.11774
0.136939
0.151377
0.162136
0.170033
0.175702
0.179635
0.1822
0.183646
0.184106
0.183582
0.181933
0.178838
0.173746
0.165777
0.153567
0.135053
0.107313
0.0670319
0.0153734
0.0153734
0.0282829
0.0455419
0.0618386
0.0782828
0.097695
0.129525
0.213986
0.253141
0.195528
0.195098
0.250673
0.0169045
0.0279508
0.0442379
0.0595812
0.0751781
0.0939898
0.125359
0.204891
0.0169045
0.0728659
0.114702
0.14211
0.159453
0.170205
0.176623
0.180073
0.18133
0.180756
0.178405
0.174072
0.167324
0.157502
0.143692
0.12465
0.0986349
0.0631821
0.0181496
)
;
    }
    atmosphere
    {
        type            inletOutlet;
        inletValue      uniform 0.1;
        value           nonuniform List<scalar> 
46
(
0.124712
0.0706334
0.061487
0.0578623
0.0557526
0.0542587
0.0530991
0.0521662
0.0514096
0.0507994
0.0503134
0.0499325
0.0496393
0.049418
0.0492543
0.0491358
0.049052
0.0489939
0.0489548
0.0489292
0.0489133
0.0489043
0.0489006
0.048901
0.0489022
0.0489044
0.0489076
0.048915
0.0489339
0.0489654
0.0490153
0.0490915
0.0492048
0.0493685
0.049599
0.0499153
0.050339
0.050894
0.0516069
0.0525095
0.0536475
0.0551105
0.0571302
0.0604745
0.0687052
0.118029
)
;
    }
    defaultFaces
    {
        type            empty;
    }
}


// ************************************************************************* //
