/*--------------------------------*- C++ -*----------------------------------*\
| =========                 |                                                 |
| \\      /  F ield         | OpenFOAM: The Open Source CFD Toolbox           |
|  \\    /   O peration     | Version:  2406                                  |
|   \\  /    A nd           | Website:  www.openfoam.com                      |
|    \\/     M anipulation  |                                                 |
\*---------------------------------------------------------------------------*/
FoamFile
{
    version     2.0;
    format      ascii;
    arch        "LSB;label=32;scalar=64";
    class       volScalarField;
    location    "0.45";
    object      k;
}
// * * * * * * * * * * * * * * * * * * * * * * * * * * * * * * * * * * * * * //

dimensions      [0 2 -2 0 0 0 0];

internalField   nonuniform List<scalar> 
2268
(
0.1
0.1
0.1
0.1
0.1
0.1
0.1
0.1
0.1
0.1
0.1
0.1
0.1
0.00800176
0.00561436
0.00711884
0.0080051
0.00843713
0.00847312
0.0080841
0.00715237
0.00540625
0.00214402
0.1
0.1
0.1
0.1
0.1
0.1
0.1
0.1
0.1
0.1
0.1
0.1
0.1
0.0103117
0.0130947
0.0161891
0.0180485
0.0189709
0.019051
0.0182226
0.0162368
0.0125425
0.00518161
0.1
0.1
0.1
0.1
0.1
0.1
0.1
0.1
0.1
0.1
0.1
0.1
0.1
0.0129466
0.017193
0.0209131
0.0231771
0.0243233
0.024449
0.0234693
0.0210773
0.0165569
0.00698994
0.1
0.1
0.1
0.1
0.1
0.1
0.1
0.1
0.1
0.1
0.1
0.1
0.1
0.0151581
0.0202403
0.0243434
0.0268538
0.0281512
0.0283373
0.027319
0.0247484
0.0197403
0.00845895
0.1
0.1
0.1
0.1
0.1
0.1
0.1
0.1
0.1
0.1
0.1
0.1
0.1
0.01703
0.0227092
0.0271176
0.0298186
0.0312443
0.0315119
0.0305307
0.027926
0.0226361
0.00982055
0.1
0.1
0.1
0.1
0.1
0.1
0.1
0.1
0.1
0.1
0.1
0.1
0.1
0.0186593
0.0247927
0.0294643
0.0323303
0.0338781
0.0342494
0.0333695
0.0308635
0.0255282
0.0113579
0.1
0.1
0.1
0.1
0.1
0.1
0.1
0.1
0.1
0.1
0.1
0.1
0.1
0.0201152
0.0265996
0.0314985
0.0345127
0.0361812
0.0366768
0.0359548
0.0336818
0.028648
0.0137668
0.1
0.1
0.1
0.1
0.1
0.1
0.1
0.1
0.1
0.1
0.1
0.1
0.1
0.0214461
0.0281962
0.0332856
0.0364326
0.0382213
0.0388571
0.0383369
0.0364158
0.0321522
0.0193835
0.00231052
0.00593006
0.00791404
0.00909347
0.00981321
0.0102528
0.010513
0.0106525
0.0107048
0.0106856
0.0105967
0.0104278
0.0101576
0.00975384
0.0091712
0.00834356
0.00715977
0.00538409
0.00303119
0.00564369
0.0137485
0.0179674
0.0204893
0.0220292
0.0229694
0.0235259
0.0238239
0.0239341
0.0238896
0.0236939
0.0233252
0.0227381
0.0218628
0.0205998
0.0188021
0.0162271
0.0123848
0.0054658
0.00760033
0.0181794
0.0233663
0.02644
0.028319
0.0294706
0.0301546
0.0305208
0.0306529
0.0305894
0.0303339
0.0298595
0.0291109
0.0280029
0.026412
0.0241559
0.0209354
0.0161395
0.0070358
0.0092237
0.0217217
0.027478
0.0308256
0.0328704
0.0341288
0.0348795
0.0352807
0.03542
0.0353373
0.0350348
0.0344827
0.0336197
0.0323515
0.0305403
0.0279808
0.0243354
0.0188943
0.00824933
0.0107621
0.0249558
0.0310361
0.0344883
0.0365961
0.0379008
0.0386826
0.0390989
0.039236
0.0391321
0.0387876
0.0381699
0.0372139
0.0358189
0.033837
0.0310455
0.027074
0.0211186
0.00922626
0.0125345
0.0281571
0.0342967
0.0377106
0.039804
0.0411104
0.0418974
0.042314
0.0424414
0.0423142
0.0419302
0.0412543
0.0402184
0.0387174
0.0365954
0.0336155
0.0293778
0.0229892
0.0100467
0.0152969
0.0315235
0.0373696
0.040614
0.042631
0.0439049
0.044677
0.0450822
0.0451937
0.0450412
0.0446194
0.0438906
0.0427846
0.0411925
0.0389524
0.0358158
0.0313563
0.024599
0.0107615
0.0213492
0.0351571
0.0402813
0.0432506
0.0451458
0.0463619
0.0471037
0.0474883
0.0475789
0.0473995
0.0469413
0.0461641
0.0449955
0.043324
0.0409829
0.0377142
0.0330698
0.0260019
0.0114038
0.1
0.1
0.1
0.1
0.1
0.1
0.1
0.1
0.1
0.1
0.1
0.1
0.1
0.0233759
0.0304168
0.0357466
0.039079
0.0410526
0.0419221
0.0417555
0.0404736
0.0377702
0.0326875
0.1
0.1
0.1
0.1
0.1
0.1
0.1
0.1
0.1
0.1
0.1
0.1
0.1
0.0254789
0.0326977
0.0382801
0.0418418
0.0440663
0.0452638
0.0455815
0.0450887
0.0438238
0.041864
0.1
0.1
0.1
0.1
0.1
0.1
0.1
0.1
0.1
0.1
0.1
0.1
0.1
0.0272048
0.034452
0.04024
0.0440153
0.0464793
0.0479802
0.0487153
0.048826
0.048461
0.047853
0.1
0.1
0.1
0.1
0.1
0.1
0.1
0.1
0.1
0.1
0.1
0.1
0.1
0.0286639
0.0358361
0.0417831
0.0457469
0.0484247
0.0501853
0.0512513
0.0517902
0.0519665
0.0519846
0.1
0.1
0.1
0.1
0.1
0.1
0.1
0.1
0.1
0.1
0.1
0.1
0.1
0.0299188
0.0369469
0.0430093
0.0471306
0.049989
0.0519609
0.0532784
0.0541138
0.0546222
0.0549665
0.1
0.1
0.1
0.1
0.1
0.1
0.1
0.1
0.1
0.1
0.1
0.1
0.1
0.0310071
0.0378466
0.0439862
0.0482332
0.0512381
0.0533761
0.054881
0.0559221
0.0566414
0.0571735
0.1
0.1
0.1
0.1
0.1
0.1
0.1
0.1
0.1
0.1
0.1
0.1
0.1
0.0319536
0.0385783
0.0447633
0.0491066
0.0522265
0.0544924
0.0561357
0.0573206
0.0581789
0.0588273
0.1
0.1
0.1
0.1
0.1
0.1
0.1
0.1
0.1
0.1
0.1
0.1
0.1
0.0327769
0.0391746
0.0453797
0.0497941
0.0530018
0.0553644
0.0571093
0.0583957
0.059348
0.0600723
0.1
0.1
0.1
0.1
0.1
0.1
0.1
0.1
0.1
0.1
0.1
0.1
0.1
0.0334926
0.0396622
0.0458687
0.0503332
0.0536062
0.0560407
0.0578594
0.0592176
0.0602344
0.0610096
0.1
0.1
0.1
0.1
0.1
0.1
0.1
0.1
0.1
0.1
0.1
0.1
0.1
0.0341146
0.0400647
0.0462598
0.0507579
0.0540781
0.0565644
0.0584357
0.0598439
0.0609047
0.0617138
0.1
0.1
0.1
0.1
0.1
0.1
0.1
0.1
0.1
0.1
0.1
0.1
0.1
0.0346563
0.0404041
0.0465806
0.0511001
0.0544525
0.0569744
0.0588813
0.0603228
0.061412
0.0622427
0.1
0.1
0.1
0.1
0.1
0.1
0.1
0.1
0.1
0.1
0.1
0.1
0.1
0.0351322
0.040703
0.046859
0.0513905
0.0547626
0.0573061
0.059234
0.0606946
0.0617999
0.0626419
0.1
0.1
0.1
0.1
0.1
0.1
0.1
0.1
0.1
0.1
0.1
0.1
0.1
0.03556
0.040988
0.0471257
0.0516614
0.0550412
0.0575924
0.0595274
0.0609942
0.0621041
0.0629484
0.1
0.1
0.1
0.1
0.1
0.1
0.1
0.1
0.1
0.1
0.1
0.1
0.1
0.035966
0.0412955
0.0474188
0.051949
0.0553217
0.0578647
0.0597917
0.0612512
0.0623544
0.0631921
0.1
0.1
0.1
0.1
0.1
0.1
0.1
0.1
0.1
0.1
0.1
0.1
0.1
0.0363958
0.0416819
0.0477902
0.0522967
0.0556401
0.0581537
0.0600543
0.0614912
0.0625754
0.0633969
0.1
0.1
0.1
0.1
0.1
0.1
0.1
0.1
0.1
0.1
0.1
0.1
0.1
0.0369398
0.042243
0.0483138
0.0527576
0.0560345
0.0584884
0.060339
0.0617353
0.0627866
0.0635816
0.1
0.1
0.1
0.1
0.1
0.1
0.1
0.1
0.1
0.1
0.1
0.1
0.1
0.0377982
0.0431456
0.0490919
0.0533914
0.0565419
0.0588941
0.0606651
0.0619995
0.0630028
0.0637602
0.1
0.1
0.1
0.1
0.1
0.1
0.1
0.1
0.1
0.1
0.1
0.1
0.1
0.0394445
0.044657
0.0502405
0.0542497
0.0571885
0.0593868
0.0610445
0.0622942
0.0632335
0.063942
0.1
0.1
0.1
0.1
0.1
0.1
0.1
0.1
0.1
0.1
0.1
0.1
0.1
0.0427206
0.0470193
0.0518067
0.0553398
0.0579754
0.0599677
0.0614794
0.0626228
0.0634829
0.064132
0.1
0.1
0.1
0.1
0.1
0.1
0.1
0.1
0.1
0.1
0.1
0.1
0.0437778
0.0447248
0.0496769
0.0536106
0.0565921
0.0588711
0.0606213
0.0619621
0.0629817
0.0637506
0.0643314
0.0196385
0.025742
0.0295395
0.0319778
0.0335977
0.0346991
0.0354778
0.0360921
0.0367122
0.0375977
0.0392668
0.0425883
0.0446721
0.0487539
0.0524819
0.0555158
0.0579271
0.0598298
0.0613206
0.0624769
0.0633621
0.0640318
0.0645385
0.0097974
0.0221879
0.0283219
0.0323352
0.0351371
0.0371653
0.0386942
0.0399347
0.0410901
0.0424055
0.0442035
0.0467604
0.0495458
0.052429
0.0550775
0.0573572
0.0592537
0.060798
0.0620333
0.0630038
0.0637519
0.0643194
0.0647495
0.0106137
0.024577
0.0314651
0.0360663
0.0393697
0.0418232
0.0437087
0.0452386
0.0466004
0.0479787
0.0495493
0.0514023
0.0533923
0.0554115
0.0573207
0.0590295
0.0605
0.0617283
0.0627285
0.0635228
0.0641384
0.0646057
0.0649601
0.0117796
0.0268348
0.0341816
0.0391059
0.0426906
0.0453914
0.0474854
0.0491753
0.0506268
0.051983
0.0533577
0.0548059
0.0562965
0.0577822
0.0591981
0.0604896
0.0616239
0.0625879
0.0633824
0.0640178
0.0645109
0.0648843
0.0651668
0.0126366
0.0285769
0.0362823
0.0414348
0.0452069
0.0480695
0.0502974
0.0520835
0.053577
0.0548976
0.0561346
0.0573389
0.0585196
0.0596641
0.0607452
0.0617344
0.0626099
0.0633598
0.0639811
0.0644784
0.0648628
0.0651511
0.0653678
0.0132465
0.029865
0.0378629
0.0431981
0.0471123
0.0500927
0.0524144
0.0542641
0.0557808
0.0570715
0.0582157
0.0592651
0.0602452
0.0611629
0.0620124
0.062782
0.0634608
0.0640412
0.0645205
0.0649016
0.0651922
0.0654062
0.0655646
0.0136768
0.0308003
0.0390353
0.0445236
0.0485548
0.051629
0.0540231
0.0559205
0.0574543
0.0587251
0.059808
0.0607559
0.0616024
0.0623655
0.0630519
0.0636617
0.064192
0.0646402
0.0650057
0.0652913
0.0655034
0.0656541
0.0657623
0.0139779
0.0314727
0.0398986
0.0455173
0.0496493
0.0528037
0.055259
0.057197
0.0587477
0.0600082
0.0610518
0.0619327
0.0626887
0.0633448
0.0639156
0.0644088
0.0648277
0.0651741
0.06545
0.0656586
0.0658066
0.0659047
0.0659707
0.0141877
0.0319563
0.040537
0.0462689
0.0504912
0.0537181
0.0562291
0.0582052
0.0597745
0.061033
0.0620531
0.0628901
0.0635847
0.0641663
0.0646547
0.0650628
0.0653988
0.0656678
0.0658741
0.0660221
0.0661187
0.0661742
0.0662055
0.0143367
0.0323132
0.0410243
0.046858
0.0511647
0.0544605
0.0570251
0.059039
0.0606297
0.0618926
0.0629004
0.0637094
0.0643625
0.0648921
0.0653218
0.0656682
0.0659428
0.0661536
0.0663067
0.0664077
0.0664639
0.0664855
0.066489
0.0144505
0.0325986
0.0414286
0.0473608
0.0517509
0.0551154
0.0577338
0.0597861
0.0614004
0.0626722
0.0636752
0.0644668
0.0650918
0.0655851
0.0659729
0.0662745
0.066504
0.0666714
0.0667845
0.0668498
0.0668749
0.0668702
0.0668519
0.0145531
0.0328672
0.0418207
0.0478573
0.0523357
0.0557719
0.058445
0.0605362
0.0621745
0.063457
0.0644589
0.0652392
0.0658447
0.0663119
0.0666693
0.0669382
0.0671346
0.0672702
0.0673535
0.0673922
0.0673939
0.0673693
0.0673344
0.0146706
0.0331823
0.042284
0.0484429
0.0530201
0.0565321
0.05926
0.0613875
0.0630469
0.064338
0.0653383
0.066109
0.0666987
0.0671456
0.0674799
0.0677243
0.0678961
0.0680081
0.0680698
0.0680891
0.0680741
0.0680352
0.0679884
0.0148383
0.0336294
0.0429303
0.0492417
0.0539317
0.0575215
0.0602986
0.0624537
0.0641247
0.0654161
0.0664088
0.0671665
0.0677396
0.0681678
0.0684823
0.068707
0.0688599
0.0689544
0.0690005
0.0690064
0.0689801
0.0689321
0.0688776
0.0151096
0.0343375
0.0439217
0.0504259
0.0552384
0.058897
0.0617052
0.0638667
0.0655293
0.066804
0.0677759
0.0685114
0.0690623
0.0694692
0.0697639
0.0699707
0.0701078
0.0701889
0.070224
0.0702214
0.0701889
0.0701364
0.0700787
0.0155726
0.0355097
0.0454987
0.0522342
0.057159
0.0608521
0.0636492
0.0657765
0.0673954
0.0686251
0.0695547
0.0702523
0.0707705
0.0711498
0.0714215
0.0716096
0.0717321
0.0718022
0.0718297
0.0718226
0.0717884
0.0717362
0.0716797
0.016373
0.0374654
0.0480114
0.0549861
0.0599636
0.0636103
0.0663177
0.0683435
0.0698654
0.0710092
0.0718663
0.0725046
0.0729754
0.0733174
0.0735606
0.0737274
0.0738347
0.073895
0.0739173
0.0739091
0.0738773
0.0738299
0.0737791
0.0177499
0.0407008
0.0519486
0.059078
0.0639538
0.0674025
0.0698954
0.0717244
0.0730787
0.0740858
0.0748344
0.0753882
0.0757942
0.0760877
0.0762953
0.076437
0.0765276
0.0765782
0.0765969
0.0765902
0.0765642
0.0765257
0.0764845
0.0201068
0.0460024
0.0579586
0.0649437
0.0694108
0.0724245
0.0745356
0.0760532
0.0771619
0.0779789
0.0785824
0.0790267
0.0793514
0.0795853
0.0797504
0.0798628
0.0799347
0.0799752
0.079991
0.0799874
0.0799695
0.0799427
0.0799142
0.024337
0.054734
0.0668294
0.0729424
0.0765018
0.0787792
0.0803297
0.0814274
0.0822228
0.0828062
0.0832361
0.0835521
0.0837828
0.083949
0.0840662
0.0841463
0.0841978
0.0842274
0.0842401
0.0842401
0.0842309
0.0842166
0.0842018
0.0345803
0.0694762
0.0791963
0.0830835
0.0851417
0.0864226
0.0872915
0.0879085
0.0883575
0.0886882
0.0889327
0.0891131
0.0892451
0.0893405
0.0894081
0.0894545
0.0894847
0.0895027
0.0895116
0.0895138
0.0895119
0.0895082
0.0895052
0.0856012
0.0932879
0.094067
0.0945158
0.0948803
0.0951663
0.0953844
0.0955491
0.0956732
0.0957667
0.0958369
0.0958893
0.0959281
0.0959563
0.0959766
0.0959906
0.096
0.096006
0.0960095
0.0960115
0.096013
0.0960147
0.0960176
0.0221017
0.0187486
0.0188859
0.022619
0.04017
0.0395864
0.0398285
0.040906
0.047555
0.0475437
0.0477918
0.0482995
0.0520847
0.0522286
0.052477
0.0528304
0.0552329
0.0554374
0.0556879
0.0559856
0.0575265
0.0577622
0.0580159
0.0582892
0.0592319
0.0594867
0.0597439
0.0600053
0.0605102
0.0607777
0.0610381
0.0612935
0.0614697
0.0617459
0.0620091
0.0622613
0.0621886
0.0624707
0.0627359
0.0629863
0.0627265
0.063012
0.0632781
0.063527
0.0631299
0.0634165
0.0636823
0.0639293
0.0634358
0.0637214
0.0639853
0.0642296
0.0636742
0.0639562
0.0642163
0.0644566
0.0638687
0.0641443
0.0643984
0.064633
0.0640374
0.0643038
0.0645494
0.0647763
0.0641942
0.064448
0.0646825
0.0648995
0.0643482
0.0645863
0.064807
0.065012
0.064505
0.0647244
0.0649287
0.0651196
0.0646667
0.0648648
0.0650507
0.0652257
0.0648328
0.065008
0.065174
0.065332
0.0650013
0.0651527
0.0652982
0.0654385
0.0651698
0.0652975
0.0654225
0.0655453
0.0653361
0.0654412
0.0655465
0.0656524
0.0654999
0.0655841
0.0656712
0.0657614
0.0656635
0.0657288
0.0657995
0.0658757
0.0658323
0.0658812
0.0659376
0.0660015
0.0660163
0.0660514
0.0660956
0.066149
0.0662308
0.0662544
0.0662885
0.0663333
0.0664979
0.0665121
0.0665381
0.0665758
0.0668478
0.0668546
0.066874
0.066906
0.0673203
0.0673213
0.0673357
0.0673632
0.0679669
0.0679636
0.067974
0.0679979
0.0688513
0.0688449
0.0688523
0.0688732
0.0700499
0.0700417
0.0700467
0.0700649
0.071651
0.071642
0.0716453
0.0716608
0.0737529
0.0737443
0.0737463
0.0737587
0.0764633
0.076456
0.0764569
0.076466
0.0798996
0.0798945
0.0798946
0.0799001
0.0841945
0.0841919
0.0841916
0.0841935
0.0895044
0.089504
0.0895035
0.0895029
0.09602
0.0960209
0.0960206
0.0960191
0.0346359
0.0407837
0.0445107
0.0469773
0.0486417
0.0497415
0.0504189
0.0507605
0.0508127
0.0505897
0.0500765
0.0492294
0.0479729
0.0461917
0.0437136
0.0402695
0.035384
0.0279133
0.0123205
0.0435567
0.0467334
0.0491995
0.0510422
0.0523713
0.0532813
0.0538441
0.0541078
0.0540964
0.0538106
0.053227
0.0522964
0.0509393
0.0490367
0.0464105
0.0427814
0.0376478
0.0297709
0.0131986
0.0494509
0.0512989
0.0529642
0.0543216
0.0553527
0.0560761
0.0565172
0.0566949
0.0566145
0.0562646
0.0556138
0.0546076
0.0531625
0.0511559
0.0484049
0.0446216
0.0392835
0.0310846
0.0137976
0.0535611
0.0547812
0.0559536
0.0569585
0.0577464
0.0583032
0.058628
0.0587197
0.0585698
0.0581567
0.0574423
0.0563672
0.0548442
0.0527469
0.0498884
0.0459735
0.0404648
0.0320106
0.0142074
0.0565497
0.0574433
0.0583095
0.0590653
0.0596634
0.0600796
0.0602997
0.0603107
0.0600941
0.059621
0.0588475
0.0577097
0.0561173
0.0539406
0.0509891
0.0469624
0.0413124
0.0326589
0.0144867
0.0587737
0.0594838
0.0601553
0.060736
0.0611895
0.0614908
0.0616204
0.0615588
0.061281
0.0607524
0.0599248
0.0587308
0.057077
0.0548312
0.0518001
0.0476794
0.0419148
0.0331082
0.0146753
0.0604473
0.0610481
0.0615926
0.06205
0.0623944
0.0626038
0.0626576
0.0625327
0.0622002
0.0616218
0.0607458
0.0595021
0.0577949
0.0554898
0.0523915
0.0481935
0.0423377
0.0334158
0.0148009
0.0617115
0.0622441
0.062704
0.0630739
0.0633364
0.0634734
0.0634648
0.0632862
0.0629063
0.0622842
0.0613659
0.0600792
0.0583263
0.0559714
0.0528176
0.0485573
0.0426306
0.0336234
0.0148832
0.0626649
0.0631536
0.0635559
0.0638633
0.0640646
0.0641453
0.0640863
0.063863
0.063443
0.0627837
0.0618293
0.060506
0.0587149
0.0563189
0.0531205
0.0488111
0.0428304
0.0337613
0.0149364
0.0633807
0.0638401
0.0642025
0.064465
0.0646206
0.0646578
0.0645588
0.0642992
0.063846
0.0631556
0.0621711
0.0608177
0.0589953
0.0565663
0.0533326
0.0489856
0.0429648
0.0338517
0.0149703
0.0639149
0.064354
0.0646882
0.064918
0.0650397
0.0650435
0.0649132
0.0646247
0.0641446
0.063429
0.06242
0.0610422
0.0591948
0.0567399
0.0534791
0.0491039
0.0430538
0.03391
0.0149915
0.0643117
0.0647357
0.0650493
0.0652552
0.0653514
0.06533
0.0651755
0.0648642
0.0643629
0.0636271
0.0625987
0.0612017
0.0593348
0.05686
0.0535788
0.0491828
0.043112
0.0339471
0.0150046
0.0646061
0.0650176
0.0653155
0.0655033
0.0655804
0.0655399
0.0653669
0.0650381
0.0645202
0.0637688
0.0627253
0.0613133
0.0594317
0.056942
0.0536457
0.0492348
0.0431495
0.0339704
0.0150126
0.0648259
0.065226
0.0655108
0.0656845
0.065747
0.0656918
0.0655048
0.0651626
0.0646321
0.0638687
0.0628137
0.0613905
0.0594978
0.0569971
0.0536901
0.0492687
0.0431734
0.0339849
0.0150175
0.0649932
0.0653813
0.0656544
0.0658164
0.0658673
0.0658009
0.065603
0.0652507
0.0647107
0.0639383
0.0628746
0.0614432
0.0595424
0.0570337
0.0537191
0.0492904
0.0431884
0.0339938
0.0150204
0.0651249
0.0654997
0.0657612
0.0659128
0.0659541
0.0658787
0.0656726
0.0653125
0.0647654
0.0639862
0.0629162
0.0614787
0.0595721
0.0570578
0.0537378
0.0493042
0.0431977
0.0339992
0.0150221
0.0652337
0.0655931
0.0658426
0.0659843
0.0660172
0.0659344
0.0657217
0.0653557
0.0648032
0.064019
0.0629444
0.0615025
0.0595917
0.0570735
0.0537499
0.049313
0.0432035
0.0340025
0.0150231
0.0653286
0.0656705
0.0659071
0.0660389
0.066064
0.0659748
0.0657567
0.0653861
0.0648294
0.0640415
0.0629635
0.0615184
0.0596047
0.0570838
0.0537576
0.0493184
0.0432071
0.0340045
0.0150237
0.0654159
0.0657381
0.0659607
0.0660824
0.0660999
0.066005
0.0657822
0.0654078
0.0648478
0.0640571
0.0629766
0.0615292
0.0596133
0.0570905
0.0537626
0.0493219
0.0432093
0.0340057
0.0150241
0.0654995
0.0658
0.0660076
0.0661189
0.066129
0.0660286
0.0658018
0.0654241
0.0648615
0.0640686
0.062986
0.0615369
0.0596195
0.0570952
0.053766
0.0493243
0.0432108
0.0340064
0.0150243
0.0655814
0.0658589
0.066051
0.0661516
0.0661543
0.0660487
0.065818
0.0654375
0.0648726
0.0640778
0.0629936
0.061543
0.0596243
0.0570989
0.0537687
0.0493261
0.0432119
0.034007
0.0150245
0.0656629
0.0659168
0.0660929
0.0661828
0.0661783
0.0660676
0.0658333
0.0654501
0.0648831
0.0640866
0.0630009
0.061549
0.059629
0.0571024
0.0537712
0.0493278
0.0432129
0.0340075
0.0150246
0.0657447
0.0659751
0.0661355
0.0662149
0.0662032
0.0660876
0.0658499
0.0654641
0.0648951
0.0640968
0.0630095
0.0615561
0.0596347
0.0571069
0.0537745
0.0493299
0.0432142
0.0340082
0.0150248
0.0658279
0.0660357
0.0661811
0.0662503
0.0662318
0.0661115
0.0658704
0.0654819
0.0649108
0.0641105
0.0630215
0.0615662
0.059643
0.0571133
0.0537792
0.0493332
0.0432162
0.0340092
0.0150251
0.0659146
0.0661014
0.0662327
0.0662925
0.0662675
0.0661427
0.0658982
0.0655071
0.0649335
0.0641309
0.0630395
0.0615818
0.059656
0.0571237
0.053787
0.0493387
0.0432196
0.0340109
0.0150255
0.0660088
0.0661767
0.0662952
0.0663464
0.0663154
0.0661862
0.0659383
0.0655442
0.0649679
0.0641624
0.0630678
0.0616066
0.059677
0.0571408
0.0538001
0.0493479
0.0432255
0.034014
0.0150264
0.0661171
0.0662683
0.0663756
0.0664191
0.0663826
0.0662493
0.0659979
0.0656005
0.0650208
0.0642116
0.0631126
0.0616465
0.0597114
0.0571691
0.0538222
0.0493639
0.0432359
0.0340196
0.015028
0.0662497
0.0663867
0.0664844
0.066521
0.0664796
0.0663422
0.0660872
0.0656862
0.0651024
0.0642883
0.0631836
0.0617106
0.0597675
0.0572161
0.0538595
0.0493914
0.0432541
0.0340296
0.0150309
0.0664216
0.0665468
0.0666363
0.0666672
0.0666212
0.0664801
0.0662213
0.0658162
0.0652275
0.0644074
0.0632951
0.0618127
0.0598582
0.0572937
0.0539223
0.0494387
0.0432861
0.0340475
0.0150362
0.066654
0.0667697
0.0668524
0.0668783
0.0668284
0.0666836
0.0664211
0.0660116
0.0654173
0.06459
0.0634684
0.0619738
0.0600039
0.0574206
0.0540274
0.0495196
0.0433422
0.0340798
0.015046
0.0669762
0.067084
0.0671613
0.067183
0.0671295
0.0669815
0.0667154
0.0663016
0.0657016
0.0648666
0.0637341
0.0622247
0.0602351
0.0576263
0.0542018
0.0496575
0.0434405
0.0341378
0.015064
0.0674269
0.0675283
0.0676008
0.0676188
0.0675625
0.0674117
0.0671429
0.0667257
0.066121
0.0652788
0.0641355
0.0626101
0.0605973
0.0579563
0.054489
0.0498915
0.0436126
0.0342425
0.0150972
0.0680562
0.0681517
0.0682198
0.0682347
0.068176
0.0680237
0.0677538
0.0673354
0.0667288
0.0658826
0.0647317
0.0631924
0.0611562
0.0584786
0.0549573
0.0502859
0.043913
0.0344319
0.0151589
0.0689265
0.0690161
0.0690795
0.0690912
0.0690311
0.0688791
0.068611
0.0681958
0.0675929
0.0667501
0.0655998
0.0640553
0.062003
0.0592915
0.0557103
0.0509439
0.0444351
0.0347751
0.0152743
0.0701131
0.0701955
0.0702533
0.0702617
0.0702012
0.070052
0.0697904
0.0693852
0.0687959
0.0679692
0.0668359
0.0653052
0.0632573
0.0605304
0.0568984
0.0520259
0.0453344
0.0353957
0.0154913
0.0717029
0.071776
0.0718264
0.071831
0.0717715
0.0716287
0.0713799
0.0709947
0.0704332
0.0696424
0.0685522
0.0670689
0.0650661
0.0623682
0.0587257
0.0537654
0.046857
0.0365081
0.0158997
0.0737935
0.0738543
0.0738952
0.0738955
0.0738384
0.0737065
0.0734783
0.0731255
0.0726103
0.0718817
0.0708713
0.0694853
0.0675928
0.0650053
0.0614435
0.0564746
0.049365
0.0384618
0.0166617
0.076492
0.0765376
0.0765668
0.0765624
0.0765097
0.0763934
0.0761946
0.075888
0.0754399
0.0748042
0.0739178
0.0726922
0.070999
0.0686441
0.0653215
0.0605237
0.0533446
0.041787
0.01805
0.0799162
0.0799447
0.0799611
0.0799522
0.0799061
0.0798104
0.0796492
0.0794021
0.0790413
0.0785286
0.0778112
0.0768132
0.0754202
0.0734505
0.0705945
0.0662855
0.0593926
0.0472715
0.0205043
0.0841999
0.0842116
0.084216
0.0842041
0.0841674
0.0840964
0.0839796
0.0838021
0.0835439
0.0831775
0.0826648
0.0819499
0.0809468
0.0795127
0.077386
0.0740281
0.068165
0.0562039
0.0249609
0.0895016
0.0895004
0.0894964
0.0894848
0.0894604
0.0894171
0.0893483
0.0892451
0.0890962
0.0888861
0.0885935
0.0881875
0.0876205
0.0868137
0.0856184
0.0836997
0.0800829
0.0708714
0.0358363
0.0960151
0.0960095
0.0960045
0.0959984
0.0959892
0.0959751
0.0959538
0.0959227
0.0958785
0.0958171
0.0957328
0.0956179
0.0954619
0.0952501
0.0949648
0.0945901
0.0941229
0.0934027
0.0865286
)
;

boundaryField
{
    leftWall
    {
        type            kqRWallFunction;
        value           nonuniform List<scalar> 
50
(
0.1
0.1
0.1
0.1
0.1
0.1
0.1
0.1
0.1
0.1
0.1
0.1
0.1
0.1
0.1
0.1
0.1
0.1
0.1
0.1
0.1
0.1
0.1
0.1
0.1
0.1
0.1
0.1
0.0196385
0.0097974
0.0106137
0.0117796
0.0126366
0.0132465
0.0136768
0.0139779
0.0141877
0.0143367
0.0144505
0.0145531
0.0146706
0.0148383
0.0151096
0.0155726
0.016373
0.0177499
0.0201068
0.024337
0.0345803
0.0856012
)
;
    }
    rightWall
    {
        type            kqRWallFunction;
        value           nonuniform List<scalar> 
50
(
0.00303119
0.0054658
0.0070358
0.00824933
0.00922626
0.0100467
0.0107615
0.0114038
0.0123205
0.0131986
0.0137976
0.0142074
0.0144867
0.0146753
0.0148009
0.0148832
0.0149364
0.0149703
0.0149915
0.0150046
0.0150126
0.0150175
0.0150204
0.0150221
0.0150231
0.0150237
0.0150241
0.0150243
0.0150245
0.0150246
0.0150248
0.0150251
0.0150255
0.0150264
0.015028
0.0150309
0.0150362
0.015046
0.015064
0.0150972
0.0151589
0.0152743
0.0154913
0.0158997
0.0166617
0.01805
0.0205043
0.0249609
0.0358363
0.0865286
)
;
    }
    lowerWall
    {
        type            kqRWallFunction;
        value           nonuniform List<scalar> 
62
(
0.1
0.1
0.1
0.1
0.1
0.1
0.1
0.1
0.1
0.1
0.1
0.1
0.1
0.00800176
0.00561436
0.00711884
0.0080051
0.00843713
0.00847312
0.0080841
0.00715237
0.00540625
0.00214402
0.00214402
0.00518161
0.00698994
0.00845895
0.00982055
0.0113579
0.0137668
0.0193835
0.0221017
0.0187486
0.0188859
0.022619
0.00231052
0.00564369
0.00760033
0.0092237
0.0107621
0.0125345
0.0152969
0.0213492
0.00231052
0.00593006
0.00791404
0.00909347
0.00981321
0.0102528
0.010513
0.0106525
0.0107048
0.0106856
0.0105967
0.0104278
0.0101576
0.00975384
0.0091712
0.00834356
0.00715977
0.00538409
0.00303119
)
;
    }
    atmosphere
    {
        type            inletOutlet;
        inletValue      uniform 0.1;
        value           uniform 0.1;
    }
    defaultFaces
    {
        type            empty;
    }
}


// ************************************************************************* //
