/*--------------------------------*- C++ -*----------------------------------*\
| =========                 |                                                 |
| \\      /  F ield         | OpenFOAM: The Open Source CFD Toolbox           |
|  \\    /   O peration     | Version:  2406                                  |
|   \\  /    A nd           | Website:  www.openfoam.com                      |
|    \\/     M anipulation  |                                                 |
\*---------------------------------------------------------------------------*/
FoamFile
{
    version     2.0;
    format      ascii;
    arch        "LSB;label=32;scalar=64";
    class       volScalarField;
    location    "0.45";
    object      k;
}
// * * * * * * * * * * * * * * * * * * * * * * * * * * * * * * * * * * * * * //

dimensions      [0 2 -2 0 0 0 0];

internalField   nonuniform List<scalar> 
2268
(
0.00282371
0.00545176
0.00742096
0.00875493
0.00970678
0.0104007
0.0109093
0.0112801
0.0115463
0.0117318
0.0118539
0.0119239
0.0119477
0.0119256
0.0118515
0.0117114
0.0114803
0.0111167
0.0105524
0.00967292
0.0082825
0.00603225
0.00222007
0.00527373
0.0125758
0.0167198
0.0195501
0.0215741
0.0230492
0.0241295
0.024917
0.0254828
0.025878
0.0261389
0.0262894
0.026342
0.0262972
0.0261423
0.0258481
0.0253625
0.0245991
0.0234164
0.0215784
0.0186857
0.0140359
0.00553303
0.00698292
0.0164295
0.0214972
0.0249605
0.027451
0.0292746
0.0306162
0.0315988
0.0323086
0.0328075
0.0331393
0.0333331
0.0334038
0.0333527
0.0331651
0.0328064
0.0322156
0.0312917
0.029869
0.0276713
0.0242215
0.0186108
0.00764873
0.00832198
0.0192441
0.0248857
0.0287236
0.0314941
0.0335324
0.0350393
0.0361486
0.0369546
0.0375247
0.037907
0.0381332
0.0382201
0.0381696
0.0379666
0.0375755
0.0369327
0.0359336
0.0344066
0.0320629
0.028381
0.0222497
0.00941966
0.00939441
0.021491
0.0275671
0.0316715
0.0346402
0.0368332
0.0384621
0.0396675
0.0405483
0.0411755
0.0415995
0.041854
0.0419571
0.0419117
0.0417036
0.041298
0.0406327
0.0396056
0.0380499
0.0356801
0.0319509
0.0255472
0.0110601
0.0102744
0.0233462
0.0297826
0.0340979
0.0372209
0.0395354
0.041262
0.042546
0.0434894
0.0441655
0.0446264
0.0449072
0.0450273
0.0449908
0.044785
0.0443776
0.0437102
0.0426876
0.041155
0.0388447
0.0352179
0.0288027
0.0128586
0.0110091
0.0249046
0.0316523
0.0361456
0.0393965
0.041812
0.0436207
0.0449719
0.0459698
0.0466895
0.0471843
0.0474904
0.0476284
0.0476038
0.0474064
0.0470069
0.0463528
0.0453586
0.043887
0.041702
0.0383168
0.0322616
0.0155661
0.0116298
0.0262273
0.033249
0.0378982
0.0412598
0.0437624
0.0456426
0.047053
0.0480999
0.0488593
0.0493858
0.0497165
0.0498733
0.0498635
0.0496792
0.0492954
0.0486664
0.0477181
0.0463345
0.0443213
0.0412926
0.0360966
0.0218223
0.00236456
0.00638077
0.00866253
0.0100109
0.0108234
0.0113153
0.0116054
0.0117597
0.0118138
0.0117838
0.0116717
0.0114679
0.0111518
0.0106902
0.0100329
0.00910182
0.00776305
0.00574598
0.00307996
0.0058808
0.0147575
0.0194778
0.0222838
0.0239818
0.0250119
0.0256196
0.0259421
0.0260534
0.0259871
0.0257475
0.0253141
0.0246431
0.0236636
0.0222679
0.0202893
0.0174474
0.0131924
0.0056498
0.00803688
0.0194847
0.0251671
0.0285119
0.0305432
0.0317826
0.0325165
0.0329051
0.033035
0.032945
0.0326396
0.0320938
0.0312545
0.0300358
0.0283076
0.0258691
0.0223856
0.0171766
0.00737463
0.00984712
0.0232136
0.0293922
0.0329554
0.0351223
0.0364528
0.0372444
0.0376621
0.0377952
0.0376834
0.0373301
0.0367074
0.0357571
0.0343852
0.03245
0.0297329
0.0258674
0.0200685
0.00872966
0.0115403
0.0265708
0.032978
0.0365773
0.0387691
0.0401251
0.040936
0.0413617
0.0414884
0.0413539
0.0409595
0.0402752
0.0392392
0.0377527
0.0356667
0.0327509
0.0286137
0.0223714
0.0098175
0.0134369
0.0298532
0.0362188
0.0397121
0.041851
0.0431876
0.0439913
0.0444099
0.0445228
0.044364
0.043932
0.0431945
0.042087
0.0405076
0.0383021
0.0352311
0.0308794
0.0242715
0.0107114
0.0163346
0.0332812
0.0392496
0.0425123
0.0445404
0.0458245
0.0466013
0.0470013
0.0470945
0.0469094
0.0464416
0.0456561
0.0444865
0.042828
0.0405225
0.0373225
0.0327905
0.0258674
0.0114583
0.0227382
0.0369848
0.0421192
0.0450546
0.046931
0.0481392
0.0488744
0.0492467
0.0493152
0.0491023
0.0485996
0.0477698
0.0465444
0.0448164
0.042424
0.0391123
0.0344226
0.027222
0.0120896
0.0124575
0.0279947
0.0353961
0.0402629
0.0437783
0.0464017
0.0483812
0.0498747
0.050991
0.0518078
0.0523812
0.0527496
0.0529371
0.0529538
0.0527964
0.0524468
0.0518706
0.0510134
0.0497937
0.0480875
0.0456855
0.042153
0.0363051
0.0132636
0.0297312
0.0375339
0.0426404
0.0463272
0.0490855
0.0511767
0.0527646
0.0539613
0.0548465
0.0554779
0.0558963
0.0561286
0.0561891
0.056081
0.055796
0.0553149
0.0546077
0.0536336
0.0523417
0.0506713
0.0485555
0.045951
0.0138463
0.0309964
0.0391129
0.0444163
0.048248
0.0511218
0.0533094
0.0549795
0.0562471
0.0571939
0.0578795
0.0583467
0.0586252
0.0587338
0.0586813
0.0584684
0.0580887
0.057531
0.0567825
0.0558357
0.0546995
0.0534233
0.0521484
0.0142665
0.0319185
0.04028
0.0457452
0.0496999
0.0526737
0.0549454
0.0566881
0.0580191
0.059022
0.0597581
0.0602723
0.060597
0.0607547
0.0607596
0.0606193
0.060337
0.0599145
0.0593558
0.0586742
0.0579021
0.0571054
0.0564021
0.0145671
0.032587
0.0411392
0.0467365
0.0507951
0.0538551
0.0562006
0.0580075
0.0593952
0.0604491
0.061232
0.0617907
0.0621601
0.0623659
0.0624264
0.0623546
0.0621607
0.0618542
0.0614481
0.0609635
0.0604358
0.0599205
0.0594961
0.0147797
0.0330673
0.0417669
0.0474713
0.0516168
0.0547506
0.0571601
0.0590235
0.0604617
0.0615616
0.0623873
0.0629875
0.063399
0.0636502
0.0637625
0.063753
0.0636362
0.0634262
0.0631401
0.0628003
0.0624384
0.0620964
0.0618248
0.0149278
0.0334084
0.0422209
0.048011
0.0522284
0.0554245
0.057889
0.0598015
0.0612843
0.0624251
0.0632896
0.0639276
0.0643779
0.0646706
0.0648298
0.0648752
0.0648241
0.0646931
0.0645003
0.0642672
0.0640202
0.0637901
0.0636102
0.0150294
0.0336474
0.0425454
0.0484033
0.0526792
0.0559271
0.0584381
0.0603928
0.0619143
0.0630912
0.0639901
0.064662
0.065147
0.0654769
0.0656775
0.0657703
0.0657742
0.065707
0.0655867
0.0654328
0.0652669
0.0651121
0.0649911
0.015098
0.0338125
0.0427743
0.0486849
0.0530076
0.056298
0.0588477
0.0608381
0.0623926
0.0636006
0.0645295
0.0652313
0.0657469
0.0661093
0.0663457
0.0664787
0.066528
0.0665119
0.0664477
0.066353
0.0662456
0.0661431
0.0660616
0.0151436
0.0339249
0.0429336
0.0488845
0.053244
0.0565685
0.0591499
0.0611698
0.062752
0.0639866
0.0649412
0.0656686
0.0662105
0.0666009
0.0668676
0.067034
0.0671205
0.067145
0.0671243
0.067074
0.0670093
0.066944
0.0668899
0.0151734
0.0340003
0.0430428
0.049024
0.053412
0.0567633
0.0593701
0.061414
0.0630192
0.0642758
0.065252
0.066001
0.0665652
0.0669791
0.067271
0.0674649
0.0675813
0.0676379
0.0676506
0.067634
0.0676007
0.0675623
0.0675277
0.0151926
0.0340502
0.0431168
0.0491203
0.0535298
0.0569019
0.0595286
0.0615917
0.0632153
0.0644899
0.0654839
0.0662509
0.0668335
0.0672667
0.0675793
0.0677954
0.0679355
0.0680172
0.0680558
0.0680644
0.0680545
0.0680356
0.0680151
0.0152049
0.0340827
0.0431662
0.0491858
0.0536113
0.0569991
0.0596413
0.0617193
0.0633576
0.0646466
0.065655
0.0664364
0.067034
0.0674828
0.067812
0.0680458
0.0682046
0.0683057
0.0683639
0.0683916
0.068399
0.0683944
0.068384
0.0152126
0.0341037
0.0431987
0.0492298
0.0536669
0.0570664
0.0597202
0.0618098
0.0634595
0.0647598
0.0657795
0.0665724
0.0671819
0.0676432
0.0679855
0.0682331
0.0684063
0.0685224
0.0685954
0.0686373
0.0686575
0.0686634
0.0686604
0.0152173
0.0341171
0.0432199
0.049259
0.0537044
0.0571125
0.0597749
0.0618732
0.0635315
0.0648405
0.065869
0.0666709
0.0672897
0.0677606
0.0681131
0.0683713
0.0685556
0.0686829
0.0687671
0.0688195
0.0688491
0.0688627
0.068865
0.0152203
0.0341255
0.0432335
0.0492781
0.0537294
0.0571436
0.0598123
0.061917
0.0635818
0.0648974
0.0659325
0.0667413
0.0673672
0.0678455
0.0682057
0.068472
0.0686646
0.0688003
0.0688927
0.0689528
0.0689893
0.0690084
0.0690146
0.015222
0.0341307
0.0432421
0.0492905
0.0537459
0.0571643
0.0598376
0.0619469
0.0636165
0.0649369
0.0659771
0.066791
0.0674222
0.0679061
0.068272
0.0685443
0.0687431
0.068885
0.0689834
0.0690492
0.0690905
0.0691136
0.0691225
0.0152231
0.0341339
0.0432476
0.0492985
0.0537566
0.057178
0.0598545
0.0619671
0.0636401
0.0649641
0.0660079
0.0668256
0.0674607
0.0679487
0.0683189
0.0685956
0.0687989
0.0689452
0.069048
0.0691178
0.0691627
0.0691886
0.0691994
0.0152238
0.0341359
0.043251
0.0493035
0.0537635
0.057187
0.0598656
0.0619805
0.063656
0.0649825
0.066029
0.0668494
0.0674874
0.0679783
0.0683516
0.0686315
0.068838
0.0689875
0.0690934
0.069166
0.0692134
0.0692413
0.0692535
0.0152241
0.0341371
0.0432531
0.0493067
0.0537679
0.0571927
0.0598729
0.0619894
0.0636666
0.0649949
0.0660432
0.0668656
0.0675056
0.0679987
0.0683742
0.0686563
0.0688651
0.0690169
0.0691249
0.0691995
0.0692486
0.0692779
0.069291
0.0152244
0.0341378
0.0432544
0.0493086
0.0537706
0.0571964
0.0598776
0.0619952
0.0636736
0.0650031
0.0660527
0.0668765
0.0675179
0.0680125
0.0683895
0.0686732
0.0688836
0.0690369
0.0691465
0.0692224
0.0692727
0.069303
0.0693167
0.0152245
0.0341382
0.0432552
0.0493099
0.0537724
0.0571988
0.0598806
0.061999
0.0636781
0.0650085
0.066059
0.0668837
0.0675261
0.0680217
0.0683998
0.0686846
0.0688961
0.0690505
0.069161
0.069238
0.0692891
0.0693199
0.0693341
0.0152246
0.0341385
0.0432557
0.0493106
0.0537734
0.0572002
0.0598825
0.0620014
0.063681
0.065012
0.0660631
0.0668885
0.0675315
0.0680278
0.0684067
0.0686922
0.0689044
0.0690596
0.0691708
0.0692483
0.0693
0.0693312
0.0693457
0.0152246
0.0341386
0.0432559
0.0493111
0.0537741
0.0572011
0.0598837
0.0620029
0.0636829
0.0650142
0.0660658
0.0668916
0.0675351
0.0680319
0.0684112
0.0686972
0.0689099
0.0690655
0.0691772
0.0692552
0.0693072
0.0693387
0.0693534
0.0152246
0.0341387
0.0432561
0.0493113
0.0537745
0.0572017
0.0598844
0.0620038
0.0636841
0.0650157
0.0660675
0.0668935
0.0675374
0.0680345
0.0684141
0.0687004
0.0689135
0.0690695
0.0691814
0.0692597
0.0693119
0.0693436
0.0693584
0.0152247
0.0341388
0.0432562
0.0493115
0.0537748
0.057202
0.0598849
0.0620044
0.0636848
0.0650166
0.0660685
0.0668948
0.0675388
0.0680361
0.068416
0.0687025
0.0689158
0.069072
0.0691842
0.0692626
0.0693149
0.0693468
0.0693617
0.0152247
0.0341388
0.0432563
0.0493116
0.0537749
0.0572022
0.0598852
0.0620048
0.0636853
0.0650171
0.0660692
0.0668956
0.0675398
0.0680372
0.0684172
0.0687039
0.0689173
0.0690736
0.0691859
0.0692644
0.0693169
0.0693488
0.0693637
0.0152247
0.0341388
0.0432563
0.0493117
0.053775
0.0572024
0.0598853
0.062005
0.0636856
0.0650175
0.0660697
0.0668961
0.0675404
0.0680379
0.0684179
0.0687047
0.0689182
0.0690746
0.069187
0.0692656
0.0693181
0.0693501
0.069365
0.0152247
0.0341388
0.0432563
0.0493117
0.053775
0.0572025
0.0598854
0.0620052
0.0636858
0.0650177
0.0660699
0.0668964
0.0675407
0.0680383
0.0684184
0.0687053
0.0689188
0.0690752
0.0691877
0.0692663
0.0693189
0.0693509
0.0693659
0.0152247
0.0341388
0.0432563
0.0493117
0.0537751
0.0572025
0.0598855
0.0620052
0.0636859
0.0650178
0.0660701
0.0668966
0.0675409
0.0680385
0.0684187
0.0687056
0.0689191
0.0690756
0.0691881
0.0692668
0.0693194
0.0693514
0.0693664
0.0152247
0.0341388
0.0432563
0.0493117
0.0537751
0.0572025
0.0598855
0.0620053
0.0636859
0.0650179
0.0660702
0.0668967
0.0675411
0.0680387
0.0684189
0.0687058
0.0689194
0.0690759
0.0691884
0.0692671
0.0693197
0.0693517
0.0693667
0.0152247
0.0341388
0.0432563
0.0493117
0.0537751
0.0572025
0.0598856
0.0620053
0.063686
0.065018
0.0660702
0.0668968
0.0675412
0.0680388
0.068419
0.0687059
0.0689195
0.069076
0.0691885
0.0692672
0.0693198
0.0693519
0.0693669
0.0152247
0.0341388
0.0432563
0.0493117
0.0537751
0.0572025
0.0598856
0.0620053
0.063686
0.065018
0.0660703
0.0668968
0.0675412
0.0680389
0.068419
0.068706
0.0689196
0.0690761
0.0691886
0.0692673
0.06932
0.069352
0.069367
0.0152247
0.0341388
0.0432563
0.0493117
0.0537751
0.0572026
0.0598856
0.0620053
0.063686
0.065018
0.0660703
0.0668969
0.0675412
0.0680389
0.0684191
0.068706
0.0689196
0.0690762
0.0691887
0.0692674
0.06932
0.0693521
0.0693671
0.0152247
0.0341388
0.0432563
0.0493117
0.0537751
0.0572026
0.0598856
0.0620054
0.063686
0.065018
0.0660703
0.0668969
0.0675413
0.0680389
0.0684191
0.0687061
0.0689197
0.0690762
0.0691887
0.0692674
0.0693201
0.0693521
0.0693671
0.0152247
0.0341388
0.0432563
0.0493117
0.0537751
0.0572026
0.0598856
0.0620054
0.063686
0.065018
0.0660703
0.0668969
0.0675413
0.0680389
0.0684191
0.0687061
0.0689197
0.0690762
0.0691887
0.0692674
0.0693201
0.0693521
0.0693671
0.0152247
0.0341388
0.0432563
0.0493117
0.0537751
0.0572026
0.0598856
0.0620054
0.063686
0.065018
0.0660703
0.0668969
0.0675413
0.0680389
0.0684191
0.0687061
0.0689197
0.0690762
0.0691888
0.0692675
0.0693201
0.0693521
0.0693671
0.0152247
0.0341388
0.0432563
0.0493117
0.0537751
0.0572026
0.0598856
0.0620054
0.063686
0.065018
0.0660703
0.0668969
0.0675413
0.0680389
0.0684191
0.0687061
0.0689197
0.0690762
0.0691888
0.0692675
0.0693201
0.0693521
0.0693671
0.0152247
0.0341388
0.0432563
0.0493117
0.0537751
0.0572026
0.0598856
0.0620054
0.063686
0.065018
0.0660703
0.0668969
0.0675413
0.0680389
0.0684191
0.0687061
0.0689197
0.0690762
0.0691888
0.0692675
0.0693201
0.0693521
0.0693671
0.0152247
0.0341388
0.0432563
0.0493117
0.0537751
0.0572026
0.0598856
0.0620054
0.063686
0.065018
0.0660703
0.0668969
0.0675413
0.0680389
0.0684191
0.0687061
0.0689197
0.0690762
0.0691888
0.0692675
0.0693201
0.0693521
0.0693671
0.0152247
0.0341388
0.0432563
0.0493117
0.0537751
0.0572026
0.0598856
0.0620054
0.063686
0.065018
0.0660703
0.0668969
0.0675413
0.0680389
0.0684191
0.0687061
0.0689197
0.0690762
0.0691888
0.0692675
0.0693201
0.0693521
0.0693671
0.0152247
0.0341388
0.0432563
0.0493117
0.0537751
0.0572026
0.0598856
0.0620054
0.063686
0.065018
0.0660703
0.0668969
0.0675413
0.0680389
0.0684191
0.0687061
0.0689197
0.0690762
0.0691887
0.0692674
0.0693201
0.0693521
0.069367
0.0245738
0.0207061
0.0206758
0.0244141
0.04381
0.0429514
0.0429403
0.0437774
0.0514588
0.0512003
0.0511944
0.0514419
0.0560838
0.0559717
0.0559665
0.0560682
0.0593175
0.0592553
0.0592501
0.0593015
0.0617133
0.0616739
0.0616684
0.0616967
0.0635362
0.0635092
0.0635035
0.063519
0.0649402
0.0649206
0.0649147
0.0649222
0.0660258
0.0660112
0.066005
0.0660072
0.0668645
0.0668531
0.0668468
0.0668453
0.0675095
0.0675004
0.0674939
0.0674898
0.068002
0.0679945
0.0679878
0.0679818
0.0683747
0.0683683
0.0683615
0.0683541
0.0686537
0.0686481
0.0686412
0.0686328
0.0688602
0.0688552
0.0688482
0.068839
0.0690112
0.0690066
0.0689995
0.0689897
0.0691201
0.0691158
0.0691087
0.0690985
0.0691977
0.0691936
0.0691864
0.0691759
0.0692522
0.0692483
0.069241
0.0692304
0.0692901
0.0692862
0.069279
0.0692681
0.069316
0.0693122
0.0693049
0.069294
0.0693335
0.0693298
0.0693225
0.0693115
0.0693452
0.0693415
0.0693342
0.0693232
0.069353
0.0693493
0.069342
0.0693309
0.069358
0.0693544
0.0693471
0.069336
0.0693613
0.0693576
0.0693503
0.0693393
0.0693634
0.0693597
0.0693524
0.0693413
0.0693647
0.0693611
0.0693538
0.0693427
0.0693656
0.0693619
0.0693546
0.0693435
0.0693661
0.0693624
0.0693551
0.069344
0.0693664
0.0693627
0.0693554
0.0693443
0.0693666
0.0693629
0.0693556
0.0693445
0.0693667
0.069363
0.0693557
0.0693446
0.0693668
0.0693631
0.0693558
0.0693447
0.0693668
0.0693631
0.0693558
0.0693447
0.0693668
0.0693631
0.0693558
0.0693447
0.0693668
0.0693631
0.0693558
0.0693447
0.0693668
0.0693631
0.0693558
0.0693447
0.0693668
0.0693631
0.0693558
0.0693447
0.0693668
0.0693631
0.0693558
0.0693447
0.0693667
0.069363
0.0693557
0.0693446
0.0693667
0.069363
0.0693557
0.0693446
0.0367091
0.0427387
0.0463194
0.0486834
0.0502877
0.051353
0.0520065
0.0523248
0.0523486
0.0520898
0.0515337
0.0506389
0.0493337
0.0475081
0.044995
0.0415281
0.0366182
0.0290321
0.0129315
0.0460622
0.0488632
0.0510733
0.0527509
0.0539771
0.0548219
0.055339
0.0555645
0.0555154
0.0551893
0.0545624
0.0535875
0.0521887
0.0502514
0.0476021
0.0439613
0.0388076
0.0308111
0.0137507
0.0521687
0.0535713
0.0549325
0.0560885
0.0569875
0.0576224
0.0579999
0.0581262
0.0579992
0.0576038
0.0569079
0.0558585
0.0543755
0.0523401
0.0495729
0.0457838
0.0404277
0.0321077
0.014342
0.0563932
0.0571673
0.0580212
0.0588062
0.0594435
0.0598949
0.0601418
0.060171
0.0599663
0.0595024
0.0587401
0.0576214
0.056062
0.0539391
0.0510687
0.0471522
0.0416281
0.0330533
0.014768
0.0594751
0.0599336
0.0604787
0.061005
0.0614403
0.0617386
0.0618696
0.0618086
0.0615299
0.0610006
0.0601757
0.0589929
0.0573641
0.0551635
0.0522026
0.0481772
0.0425144
0.0337396
0.0150723
0.0617973
0.0620795
0.0624292
0.0627742
0.0630559
0.0632297
0.063261
0.0631193
0.0627724
0.0621823
0.0612997
0.0600583
0.0583672
0.0560976
0.0530583
0.0489406
0.0431641
0.0342334
0.0152872
0.0635784
0.0637533
0.0639741
0.0641903
0.0643555
0.0644293
0.0643768
0.0641645
0.0637566
0.0631115
0.0621763
0.0608822
0.0591359
0.0568062
0.0536996
0.0495046
0.0436361
0.0345849
0.0154369
0.064956
0.0650613
0.0651939
0.0653172
0.0653937
0.0653879
0.0652659
0.0649931
0.0645318
0.0638378
0.062856
0.0615154
0.0597207
0.0573393
0.0541758
0.0499172
0.0439751
0.0348319
0.0155397
0.066024
0.066082
0.0661525
0.0662076
0.0662165
0.0661477
0.0659687
0.065645
0.0651378
0.0644013
0.0633789
0.0619979
0.0601617
0.0577365
0.0545259
0.0502156
0.0442156
0.0350032
0.0156091
0.0668502
0.0668751
0.066901
0.0669055
0.0668627
0.0667442
0.0665191
0.0661531
0.0656072
0.0648345
0.0637774
0.0623621
0.060491
0.0580294
0.0547803
0.0504288
0.044384
0.0351203
0.0156552
0.0674863
0.0674874
0.0674807
0.0674475
0.0673652
0.0672077
0.0669455
0.0665451
0.0659671
0.0651641
0.0640779
0.062634
0.060734
0.0582428
0.0549629
0.0505792
0.0445004
0.0351992
0.0156855
0.0679722
0.0679561
0.0679254
0.067864
0.0677515
0.0675637
0.0672722
0.066844
0.0662398
0.0654121
0.064302
0.0628346
0.0609113
0.0583964
0.0550924
0.050684
0.0445798
0.0352517
0.0157051
0.06834
0.0683113
0.0682629
0.0681804
0.068045
0.0678338
0.0675194
0.0670691
0.066444
0.0655963
0.064467
0.062981
0.0610391
0.0585057
0.0551831
0.050756
0.0446333
0.0352862
0.0157176
0.0686155
0.0685775
0.0685161
0.0684179
0.0682652
0.0680361
0.067704
0.0672366
0.066595
0.0657315
0.0645871
0.0630863
0.0611301
0.0585824
0.0552458
0.050805
0.0446689
0.0353086
0.0157255
0.0688194
0.0687746
0.0687037
0.0685939
0.0684283
0.0681857
0.0678401
0.0673595
0.0667051
0.0658295
0.0646734
0.0631613
0.061194
0.0586357
0.0552887
0.0508378
0.0446923
0.035323
0.0157305
0.0689684
0.0689187
0.0688409
0.0687225
0.0685474
0.0682948
0.067939
0.0674485
0.0667845
0.0658996
0.0647346
0.0632139
0.0612384
0.0586721
0.0553176
0.0508596
0.0447075
0.0353321
0.0157335
0.0690759
0.0690228
0.0689399
0.0688153
0.0686333
0.0683733
0.06801
0.0675121
0.0668409
0.0659491
0.0647774
0.0632504
0.0612688
0.0586968
0.0553369
0.0508739
0.0447173
0.0353378
0.0157354
0.0691525
0.0690968
0.0690104
0.0688814
0.0686943
0.0684291
0.0680603
0.0675569
0.0668805
0.0659836
0.0648071
0.0632754
0.0612895
0.0587134
0.0553496
0.0508832
0.0447235
0.0353414
0.0157365
0.0692063
0.0691489
0.0690599
0.0689278
0.0687372
0.0684681
0.0680954
0.0675882
0.0669079
0.0660073
0.0648273
0.0632924
0.0613033
0.0587243
0.0553579
0.0508892
0.0447274
0.0353436
0.0157372
0.0692436
0.069185
0.0690943
0.06896
0.0687669
0.0684951
0.0681197
0.0676096
0.0669267
0.0660235
0.064841
0.0633037
0.0613125
0.0587315
0.0553633
0.050893
0.0447299
0.0353449
0.0157376
0.0692692
0.0692097
0.0691178
0.068982
0.0687871
0.0685135
0.0681362
0.0676242
0.0669393
0.0660344
0.0648501
0.0633112
0.0613185
0.0587362
0.0553668
0.0508954
0.0447314
0.0353458
0.0157378
0.0692865
0.0692265
0.0691337
0.0689969
0.0688009
0.0685259
0.0681473
0.067634
0.0669478
0.0660416
0.0648562
0.0633162
0.0613224
0.0587392
0.055369
0.0508969
0.0447324
0.0353463
0.015738
0.0692981
0.0692377
0.0691443
0.0690068
0.06881
0.0685342
0.0681547
0.0676404
0.0669534
0.0660463
0.0648601
0.0633194
0.0613249
0.0587411
0.0553703
0.0508978
0.0447329
0.0353466
0.0157381
0.0693057
0.069245
0.0691513
0.0690134
0.068816
0.0685397
0.0681595
0.0676447
0.0669571
0.0660494
0.0648627
0.0633214
0.0613265
0.0587423
0.0553712
0.0508984
0.0447333
0.0353467
0.0157381
0.0693107
0.0692499
0.0691559
0.0690177
0.06882
0.0685432
0.0681627
0.0676475
0.0669594
0.0660514
0.0648643
0.0633227
0.0613276
0.058743
0.0553717
0.0508988
0.0447335
0.0353468
0.0157382
0.0693139
0.069253
0.0691589
0.0690204
0.0688225
0.0685455
0.0681647
0.0676492
0.0669609
0.0660527
0.0648653
0.0633235
0.0613282
0.0587435
0.0553721
0.050899
0.0447336
0.0353469
0.0157382
0.069316
0.069255
0.0691608
0.0690222
0.0688241
0.068547
0.068166
0.0676503
0.0669619
0.0660535
0.064866
0.063324
0.0613286
0.0587438
0.0553723
0.0508991
0.0447337
0.0353469
0.0157382
0.0693173
0.0692562
0.069162
0.0690233
0.0688251
0.0685479
0.0681668
0.0676511
0.0669625
0.066054
0.0648664
0.0633244
0.0613288
0.058744
0.0553724
0.0508992
0.0447337
0.035347
0.0157382
0.0693181
0.069257
0.0691627
0.069024
0.0688258
0.0685485
0.0681673
0.0676515
0.0669629
0.0660543
0.0648666
0.0633246
0.061329
0.0587441
0.0553724
0.0508992
0.0447338
0.035347
0.0157382
0.0693186
0.0692575
0.0691632
0.0690244
0.0688262
0.0685488
0.0681676
0.0676518
0.0669631
0.0660545
0.0648668
0.0633247
0.0613291
0.0587441
0.0553725
0.0508993
0.0447338
0.035347
0.0157382
0.0693189
0.0692578
0.0691635
0.0690247
0.0688264
0.068549
0.0681678
0.0676519
0.0669633
0.0660546
0.0648669
0.0633248
0.0613291
0.0587442
0.0553725
0.0508993
0.0447338
0.035347
0.0157382
0.0693191
0.069258
0.0691636
0.0690249
0.0688266
0.0685492
0.0681679
0.067652
0.0669633
0.0660547
0.0648669
0.0633248
0.0613291
0.0587442
0.0553725
0.0508993
0.0447338
0.035347
0.0157382
0.0693192
0.0692581
0.0691637
0.069025
0.0688267
0.0685493
0.068168
0.0676521
0.0669634
0.0660547
0.064867
0.0633248
0.0613292
0.0587442
0.0553725
0.0508993
0.0447338
0.035347
0.0157382
0.0693193
0.0692582
0.0691638
0.069025
0.0688267
0.0685493
0.0681681
0.0676521
0.0669634
0.0660547
0.064867
0.0633248
0.0613292
0.0587442
0.0553725
0.0508993
0.0447338
0.035347
0.0157382
0.0693193
0.0692582
0.0691638
0.069025
0.0688267
0.0685493
0.0681681
0.0676522
0.0669634
0.0660547
0.064867
0.0633248
0.0613292
0.0587442
0.0553725
0.0508993
0.0447338
0.035347
0.0157382
0.0693193
0.0692582
0.0691639
0.0690251
0.0688268
0.0685494
0.0681681
0.0676522
0.0669634
0.0660547
0.064867
0.0633248
0.0613292
0.0587442
0.0553725
0.0508993
0.0447338
0.035347
0.0157382
0.0693193
0.0692582
0.0691639
0.0690251
0.0688268
0.0685494
0.0681681
0.0676522
0.0669635
0.0660547
0.064867
0.0633249
0.0613292
0.0587442
0.0553725
0.0508993
0.0447338
0.035347
0.0157382
0.0693193
0.0692582
0.0691639
0.0690251
0.0688268
0.0685494
0.0681681
0.0676522
0.0669635
0.0660548
0.064867
0.0633249
0.0613292
0.0587442
0.0553726
0.0508993
0.0447338
0.035347
0.0157382
0.0693193
0.0692582
0.0691639
0.0690251
0.0688268
0.0685494
0.0681681
0.0676522
0.0669635
0.0660548
0.064867
0.0633249
0.0613292
0.0587442
0.0553726
0.0508993
0.0447338
0.035347
0.0157382
0.0693193
0.0692582
0.0691638
0.0690251
0.0688268
0.0685494
0.0681681
0.0676522
0.0669635
0.0660548
0.064867
0.0633249
0.0613292
0.0587442
0.0553726
0.0508993
0.0447338
0.035347
0.0157382
0.0693193
0.0692582
0.0691638
0.0690251
0.0688268
0.0685494
0.0681681
0.0676522
0.0669635
0.0660548
0.064867
0.0633249
0.0613292
0.0587442
0.0553726
0.0508993
0.0447338
0.035347
0.0157382
0.0693192
0.0692582
0.0691638
0.0690251
0.0688268
0.0685494
0.0681681
0.0676522
0.0669635
0.0660548
0.064867
0.0633249
0.0613292
0.0587442
0.0553726
0.0508993
0.0447338
0.035347
0.0157382
)
;

boundaryField
{
    leftWall
    {
        type            kqRWallFunction;
        value           nonuniform List<scalar> 
50
(
0.00282371
0.00527373
0.00698292
0.00832198
0.00939441
0.0102744
0.0110091
0.0116298
0.0124575
0.0132636
0.0138463
0.0142665
0.0145671
0.0147797
0.0149278
0.0150294
0.015098
0.0151436
0.0151734
0.0151926
0.0152049
0.0152126
0.0152173
0.0152203
0.015222
0.0152231
0.0152238
0.0152241
0.0152244
0.0152245
0.0152246
0.0152246
0.0152246
0.0152247
0.0152247
0.0152247
0.0152247
0.0152247
0.0152247
0.0152247
0.0152247
0.0152247
0.0152247
0.0152247
0.0152247
0.0152247
0.0152247
0.0152247
0.0152247
0.0152247
)
;
    }
    rightWall
    {
        type            kqRWallFunction;
        value           nonuniform List<scalar> 
50
(
0.00307996
0.0056498
0.00737463
0.00872966
0.0098175
0.0107114
0.0114583
0.0120896
0.0129315
0.0137507
0.014342
0.014768
0.0150723
0.0152872
0.0154369
0.0155397
0.0156091
0.0156552
0.0156855
0.0157051
0.0157176
0.0157255
0.0157305
0.0157335
0.0157354
0.0157365
0.0157372
0.0157376
0.0157378
0.015738
0.0157381
0.0157381
0.0157382
0.0157382
0.0157382
0.0157382
0.0157382
0.0157382
0.0157382
0.0157382
0.0157382
0.0157382
0.0157382
0.0157382
0.0157382
0.0157382
0.0157382
0.0157382
0.0157382
0.0157382
)
;
    }
    lowerWall
    {
        type            kqRWallFunction;
        value           nonuniform List<scalar> 
62
(
0.00282371
0.00545176
0.00742096
0.00875493
0.00970678
0.0104007
0.0109093
0.0112801
0.0115463
0.0117318
0.0118539
0.0119239
0.0119477
0.0119256
0.0118515
0.0117114
0.0114803
0.0111167
0.0105524
0.00967292
0.0082825
0.00603225
0.00222007
0.00222007
0.00553303
0.00764873
0.00941966
0.0110601
0.0128586
0.0155661
0.0218223
0.0245738
0.0207061
0.0206758
0.0244141
0.00236456
0.0058808
0.00803688
0.00984712
0.0115403
0.0134369
0.0163346
0.0227382
0.00236456
0.00638077
0.00866253
0.0100109
0.0108234
0.0113153
0.0116054
0.0117597
0.0118138
0.0117838
0.0116717
0.0114679
0.0111518
0.0106902
0.0100329
0.00910182
0.00776305
0.00574598
0.00307996
)
;
    }
    atmosphere
    {
        type            inletOutlet;
        inletValue      uniform 0.1;
        value           nonuniform List<scalar> 
46
(
0.0152247
0.0341388
0.0432563
0.0493117
0.0537751
0.0572026
0.0598856
0.0620054
0.063686
0.065018
0.0660703
0.0668969
0.0675413
0.0680389
0.0684191
0.0687061
0.0689197
0.0690762
0.0691887
0.0692674
0.0693201
0.0693521
0.069367
0.0693667
0.069363
0.0693557
0.0693446
0.0693192
0.0692582
0.0691638
0.0690251
0.0688268
0.0685494
0.0681681
0.0676522
0.0669635
0.0660548
0.064867
0.0633249
0.0613292
0.0587442
0.0553726
0.0508993
0.0447338
0.035347
0.0157382
)
;
    }
    defaultFaces
    {
        type            empty;
    }
}


// ************************************************************************* //
