/*--------------------------------*- C++ -*----------------------------------*\
| =========                 |                                                 |
| \\      /  F ield         | OpenFOAM: The Open Source CFD Toolbox           |
|  \\    /   O peration     | Version:  2406                                  |
|   \\  /    A nd           | Website:  www.openfoam.com                      |
|    \\/     M anipulation  |                                                 |
\*---------------------------------------------------------------------------*/
FoamFile
{
    version     2.0;
    format      ascii;
    arch        "LSB;label=32;scalar=64";
    class       volScalarField;
    location    "0.45";
    object      nut;
}
// * * * * * * * * * * * * * * * * * * * * * * * * * * * * * * * * * * * * * //

dimensions      [0 2 -1 0 0 0 0];

internalField   nonuniform List<scalar> 
2268
(
4.36072e-05
4.57804e-05
5.37105e-05
5.859e-05
6.19249e-05
6.43145e-05
6.60633e-05
6.73498e-05
6.82888e-05
6.89577e-05
6.94093e-05
6.9678e-05
6.97818e-05
6.97225e-05
6.94834e-05
6.90241e-05
6.82702e-05
6.70918e-05
6.52599e-05
6.23524e-05
5.75324e-05
4.88562e-05
2.8854e-05
9.39016e-05
0.000350459
0.000463109
0.000530771
0.000577031
0.000610454
0.000635178
0.000653575
0.000667149
0.00067692
0.000683589
0.000687617
0.000689252
0.000688531
0.000685242
0.00067886
0.000668393
0.000652077
0.000626709
0.000586185
0.00051795
0.000391594
9.74195e-05
0.00010891
0.000579727
0.000831817
0.000989819
0.0011003
0.00118148
0.00124238
0.00128822
0.00132236
0.00134714
0.00136418
0.00137457
0.00137892
0.00137731
0.00136924
0.00135345
0.00132752
0.00128714
0.00122445
0.00112467
0.000958629
0.000664115
0.000115614
0.00011951
0.000738774
0.00111683
0.00136377
0.0015401
0.00167149
0.00177107
0.00184665
0.00190334
0.00194472
0.00197336
0.00199099
0.00199857
0.00199626
0.00198325
0.00195749
0.00191509
0.00184904
0.00174668
0.00158448
0.00131809
0.000863738
0.000129138
0.000127448
0.000857295
0.00134435
0.00167378
0.00191347
0.00209425
0.00223251
0.0023382
0.00241796
0.00247652
0.0025173
0.00254264
0.00255387
0.00255121
0.00253361
0.00249827
0.00243991
0.00234903
0.00220853
0.0019869
0.00162603
0.00102571
0.000140636
0.000133678
0.000950319
0.00153139
0.00193597
0.0022353
0.00246359
0.00263963
0.0027751
0.00287792
0.00295385
0.00300706
0.00304048
0.00305576
0.00305325
0.00303167
0.00298764
0.00291467
0.0028012
0.00262643
0.00235205
0.00190694
0.00117217
0.000152321
0.000138724
0.00102595
0.00168856
0.00216117
0.00251605
0.00278948
0.00300198
0.00316655
0.00329218
0.00338546
0.00345128
0.00349307
0.00351285
0.00351106
0.00348633
0.00343482
0.0033492
0.00321637
0.00301299
0.00269593
0.0021825
0.0013244
0.000168363
0.000142901
0.00108893
0.00182275
0.0023568
0.0027631
0.00307912
0.00332653
0.00351931
0.00366731
0.00377782
0.00385634
0.00390678
0.00393148
0.00393108
0.00390416
0.00384666
0.00375074
0.00360253
0.0033776
0.0030314
0.00247633
0.00152431
0.00020029
2.97673e-05
5.02881e-05
5.88793e-05
6.34691e-05
6.61209e-05
6.77021e-05
6.86303e-05
6.91177e-05
6.92718e-05
6.91387e-05
6.87233e-05
6.7996e-05
6.68921e-05
6.53024e-05
6.30471e-05
5.98145e-05
5.4989e-05
4.70302e-05
4.70398e-05
0.000111358
0.000412347
0.000536892
0.000601621
0.000638468
0.000660305
0.000673093
0.000679754
0.000681724
0.000679603
0.000673439
0.000662836
0.00064694
0.000624318
0.000592602
0.0005476
0.00048065
0.000368045
0.00010779
0.000131408
0.000710109
0.00100393
0.0011623
0.00125323
0.0013072
0.00133878
0.00135512
0.00135974
0.00135408
0.00133828
0.00131142
0.00127154
0.00121542
0.00113781
0.00102954
0.000872025
0.000617278
0.000124124
0.000146471
0.000932049
0.00138978
0.00164514
0.00179325
0.00188138
0.00193288
0.00195934
0.00196645
0.00195657
0.00192991
0.00188505
0.00181896
0.00172672
0.00160044
0.00142662
0.00117878
0.000793152
0.000135787
0.000159437
0.00111352
0.00172218
0.00206917
0.00227183
0.00239276
0.00246336
0.00249933
0.00250837
0.00249368
0.00245556
0.00239209
0.00229925
0.00217062
0.00199605
0.0017586
0.00142604
0.000925498
0.000144576
0.000172886
0.0012776
0.00202477
0.00245317
0.00270428
0.00285464
0.00294241
0.00298669
0.00299684
0.00297675
0.00292674
0.00284442
0.00272491
0.00256046
0.00233911
0.00204125
0.00163073
0.00102998
0.000151493
0.000191559
0.00144641
0.002318
0.0028119
0.00310234
0.00327727
0.00337949
0.00343046
0.00344071
0.00341458
0.00335233
0.00325113
0.0031053
0.00290602
0.00263988
0.00228531
0.00180363
0.00111522
0.000157106
0.000227108
0.00166109
0.00262262
0.00315685
0.00347472
0.00366822
0.00378161
0.00383734
0.00384653
0.00381369
0.0037389
0.00361888
0.0034473
0.00321441
0.00290569
0.00249823
0.00195182
0.00118637
0.000161757
0.00014836
0.00117227
0.00200463
0.00262667
0.00310863
0.00348864
0.00378937
0.00402586
0.00420893
0.00434683
0.00444584
0.00451056
0.00454389
0.0045468
0.00451802
0.00445344
0.00434501
0.00417883
0.00393148
0.00356375
0.00301224
0.00219568
0.00113037
0.00015365
0.00125469
0.00218935
0.00290612
0.00347215
0.0039253
0.00428858
0.00457756
0.00480377
0.0049762
0.00510193
0.00518634
0.00523304
0.00524373
0.00521784
0.00515217
0.00504015
0.00487082
0.00462735
0.00428575
0.00381662
0.00319892
0.00246283
0.000157488
0.00131605
0.00233014
0.0031229
0.0037584
0.00427369
0.00469147
0.00502731
0.00529294
0.00549777
0.00564943
0.00575395
0.0058157
0.00583727
0.00581921
0.00575988
0.00565516
0.00549831
0.00528017
0.00499056
0.00462309
0.00418753
0.0037348
0.000160296
0.00136211
0.00243781
0.00329112
0.00398342
0.00455077
0.00501526
0.00539216
0.00569315
0.00592779
0.0061041
0.00622865
0.00630659
0.00634147
0.00633516
0.00628784
0.00619807
0.00606321
0.00588038
0.00564864
0.00537338
0.00507425
0.00479647
0.00016235
0.00139663
0.00251977
0.00342087
0.00415905
0.00476938
0.00527328
0.00568556
0.00601768
0.00627923
0.00647847
0.00662246
0.00671705
0.00676677
0.0067748
0.00674308
0.00667256
0.00656386
0.00641836
0.00624013
0.00603892
0.00583418
0.0056585
0.000163841
0.00142229
0.00258156
0.00351989
0.00429463
0.00493994
0.00547655
0.00591879
0.00627784
0.00656322
0.00678335
0.00694568
0.00705671
0.00712185
0.00714546
0.00713097
0.00708125
0.00699916
0.00688858
0.00675575
0.00661097
0.00647024
0.00635546
0.000164914
0.00144115
0.00262754
0.00359447
0.00439789
0.00507122
0.00563456
0.00610175
0.00648367
0.00678974
0.00702847
0.00720765
0.0073343
0.00741459
0.00745385
0.0074567
0.00742736
0.00737013
0.00729012
0.00719413
0.00709149
0.00699447
0.00691764
0.000165674
0.00145479
0.00266123
0.00364978
0.00447537
0.00517078
0.00575558
0.00624319
0.00664419
0.00696787
0.00722281
0.00741705
0.00755802
0.00765252
0.00770662
0.00772582
0.00771525
0.00768001
0.0076257
0.0075589
0.00748756
0.00742093
0.00736881
0.000166205
0.0014645
0.00268551
0.00369015
0.00453258
0.00524511
0.00584686
0.00635087
0.00676749
0.00710587
0.00737462
0.00758196
0.00773566
0.00784296
0.00791051
0.00794442
0.00795036
0.00793385
0.00790056
0.00785656
0.00780849
0.00776336
0.00772796
0.00016657
0.00147129
0.00270272
0.00371912
0.00457414
0.00529971
0.00591461
0.00643158
0.00686074
0.00721114
0.0074914
0.00770986
0.00787453
0.00799298
0.00807228
0.0081189
0.00813887
0.00813787
0.00812142
0.00809505
0.0080643
0.00803461
0.00801084
0.000166816
0.00147597
0.00271471
0.00373957
0.00460384
0.00533918
0.0059641
0.00649112
0.00693017
0.00729021
0.00757985
0.00780751
0.00798137
0.00810925
0.00819847
0.00825575
0.0082873
0.00829883
0.00829564
0.00828276
0.00826492
0.00824641
0.00823087
0.00016698
0.00147913
0.00272293
0.00375377
0.00462473
0.00536726
0.00599969
0.00653436
0.00698106
0.00734868
0.0076458
0.0078809
0.00806228
0.0081979
0.00829526
0.00836124
0.00840211
0.00842353
0.00843062
0.00842798
0.00841971
0.00840934
0.00839967
0.000167088
0.00148123
0.00272848
0.00376348
0.0046392
0.00538693
0.0060249
0.00656529
0.00701781
0.00739126
0.00769422
0.0079352
0.00812257
0.0082644
0.00836827
0.00844116
0.00848936
0.00851846
0.00853339
0.00853842
0.00853721
0.00853275
0.00852731
0.000167158
0.00148261
0.00273216
0.00377003
0.00464907
0.00540052
0.00604249
0.00658709
0.00704394
0.00742181
0.00772925
0.00797478
0.00816682
0.00831349
0.00842245
0.0085007
0.00855455
0.00858949
0.00861031
0.00862104
0.00862499
0.0086248
0.00862238
0.000167202
0.00148351
0.00273458
0.00377437
0.00465571
0.00540976
0.00605459
0.00660223
0.00706227
0.00744341
0.00775421
0.00800319
0.00819879
0.00834917
0.00846202
0.00854435
0.00860245
0.00864177
0.00866694
0.00868183
0.00868952
0.0086924
0.00869212
0.00016723
0.00148408
0.00273614
0.00377723
0.00466012
0.00541597
0.0060628
0.00661262
0.00707495
0.00745848
0.00777176
0.0080233
0.00822156
0.00837472
0.00849047
0.00857585
0.0086371
0.00867962
0.00870797
0.00872585
0.00873622
0.00874127
0.00874251
0.000167248
0.00148444
0.00273714
0.00377907
0.00466301
0.00542009
0.00606831
0.00661964
0.0070836
0.00746885
0.00778392
0.00803733
0.00823754
0.00839274
0.00851062
0.00859823
0.00866177
0.00870661
0.00873723
0.00875725
0.00876951
0.00877609
0.00877839
0.000167258
0.00148466
0.00273777
0.00378026
0.00466488
0.00542279
0.00607196
0.00662434
0.00708943
0.0074759
0.00779224
0.00804699
0.00824861
0.00840528
0.0085247
0.0086139
0.00867908
0.00872557
0.0087578
0.00877932
0.00879289
0.00880053
0.00880356
0.000167265
0.0014848
0.00273817
0.00378101
0.00466609
0.00542454
0.00607434
0.00662744
0.00709332
0.00748063
0.00779787
0.00805357
0.00825618
0.00841389
0.0085344
0.00862473
0.00869106
0.0087387
0.00877204
0.0087946
0.00880908
0.00881745
0.00882098
0.000167269
0.00148488
0.00273841
0.00378148
0.00466685
0.00542567
0.00607589
0.00662947
0.00709588
0.00748376
0.00780162
0.00805798
0.00826128
0.00841972
0.00854099
0.0086321
0.00869923
0.00874767
0.00878177
0.00880504
0.00882014
0.008829
0.00883286
0.000167271
0.00148494
0.00273856
0.00378177
0.00466733
0.00542638
0.00607688
0.00663078
0.00709755
0.00748582
0.00780411
0.00806091
0.00826469
0.00842363
0.00854542
0.00863706
0.00870474
0.00875371
0.00878834
0.00881208
0.0088276
0.00883678
0.00884087
0.000167273
0.00148497
0.00273865
0.00378195
0.00466763
0.00542683
0.00607751
0.00663162
0.00709863
0.00748716
0.00780573
0.00806283
0.00826693
0.00842621
0.00854835
0.00864036
0.00870841
0.00875774
0.00879271
0.00881677
0.00883256
0.00884196
0.0088462
0.000167274
0.00148498
0.00273871
0.00378206
0.00466781
0.00542711
0.00607791
0.00663216
0.00709931
0.00748802
0.00780678
0.00806408
0.0082684
0.0084279
0.00855028
0.00864253
0.00871082
0.00876039
0.00879559
0.00881986
0.00883583
0.00884537
0.0088497
0.000167274
0.001485
0.00273874
0.00378213
0.00466793
0.00542729
0.00607816
0.00663249
0.00709975
0.00748857
0.00780745
0.00806489
0.00826934
0.008429
0.00855153
0.00864394
0.00871239
0.00876212
0.00879746
0.00882187
0.00883795
0.00884759
0.00885198
0.000167274
0.001485
0.00273876
0.00378217
0.004668
0.00542739
0.00607831
0.0066327
0.00710002
0.00748892
0.00780787
0.0080654
0.00826995
0.0084297
0.00855233
0.00864485
0.00871339
0.00876323
0.00879867
0.00882316
0.00883932
0.00884901
0.00885345
0.000167275
0.00148501
0.00273878
0.00378219
0.00466804
0.00542746
0.00607841
0.00663283
0.00710019
0.00748913
0.00780814
0.00806572
0.00827033
0.00843014
0.00855284
0.00864542
0.00871404
0.00876393
0.00879944
0.00882398
0.00884019
0.00884992
0.00885438
0.000167275
0.00148501
0.00273878
0.00378221
0.00466806
0.0054275
0.00607846
0.00663291
0.0071003
0.00748927
0.00780831
0.00806593
0.00827057
0.00843042
0.00855317
0.00864579
0.00871444
0.00876438
0.00879992
0.0088245
0.00884074
0.0088505
0.00885497
0.000167275
0.00148501
0.00273879
0.00378221
0.00466808
0.00542752
0.0060785
0.00663296
0.00710036
0.00748935
0.00780841
0.00806605
0.00827072
0.0084306
0.00855337
0.00864601
0.0087147
0.00876466
0.00880023
0.00882483
0.00884108
0.00885085
0.00885534
0.000167275
0.00148501
0.00273879
0.00378222
0.00466809
0.00542753
0.00607852
0.00663299
0.0071004
0.0074894
0.00780847
0.00806613
0.00827081
0.00843071
0.00855349
0.00864616
0.00871486
0.00876483
0.00880042
0.00882503
0.0088413
0.00885108
0.00885556
0.000167275
0.00148501
0.00273879
0.00378222
0.00466809
0.00542754
0.00607853
0.00663301
0.00710043
0.00748943
0.00780851
0.00806618
0.00827087
0.00843077
0.00855357
0.00864624
0.00871495
0.00876494
0.00880053
0.00882516
0.00884143
0.00885121
0.0088557
0.000167275
0.00148501
0.00273879
0.00378222
0.0046681
0.00542755
0.00607854
0.00663302
0.00710044
0.00748945
0.00780854
0.00806621
0.00827091
0.00843081
0.00855361
0.0086463
0.00871501
0.00876501
0.0088006
0.00882523
0.00884151
0.0088513
0.00885579
0.000167275
0.00148501
0.00273879
0.00378223
0.0046681
0.00542755
0.00607854
0.00663302
0.00710045
0.00748946
0.00780855
0.00806622
0.00827093
0.00843084
0.00855364
0.00864633
0.00871505
0.00876505
0.00880065
0.00882528
0.00884156
0.00885135
0.00885584
0.000167275
0.00148501
0.00273879
0.00378223
0.0046681
0.00542755
0.00607855
0.00663303
0.00710045
0.00748947
0.00780856
0.00806623
0.00827094
0.00843085
0.00855366
0.00864635
0.00871507
0.00876507
0.00880067
0.00882531
0.00884159
0.00885138
0.00885588
0.000167275
0.00148501
0.00273879
0.00378223
0.0046681
0.00542755
0.00607855
0.00663303
0.00710046
0.00748947
0.00780856
0.00806624
0.00827095
0.00843086
0.00855367
0.00864636
0.00871508
0.00876509
0.00880069
0.00882533
0.00884161
0.0088514
0.0088559
0.000167275
0.00148501
0.00273879
0.00378223
0.0046681
0.00542755
0.00607855
0.00663303
0.00710046
0.00748948
0.00780857
0.00806624
0.00827095
0.00843087
0.00855368
0.00864637
0.00871509
0.0087651
0.0088007
0.00882534
0.00884162
0.00885141
0.00885591
0.000167275
0.00148501
0.00273879
0.00378223
0.0046681
0.00542755
0.00607855
0.00663303
0.00710046
0.00748948
0.00780857
0.00806625
0.00827095
0.00843087
0.00855368
0.00864637
0.0087151
0.0087651
0.00880071
0.00882535
0.00884163
0.00885142
0.00885592
0.000167275
0.00148501
0.00273879
0.00378223
0.0046681
0.00542755
0.00607855
0.00663303
0.00710046
0.00748948
0.00780857
0.00806625
0.00827096
0.00843087
0.00855368
0.00864638
0.0087151
0.00876511
0.00880071
0.00882535
0.00884163
0.00885143
0.00885593
0.000167275
0.00148501
0.00273879
0.00378223
0.0046681
0.00542755
0.00607855
0.00663303
0.00710046
0.00748948
0.00780857
0.00806625
0.00827096
0.00843088
0.00855369
0.00864638
0.0087151
0.00876511
0.00880072
0.00882536
0.00884164
0.00885143
0.00885593
0.000167275
0.00148501
0.00273879
0.00378223
0.0046681
0.00542756
0.00607855
0.00663303
0.00710046
0.00748948
0.00780857
0.00806625
0.00827096
0.00843088
0.00855369
0.00864638
0.00871511
0.00876511
0.00880072
0.00882536
0.00884164
0.00885144
0.00885594
0.000167275
0.00148501
0.00273879
0.00378223
0.0046681
0.00542756
0.00607855
0.00663303
0.00710046
0.00748948
0.00780857
0.00806625
0.00827096
0.00843088
0.00855369
0.00864638
0.00871511
0.00876512
0.00880072
0.00882536
0.00884165
0.00885144
0.00885594
0.000167275
0.00148501
0.00273879
0.00378223
0.0046681
0.00542756
0.00607855
0.00663303
0.00710046
0.00748948
0.00780857
0.00806625
0.00827096
0.00843088
0.00855369
0.00864638
0.00871511
0.00876512
0.00880072
0.00882536
0.00884165
0.00885145
0.00885594
0.000167275
0.00148501
0.00273879
0.00378223
0.0046681
0.00542756
0.00607855
0.00663303
0.00710046
0.00748948
0.00780857
0.00806625
0.00827096
0.00843088
0.00855369
0.00864638
0.00871511
0.00876512
0.00880072
0.00882536
0.00884165
0.00885145
0.00885595
0.000214696
0.000197348
0.000197203
0.000214001
0.00190865
0.00182037
0.00182023
0.00190762
0.00348347
0.003408
0.00340743
0.0034816
0.00466606
0.00462234
0.00462143
0.00466327
0.00558279
0.00555698
0.00555581
0.00557923
0.00630796
0.0062916
0.00629025
0.00630386
0.00688627
0.00687524
0.00687374
0.00688173
0.00734741
0.00733961
0.00733799
0.0073425
0.00771307
0.00770737
0.00770563
0.00770783
0.00800036
0.00799605
0.00799422
0.00799482
0.00822346
0.00822012
0.0082182
0.00821766
0.00839444
0.00839176
0.00838977
0.00838841
0.00852361
0.0085214
0.00851935
0.00851739
0.00861976
0.00861788
0.00861578
0.0086134
0.00869028
0.00868862
0.00868648
0.00868379
0.00874121
0.00873972
0.00873754
0.00873463
0.00877746
0.00877608
0.00877388
0.00877081
0.00880289
0.00880158
0.00879937
0.00879618
0.00882048
0.00881922
0.00881699
0.00881373
0.00883248
0.00883126
0.00882902
0.00882571
0.00884057
0.00883936
0.00883712
0.00883377
0.00884595
0.00884476
0.00884251
0.00883914
0.00884948
0.0088483
0.00884605
0.00884266
0.00885178
0.00885061
0.00884835
0.00884496
0.00885326
0.00885209
0.00884983
0.00884643
0.0088542
0.00885303
0.00885077
0.00884737
0.00885479
0.00885363
0.00885137
0.00884796
0.00885516
0.008854
0.00885174
0.00884833
0.00885539
0.00885423
0.00885197
0.00884856
0.00885554
0.00885437
0.00885211
0.0088487
0.00885562
0.00885446
0.0088522
0.00884879
0.00885568
0.00885451
0.00885225
0.00884884
0.00885571
0.00885454
0.00885228
0.00884887
0.00885573
0.00885456
0.00885231
0.00884889
0.00885574
0.00885458
0.00885232
0.00884891
0.00885575
0.00885459
0.00885233
0.00884892
0.00885576
0.0088546
0.00885234
0.00884892
0.00885577
0.0088546
0.00885234
0.00884893
0.00885577
0.00885461
0.00885235
0.00884894
0.00885578
0.00885461
0.00885235
0.00884894
0.00885578
0.00885461
0.00885236
0.00884894
0.00885578
0.00885462
0.00885236
0.00884894
0.00118546
0.00231963
0.0031562
0.00369422
0.00403466
0.00424777
0.00437353
0.00443367
0.00443921
0.00439447
0.00429909
0.00414906
0.00393712
0.00365242
0.0032792
0.0027933
0.00215346
0.00128072
0.000167837
0.00249909
0.00329134
0.00393437
0.00440057
0.00472094
0.00493078
0.00505564
0.00511128
0.00510593
0.0050423
0.00491883
0.00473045
0.00446889
0.00412238
0.00367442
0.00310037
0.00235903
0.00137418
0.000173728
0.00375001
0.00424635
0.00470797
0.00507903
0.00535293
0.00553935
0.00564959
0.00569187
0.00567029
0.00558512
0.00543317
0.00520823
0.0049012
0.00449983
0.00398746
0.00333971
0.00251624
0.00144386
0.000177998
0.00480022
0.00510751
0.0054282
0.00570848
0.00592725
0.00607955
0.00616623
0.00618875
0.00614702
0.00603857
0.00585846
0.00559929
0.0052513
0.004802
0.0042349
0.00352624
0.00263682
0.00149621
0.000181119
0.0056564
0.00584989
0.00606942
0.00627347
0.00643862
0.00655335
0.00661205
0.0066112
0.00654707
0.00641472
0.00620747
0.00591688
0.0055326
0.00504206
0.00442912
0.00367073
0.00272886
0.00153548
0.000183399
0.00635007
0.00647403
0.00662268
0.00676631
0.006884
0.00696222
0.00699201
0.00696657
0.00687945
0.00672363
0.00649098
0.00617211
0.00575624
0.00523076
0.00457995
0.00378151
0.00279845
0.0015647
0.000185054
0.00691012
0.00698993
0.00708882
0.00718582
0.00726356
0.00730874
0.007311
0.0072616
0.00715223
0.0069743
0.00671851
0.00637472
0.0059318
0.00537721
0.0046956
0.00386536
0.00285039
0.0015862
0.000186242
0.00735975
0.00741035
0.00747387
0.00753524
0.00758036
0.00759696
0.00757438
0.00750288
0.00737298
0.00717496
0.00689866
0.00653338
0.00606774
0.00548928
0.00478301
0.00392789
0.0028886
0.00160178
0.000187085
0.00771769
0.00774827
0.00778629
0.00782056
0.00783956
0.00783223
0.00778813
0.00769709
0.00754893
0.00733325
0.00703926
0.00665584
0.00617147
0.00557377
0.00484808
0.00397382
0.00291626
0.00161289
0.000187674
0.00799959
0.00801606
0.00803551
0.00804922
0.00804761
0.00802074
0.00795855
0.00785081
0.007687
0.00745623
0.00714734
0.00674895
0.00624944
0.00563651
0.00489577
0.00400702
0.00293596
0.00162069
0.000188079
0.00821883
0.0082252
0.008231
0.00822919
0.00821154
0.00816903
0.00809206
0.00797047
0.00779359
0.00755029
0.00722917
0.00681868
0.00630715
0.00568239
0.00493018
0.00403063
0.00294977
0.00162607
0.000188353
0.00838699
0.00838606
0.00838184
0.00836837
0.00833839
0.00828361
0.00819484
0.00806205
0.00787456
0.00762112
0.00729018
0.00687011
0.00634923
0.00571543
0.00495464
0.00404718
0.00295929
0.00162973
0.000188537
0.0085141
0.00850789
0.00849633
0.00847417
0.00843485
0.00837061
0.0082726
0.00813099
0.00793509
0.00767362
0.00733498
0.00690748
0.00637947
0.00573887
0.00497176
0.0040586
0.00296577
0.00163218
0.000188657
0.00860876
0.00859874
0.00858182
0.00855325
0.00850695
0.00843554
0.00833047
0.00818203
0.00797962
0.00771195
0.00736739
0.00693425
0.00640088
0.00575527
0.00498359
0.00406637
0.0029701
0.0016338
0.000188736
0.00867818
0.00866542
0.00864464
0.0086114
0.00855995
0.00848321
0.00837282
0.00821923
0.00801188
0.00773951
0.0073905
0.00695315
0.00641583
0.00576659
0.00499164
0.00407158
0.00297297
0.00163485
0.000188786
0.00872834
0.00871363
0.00869008
0.00865347
0.00859829
0.00851765
0.00840334
0.00824592
0.0080349
0.00775905
0.00740674
0.00696631
0.00642614
0.00577431
0.00499706
0.00407504
0.00297485
0.00163552
0.000188818
0.00876403
0.00874795
0.00872245
0.00868346
0.0086256
0.00854215
0.008425
0.0082648
0.0080511
0.0077727
0.00741801
0.00697535
0.00643315
0.0057795
0.00500066
0.00407731
0.00297606
0.00163595
0.000188838
0.00878907
0.00877204
0.00874517
0.00870451
0.00864476
0.00855931
0.00844014
0.00827795
0.00806233
0.00778212
0.00742572
0.00698149
0.00643787
0.00578295
0.00500302
0.00407878
0.00297683
0.00163622
0.00018885
0.00880639
0.0087887
0.0087609
0.00871907
0.00865802
0.00857118
0.00845059
0.00828699
0.00807002
0.00778853
0.00743094
0.00698561
0.006441
0.00578522
0.00500456
0.00407973
0.00297732
0.00163639
0.000188858
0.00881821
0.00880007
0.00877163
0.00872901
0.00866707
0.00857927
0.0084577
0.00829313
0.00807522
0.00779284
0.00743442
0.00698835
0.00644306
0.00578669
0.00500555
0.00408033
0.00297763
0.0016365
0.000188863
0.00882616
0.00880773
0.00877886
0.00873571
0.00867316
0.00858471
0.00846247
0.00829724
0.00807869
0.0077957
0.00743672
0.00699014
0.0064444
0.00578765
0.00500618
0.00408071
0.00297782
0.00163656
0.000188865
0.00883146
0.00881283
0.00878368
0.00874017
0.00867721
0.00858833
0.00846564
0.00829996
0.00808098
0.00779758
0.00743823
0.0069913
0.00644526
0.00578825
0.00500658
0.00408094
0.00297793
0.0016366
0.000188867
0.00883494
0.00881618
0.00878684
0.0087431
0.00867988
0.0085907
0.00846772
0.00830174
0.00808248
0.00779881
0.0074392
0.00699205
0.00644582
0.00578864
0.00500683
0.00408109
0.00297801
0.00163662
0.000188868
0.0088372
0.00881836
0.0087889
0.00874501
0.00868161
0.00859225
0.00846907
0.0083029
0.00808344
0.00779959
0.00743982
0.00699252
0.00644616
0.00578888
0.00500698
0.00408118
0.00297805
0.00163664
0.000188869
0.00883866
0.00881976
0.00879022
0.00874624
0.00868272
0.00859324
0.00846993
0.00830364
0.00808406
0.0078001
0.00744022
0.00699282
0.00644638
0.00578903
0.00500708
0.00408123
0.00297808
0.00163665
0.000188869
0.00883958
0.00882065
0.00879106
0.00874702
0.00868343
0.00859387
0.00847048
0.00830411
0.00808445
0.00780041
0.00744047
0.00699301
0.00644652
0.00578912
0.00500714
0.00408127
0.00297809
0.00163665
0.000188869
0.00884017
0.00882121
0.0087916
0.00874751
0.00868388
0.00859427
0.00847083
0.0083044
0.0080847
0.00780061
0.00744062
0.00699313
0.0064466
0.00578918
0.00500717
0.00408129
0.0029781
0.00163665
0.00018887
0.00884053
0.00882157
0.00879193
0.00874782
0.00868416
0.00859452
0.00847105
0.00830459
0.00808485
0.00780073
0.00744072
0.0069932
0.00644665
0.00578921
0.00500719
0.0040813
0.00297811
0.00163666
0.00018887
0.00884076
0.00882178
0.00879213
0.00874801
0.00868433
0.00859467
0.00847118
0.0083047
0.00808494
0.00780081
0.00744077
0.00699324
0.00644668
0.00578923
0.00500721
0.0040813
0.00297811
0.00163666
0.00018887
0.0088409
0.00882192
0.00879226
0.00874812
0.00868444
0.00859476
0.00847126
0.00830477
0.008085
0.00780085
0.00744081
0.00699327
0.0064467
0.00578925
0.00500721
0.00408131
0.00297811
0.00163666
0.00018887
0.00884098
0.008822
0.00879234
0.0087482
0.0086845
0.00859482
0.00847131
0.00830481
0.00808504
0.00780088
0.00744083
0.00699329
0.00644671
0.00578925
0.00500722
0.00408131
0.00297811
0.00163666
0.00018887
0.00884103
0.00882205
0.00879239
0.00874824
0.00868454
0.00859486
0.00847134
0.00830484
0.00808506
0.0078009
0.00744085
0.0069933
0.00644672
0.00578926
0.00500722
0.00408131
0.00297811
0.00163666
0.00018887
0.00884107
0.00882208
0.00879241
0.00874827
0.00868457
0.00859488
0.00847136
0.00830486
0.00808507
0.00780091
0.00744085
0.0069933
0.00644672
0.00578926
0.00500722
0.00408131
0.00297812
0.00163666
0.00018887
0.00884109
0.0088221
0.00879243
0.00874828
0.00868458
0.00859489
0.00847137
0.00830486
0.00808508
0.00780092
0.00744086
0.00699331
0.00644673
0.00578926
0.00500722
0.00408131
0.00297812
0.00163666
0.00018887
0.0088411
0.00882211
0.00879245
0.0087483
0.00868459
0.0085949
0.00847138
0.00830487
0.00808508
0.00780092
0.00744086
0.00699331
0.00644673
0.00578926
0.00500722
0.00408131
0.00297812
0.00163666
0.00018887
0.00884111
0.00882212
0.00879245
0.0087483
0.0086846
0.00859491
0.00847139
0.00830487
0.00808509
0.00780092
0.00744086
0.00699331
0.00644673
0.00578926
0.00500722
0.00408131
0.00297812
0.00163666
0.00018887
0.00884112
0.00882213
0.00879246
0.00874831
0.00868461
0.00859491
0.00847139
0.00830488
0.00808509
0.00780092
0.00744086
0.00699331
0.00644673
0.00578926
0.00500722
0.00408131
0.00297812
0.00163666
0.00018887
0.00884112
0.00882214
0.00879247
0.00874831
0.00868461
0.00859492
0.00847139
0.00830488
0.00808509
0.00780093
0.00744086
0.00699331
0.00644673
0.00578926
0.00500722
0.00408131
0.00297812
0.00163666
0.00018887
0.00884113
0.00882214
0.00879247
0.00874832
0.00868461
0.00859492
0.00847139
0.00830488
0.00808509
0.00780093
0.00744087
0.00699331
0.00644673
0.00578926
0.00500722
0.00408132
0.00297812
0.00163666
0.00018887
0.00884113
0.00882215
0.00879247
0.00874832
0.00868461
0.00859492
0.0084714
0.00830488
0.00808509
0.00780093
0.00744087
0.00699331
0.00644673
0.00578926
0.00500722
0.00408132
0.00297812
0.00163666
0.00018887
0.00884114
0.00882215
0.00879248
0.00874832
0.00868462
0.00859492
0.0084714
0.00830488
0.00808509
0.00780093
0.00744087
0.00699331
0.00644673
0.00578926
0.00500722
0.00408132
0.00297812
0.00163666
0.00018887
0.00884114
0.00882215
0.00879248
0.00874832
0.00868462
0.00859492
0.0084714
0.00830488
0.00808509
0.00780093
0.00744087
0.00699331
0.00644673
0.00578926
0.00500723
0.00408132
0.00297812
0.00163666
0.00018887
)
;

boundaryField
{
    leftWall
    {
        type            nutkWallFunction;
        blending        stepwise;
        value           nonuniform List<scalar> 
50
(
9.58864e-07
5.42239e-06
7.84874e-06
9.51955e-06
1.07495e-05
1.16999e-05
1.24584e-05
1.3077e-05
1.38732e-05
1.46202e-05
1.51441e-05
1.55142e-05
1.57751e-05
1.59578e-05
1.60842e-05
1.61705e-05
1.62286e-05
1.62671e-05
1.62923e-05
1.63085e-05
1.63188e-05
1.63253e-05
1.63293e-05
1.63317e-05
1.63332e-05
1.63341e-05
1.63347e-05
1.6335e-05
1.63352e-05
1.63353e-05
1.63354e-05
1.63354e-05
1.63354e-05
1.63354e-05
1.63354e-05
1.63354e-05
1.63354e-05
1.63355e-05
1.63355e-05
1.63355e-05
1.63355e-05
1.63355e-05
1.63355e-05
1.63355e-05
1.63355e-05
1.63355e-05
1.63355e-05
1.63355e-05
1.63355e-05
1.63355e-05
)
;
    }
    rightWall
    {
        type            nutkWallFunction;
        blending        stepwise;
        value           nonuniform List<scalar> 
50
(
2.93703e-06
7.83714e-06
1.04238e-05
1.22209e-05
1.3551e-05
1.45823e-05
1.5407e-05
1.60805e-05
1.6948e-05
1.7762e-05
1.83324e-05
1.87351e-05
1.90188e-05
1.92172e-05
1.93544e-05
1.94481e-05
1.95113e-05
1.95532e-05
1.95806e-05
1.95984e-05
1.96097e-05
1.96169e-05
1.96213e-05
1.96241e-05
1.96258e-05
1.96268e-05
1.96274e-05
1.96278e-05
1.9628e-05
1.96281e-05
1.96282e-05
1.96283e-05
1.96283e-05
1.96283e-05
1.96283e-05
1.96283e-05
1.96283e-05
1.96283e-05
1.96283e-05
1.96283e-05
1.96283e-05
1.96283e-05
1.96283e-05
1.96283e-05
1.96283e-05
1.96283e-05
1.96283e-05
1.96283e-05
1.96283e-05
1.96283e-05
)
;
    }
    lowerWall
    {
        type            nutkWallFunction;
        blending        stepwise;
        value           nonuniform List<scalar> 
62
(
0
0
0
0
0
0
6.67027e-08
2.6404e-07
4.03408e-07
4.99472e-07
5.62195e-07
5.97976e-07
6.10119e-07
5.98855e-07
5.60978e-07
4.88943e-07
3.69017e-07
1.77528e-07
0
0
0
0
0
0
5.81693e-06
8.70046e-06
1.07775e-05
1.251e-05
1.42482e-05
1.6621e-05
2.13251e-05
2.33128e-05
2.0701e-05
2.06794e-05
2.32098e-05
0
8.20761e-06
1.13237e-05
1.35861e-05
1.54957e-05
1.74535e-05
2.01619e-05
2.5304e-05
0
0
0
0
2.04249e-08
2.82579e-07
4.34114e-07
5.13845e-07
5.41652e-07
5.26225e-07
4.68435e-07
3.62576e-07
1.96194e-07
0
0
0
0
0
0
)
;
    }
    atmosphere
    {
        type            calculated;
        value           nonuniform List<scalar> 
46
(
0.000167275
0.00148501
0.00273879
0.00378223
0.0046681
0.00542756
0.00607855
0.00663303
0.00710046
0.00748948
0.00780857
0.00806625
0.00827096
0.00843088
0.00855369
0.00864638
0.00871511
0.00876512
0.00880072
0.00882536
0.00884165
0.00885145
0.00885595
0.00885578
0.00885462
0.00885236
0.00884894
0.00884114
0.00882215
0.00879248
0.00874832
0.00868462
0.00859492
0.0084714
0.00830488
0.00808509
0.00780093
0.00744087
0.00699331
0.00644673
0.00578926
0.00500723
0.00408132
0.00297812
0.00163666
0.00018887
)
;
    }
    defaultFaces
    {
        type            empty;
    }
}


// ************************************************************************* //
