/*--------------------------------*- C++ -*----------------------------------*\
| =========                 |                                                 |
| \\      /  F ield         | OpenFOAM: The Open Source CFD Toolbox           |
|  \\    /   O peration     | Version:  2406                                  |
|   \\  /    A nd           | Website:  www.openfoam.com                      |
|    \\/     M anipulation  |                                                 |
\*---------------------------------------------------------------------------*/
FoamFile
{
    version     2.0;
    format      ascii;
    arch        "LSB;label=32;scalar=64";
    class       volScalarField;
    location    "0.45";
    object      nut;
}
// * * * * * * * * * * * * * * * * * * * * * * * * * * * * * * * * * * * * * //

dimensions      [0 2 -1 0 0 0 0];

internalField   nonuniform List<scalar> 
2268
(
0.000289337
0.000213038
0.000213038
0.000213038
0.000213038
0.000213038
0.000213038
0.000213038
0.000213038
0.000213038
0.000213038
0.000213038
0.000213038
5.85538e-05
4.53805e-05
5.1593e-05
5.49788e-05
5.66047e-05
5.68336e-05
5.55796e-05
5.22942e-05
4.5399e-05
2.81083e-05
0.000450785
0.000254306
0.000232321
0.000225511
0.000222385
0.000220634
0.000219545
0.000218827
0.000218345
0.000218025
0.00021783
0.000217737
0.000217737
7.05504e-05
0.000295465
0.000411389
0.000462001
0.000485727
0.000490262
0.000475012
0.000432477
0.000339226
9.29831e-05
0.000450785
0.000288167
0.000251962
0.000238672
0.000232268
0.000228639
0.000226375
0.000224885
0.000223885
0.000223224
0.000222819
0.000222627
0.000222627
9.56774e-05
0.000449562
0.000688134
0.00080321
0.000858643
0.000870924
0.000838993
0.000747156
0.000549309
0.000108712
0.000450785
0.000314823
0.000270613
0.00025196
0.00024245
0.000236938
0.000233468
0.000231177
0.000229635
0.000228616
0.000227993
0.000227696
0.000227696
0.000118439
0.000552297
0.000882081
0.00105567
0.00114257
0.00116419
0.00111869
0.000983475
0.000696254
0.000120191
0.000450785
0.000335499
0.000287639
0.000264953
0.00025271
0.000245414
0.000240757
0.00023766
0.00023557
0.000234185
0.000233336
0.000232932
0.000232932
0.000138745
0.000630896
0.00103125
0.00125686
0.00137446
0.00140732
0.00135243
0.00118077
0.000815825
0.000130059
0.000450785
0.000351572
0.000302834
0.000277373
0.000262866
0.000253958
0.000248177
0.000244294
0.000241659
0.000239908
0.000238833
0.000238321
0.000238321
0.00015724
0.000696587
0.00115629
0.00142984
0.00157825
0.00162492
0.00156548
0.00136441
0.000928173
0.000140475
0.000450785
0.000364209
0.000316232
0.000289058
0.00027278
0.000262475
0.000255663
0.000251036
0.000247874
0.000245763
0.000244464
0.000243845
0.000243845
0.000174476
0.000755226
0.00126942
0.00158946
0.00176985
0.00183359
0.00177541
0.00155366
0.0010508
0.000155415
0.000450785
0.00037429
0.000327979
0.000299934
0.000282353
0.000270887
0.000263158
0.000257844
0.000254183
0.000251727
0.000250211
0.000249487
0.000249487
0.000190889
0.00081071
0.00137917
0.0017466
0.00196115
0.00204589
0.00199599
0.0017674
0.00121467
0.000185336
2.92635e-05
4.7965e-05
5.56389e-05
5.97757e-05
6.22021e-05
6.36706e-05
6.45447e-05
6.50147e-05
6.51815e-05
6.50901e-05
6.47441e-05
6.41114e-05
6.31259e-05
6.16824e-05
5.96184e-05
5.66629e-05
5.22827e-05
4.51148e-05
4.64896e-05
0.000108208
0.000375539
0.000480112
0.00053506
0.0005672
0.000586794
0.00059856
0.000604902
0.000607079
0.000605648
0.000600635
0.000591619
0.000577759
0.000557759
0.00052966
0.000490179
0.000432473
0.000336575
0.000105355
0.0001266
0.000624814
0.00085382
0.000977224
0.00105035
0.0010954
0.00112263
0.00113731
0.00114223
0.0011386
0.0011265
0.00110497
0.00107224
0.00102561
0.000961243
0.0008728
0.000746968
0.000544982
0.00012032
0.000140378
0.000805647
0.00114666
0.0013344
0.00144667
0.00151624
0.00155844
0.00158112
0.00158847
0.00158231
0.00156273
0.0015283
0.00147636
0.00140306
0.00130307
0.00116781
0.000979332
0.0006866
0.000130916
0.000152472
0.000955963
0.00139829
0.00164414
0.00179169
0.00188349
0.00193925
0.00196907
0.00197828
0.00196922
0.00194192
0.0018945
0.00182351
0.00172415
0.0015899
0.00141052
0.00116472
0.000793548
0.000138978
0.000165397
0.00109785
0.00163552
0.00193295
0.00211136
0.00222266
0.00229033
0.00232624
0.00233663
0.00232417
0.00228878
0.00222815
0.00213812
0.00201306
0.00184546
0.00162375
0.00132403
0.000881726
0.000145499
0.000183635
0.00125043
0.0018787
0.00221953
0.00242374
0.00255157
0.00262934
0.00267019
0.00268097
0.00266451
0.00262056
0.00254634
0.00243707
0.00228636
0.00208585
0.00182266
0.00147045
0.000960001
0.000151031
0.000217871
0.00144685
0.00214715
0.00251847
0.00274256
0.00288374
0.00296969
0.00301425
0.00302455
0.00300342
0.00295033
0.00286204
0.0027332
0.00255669
0.00232328
0.00201863
0.00161362
0.00103427
0.000155893
0.000450785
0.000387195
0.000344345
0.000315956
0.00029696
0.000284002
0.000275004
0.000268693
0.00026429
0.000261312
0.000259464
0.000258579
0.000258579
0.000215925
0.000897569
0.00155612
0.00200289
0.00227669
0.00240191
0.00237787
0.0021752
0.00172695
0.000975831
0.000450785
0.000399213
0.000361271
0.000333994
0.000314484
0.000300479
0.000290379
0.000283101
0.000277923
0.000274374
0.000272154
0.000271085
0.000271085
0.000244961
0.000984285
0.00173186
0.00226708
0.00261708
0.00280757
0.00284701
0.00272959
0.00244227
0.00199402
0.000450785
0.00040801
0.000374622
0.000349177
0.000330022
0.000315684
0.000304997
0.0002971
0.000291377
0.000287402
0.000284893
0.000283679
0.000283679
0.000270354
0.00104983
0.0018631
0.00247115
0.0028919
0.00315139
0.00326507
0.00324254
0.0030966
0.0028614
0.000450785
0.000414732
0.000385376
0.00036202
0.000343728
0.000329559
0.000318699
0.000310492
0.000304442
0.000300188
0.000297479
0.000296163
0.000296163
0.000293074
0.00110196
0.00196633
0.00263521
0.00311966
0.00344529
0.0036311
0.00369359
0.00365311
0.00354162
0.000450785
0.000420036
0.000394196
0.000372954
0.000355793
0.000342127
0.000331402
0.000323139
0.000316954
0.000312554
0.000309731
0.000308352
0.000308352
0.000313608
0.00114432
0.00204915
0.00276872
0.00330867
0.00369354
0.00394328
0.00407607
0.0041121
0.0040759
0.000450785
0.000424322
0.000401533
0.000382318
0.000366407
0.000353447
0.000343073
0.000334947
0.000328783
0.000324353
0.000321491
0.000320087
0.000320087
0.000332202
0.00117897
0.00211574
0.00287697
0.00346376
0.00389914
0.00420258
0.00439147
0.00448357
0.00449726
0.000450785
0.000427844
0.000407702
0.000390372
0.000375736
0.000363592
0.00035371
0.00034586
0.000339836
0.000335468
0.000332628
0.000331229
0.00033123
0.000348996
0.00120728
0.00216888
0.00296368
0.0035888
0.00406564
0.00441245
0.00464506
0.00477855
0.00482706
0.000450785
0.000430772
0.000412924
0.000397317
0.000383922
0.000372639
0.00036333
0.000355847
0.000350048
0.000345811
0.00034304
0.000341672
0.000341672
0.000364093
0.00123033
0.00221084
0.00303208
0.0036877
0.00419744
0.0045782
0.0048441
0.00500796
0.00508105
0.000450785
0.000433225
0.000417362
0.000403307
0.000391084
0.00038066
0.000371961
0.000364898
0.000359379
0.000355319
0.000352652
0.000351331
0.000351331
0.000377593
0.00124909
0.00224372
0.00308536
0.00376464
0.00429976
0.00470631
0.00499693
0.00518264
0.00527287
0.000450785
0.000435287
0.000421138
0.000408464
0.000397324
0.000387725
0.000379638
0.000373017
0.000367807
0.000363953
0.00036141
0.000360148
0.000360148
0.000389609
0.00126445
0.00226952
0.00312672
0.00382403
0.00437824
0.00480386
0.00511231
0.00531333
0.00541514
0.000450785
0.00043702
0.000424343
0.000412886
0.000402726
0.000393897
0.0003864
0.000380219
0.000375326
0.00037169
0.000369283
0.000368086
0.000368086
0.000400276
0.00127732
0.00229025
0.00315935
0.00387029
0.00443862
0.00487794
0.00519882
0.00541014
0.00551938
0.000450785
0.000438472
0.00042705
0.000416652
0.000407363
0.000399233
0.000392287
0.000386526
0.000381943
0.000378524
0.000376255
0.000375123
0.000375124
0.000409768
0.00128864
0.00230793
0.0031865
0.00390785
0.00448649
0.00493533
0.00526442
0.00548217
0.00559572
0.000450785
0.000439679
0.000429316
0.000419824
0.000411294
0.000403787
0.000397337
0.000391964
0.000387671
0.000384459
0.000382321
0.000381254
0.000381254
0.000418334
0.00129948
0.0023248
0.00321155
0.00394119
0.00452728
0.00498233
0.00531623
0.00553729
0.00565262
0.000450785
0.000440669
0.000431185
0.000422455
0.000414572
0.000407602
0.000401589
0.00039656
0.000392529
0.000389504
0.000387488
0.000386479
0.00038648
0.000426369
0.00131131
0.00234362
0.00323844
0.00397509
0.00456638
0.00502481
0.00536052
0.00558212
0.00569699
0.000450785
0.000441464
0.000432693
0.000424587
0.000417241
0.00041072
0.000405076
0.000400341
0.000396536
0.000393674
0.000391764
0.000390808
0.000390808
0.00043459
0.00132639
0.00236828
0.00327225
0.00401516
0.00460948
0.00506836
0.00540279
0.00562212
0.00573425
0.000450785
0.000442082
0.000433868
0.000426255
0.000419334
0.000413174
0.000407828
0.000403332
0.000399712
0.000396986
0.000395163
0.000394251
0.000394251
0.000444437
0.00134877
0.00240526
0.00332043
0.00406854
0.0046629
0.00511849
0.00544794
0.00566178
0.00576863
0.000450785
0.000442535
0.000434731
0.000427483
0.000420879
0.00041499
0.000409869
0.000405555
0.000402077
0.000399454
0.000397699
0.00039682
0.00039682
0.000459239
0.00138722
0.00246689
0.00339492
0.00414485
0.00473385
0.00518059
0.0055002
0.00570464
0.00580326
0.000450785
0.000442832
0.000435298
0.000428291
0.000421899
0.00041619
0.000411219
0.000407028
0.000403645
0.000401092
0.000399383
0.000398526
0.000398526
0.000488528
0.00146518
0.00257915
0.00351522
0.0042566
0.00482999
0.00525948
0.00556285
0.00575321
0.00584026
0.000450785
0.000442979
0.000435579
0.000428692
0.000422405
0.000416786
0.000411891
0.000407761
0.000404426
0.000401908
0.000400222
0.000399377
0.000399377
0.000574008
0.00165905
0.00279662
0.00370962
0.00441705
0.0049575
0.00535822
0.00563763
0.00580873
0.00588075
0.000450785
0.000442979
0.00043558
0.000428692
0.000422405
0.000416786
0.000411891
0.000407761
0.000404426
0.000401909
0.000400223
0.000399377
0.000448854
0.00118884
0.00223082
0.00320129
0.00400013
0.0046314
0.00511702
0.00547638
0.0057241
0.005871
0.0059248
0.000196564
0.000283047
0.000338079
0.00037396
0.000397929
0.000414218
0.000425722
0.000434866
0.000444334
0.000458395
0.000487341
0.000573595
0.00118869
0.00203238
0.0029003
0.00368493
0.00434712
0.0048828
0.00530003
0.00560912
0.00581941
0.00593842
0.00597162
0.000130282
0.000586907
0.000812018
0.00095631
0.00105936
0.00113688
0.00119783
0.00124906
0.00129789
0.00135562
0.00144768
0.00165171
0.002227
0.00289868
0.00356778
0.00418095
0.00471128
0.00514908
0.00549383
0.00574901
0.00591916
0.00600843
0.00601984
0.000135027
0.000870147
0.00130607
0.0015872
0.00179016
0.00194607
0.00207128
0.00217743
0.00227624
0.00238405
0.00253002
0.00277079
0.00318869
0.00368028
0.00418053
0.00464958
0.00506381
0.00541097
0.00568609
0.00588831
0.0060186
0.00607823
0.0060679
0.000143062
0.00103447
0.00164538
0.00205815
0.00236269
0.00260011
0.00279256
0.00295541
0.003103
0.00325262
0.00342822
0.00366159
0.00397759
0.00434064
0.00471373
0.00506869
0.00538629
0.00565461
0.0058671
0.00602061
0.00611368
0.00614539
0.00611445
0.000148857
0.00113789
0.00187555
0.00239649
0.00279091
0.00310339
0.00335872
0.00357389
0.00376386
0.00394457
0.00413404
0.00435046
0.00460335
0.00488004
0.0051612
0.00542889
0.00566907
0.00587182
0.00603071
0.0061416
0.00620164
0.00620827
0.00615869
0.000152966
0.00120845
0.00203719
0.00264205
0.00311051
0.00348727
0.00379739
0.00405781
0.00428281
0.00448636
0.00468241
0.00488303
0.00509423
0.00531208
0.00552732
0.00572952
0.00590936
0.00605945
0.00617422
0.00624938
0.00628129
0.00626633
0.00620053
0.000155899
0.00125845
0.00215331
0.00282192
0.0033491
0.00377849
0.00413423
0.00443226
0.00468557
0.00490634
0.00510608
0.00529436
0.00547681
0.00565377
0.00582175
0.00597547
0.00610937
0.00621838
0.00629802
0.00634427
0.00635309
0.00632017
0.00624075
0.000157999
0.00129442
0.00223763
0.0029543
0.00352711
0.00399843
0.00439106
0.00471958
0.00499558
0.00522978
0.00543227
0.0056117
0.00577416
0.00592248
0.0060567
0.00617502
0.00627466
0.00635244
0.00640495
0.00642849
0.00641894
0.00637157
0.00628104
0.000159512
0.00132063
0.00229956
0.00305254
0.00366065
0.00416501
0.00458708
0.00494006
0.00523427
0.00547931
0.00568442
0.00585799
0.00600672
0.00613511
0.00624548
0.00633836
0.00641298
0.00646758
0.00649965
0.00650586
0.0064821
0.00642338
0.00632407
0.000160634
0.00134033
0.00234644
0.00312753
0.00376342
0.0042941
0.0047398
0.00511252
0.00542153
0.00567558
0.00588347
0.00605355
0.00619314
0.00630789
0.00640166
0.00647659
0.00653329
0.00657108
0.00658812
0.00658142
0.00654694
0.00647958
0.00637351
0.000161534
0.00135634
0.0023847
0.00318898
0.00384789
0.00440038
0.00486563
0.00525468
0.00557597
0.00583774
0.00604855
0.0062169
0.00635061
0.00645621
0.00653863
0.0066011
0.00664521
0.00667105
0.00667728
0.00666122
0.00661887
0.00654513
0.00643409
0.000162381
0.00137146
0.00242066
0.00324642
0.00392625
0.00449816
0.00498047
0.00538349
0.00571521
0.00598363
0.0061973
0.00636499
0.00649499
0.0065945
0.00666921
0.00672312
0.00675851
0.00677602
0.00677468
0.00675202
0.00670414
0.00662598
0.00651159
0.00016337
0.00138885
0.00246133
0.00331014
0.00401139
0.00460217
0.00510022
0.00551556
0.00585609
0.00612995
0.00634597
0.0065133
0.00664073
0.00673599
0.00680535
0.00685335
0.00688274
0.00689454
0.00688806
0.00686099
0.00680956
0.00672874
0.00661265
0.000164761
0.00141257
0.00251532
0.00339233
0.0041179
0.00472842
0.00524149
0.00566746
0.0060148
0.00629227
0.00650932
0.00667568
0.00680065
0.00689243
0.00695771
0.0070014
0.00702658
0.00703454
0.00702476
0.00699512
0.00694192
0.00686023
0.00674429
0.000166935
0.00144815
0.00259386
0.00350816
0.00426311
0.00489481
0.00542175
0.00585568
0.00620659
0.00648456
0.00670011
0.00686372
0.00698525
0.00707329
0.00713482
0.00717499
0.00719705
0.00720245
0.00719084
0.00716022
0.00710703
0.0070265
0.006913
0.000170464
0.00150299
0.00271151
0.00367662
0.00446749
0.00512117
0.00565892
0.00609581
0.00644475
0.00671812
0.00692793
0.00708564
0.0072016
0.00728469
0.007342
0.00737872
0.0073982
0.00740193
0.00738969
0.00735962
0.00730836
0.00723135
0.00712322
0.000176174
0.00158629
0.00288623
0.00392055
0.0047543
0.00542809
0.00596968
0.00640057
0.00673867
0.00699967
0.00719755
0.00734472
0.0074519
0.00752796
0.00757989
0.00761274
0.00762975
0.0076324
0.00762057
0.00759257
0.00754533
0.00747462
0.00737544
0.000185171
0.0017082
0.00313962
0.00426714
0.00514882
0.00583487
0.00636665
0.00677694
0.00709114
0.00732917
0.00750702
0.00763777
0.00773209
0.00779847
0.00784342
0.00787161
0.00788599
0.00788795
0.00787742
0.00785296
0.00781189
0.00775048
0.00766429
0.00019895
0.00188118
0.00350282
0.00475278
0.00567905
0.00635712
0.00685492
0.00722288
0.00749586
0.007698
0.00784656
0.00795447
0.0080316
0.00808548
0.00812174
0.00814435
0.00815581
0.0081573
0.0081488
0.00812915
0.00809621
0.00804693
0.00797763
0.000220579
0.00213235
0.0040425
0.00543946
0.00637912
0.00700376
0.00742801
0.00772446
0.00793614
0.00808894
0.00819936
0.00827863
0.00833484
0.00837387
0.00840004
0.0084163
0.00842454
0.00842565
0.00841964
0.0084057
0.00838228
0.00834718
0.00829771
0.000264367
0.00255716
0.00494172
0.00644706
0.00728821
0.00776855
0.0080622
0.00825419
0.00838589
0.0084787
0.0085448
0.00859183
0.00862498
0.00864793
0.00866327
0.00867281
0.00867768
0.0086784
0.00867501
0.00866706
0.00865363
0.00863345
0.00860491
0.000417048
0.00368631
0.00679727
0.00798063
0.00841406
0.00860583
0.00870865
0.00877185
0.00881399
0.0088433
0.00886404
0.00887875
0.00888911
0.00889627
0.00890107
0.00890407
0.00890561
0.00890588
0.00890488
0.00890249
0.00889842
0.00889227
0.00888344
0.000200291
0.000185031
0.00018597
0.000203548
0.00159883
0.00153128
0.00154357
0.00163417
0.00268662
0.00263256
0.00265666
0.00275431
0.0034462
0.00341579
0.0034484
0.00353752
0.00401975
0.00400495
0.00404422
0.00413044
0.00446573
0.00446174
0.00450644
0.00459258
0.00481251
0.00481635
0.00486545
0.00495256
0.00507832
0.00508774
0.00514034
0.00522884
0.00527814
0.0052914
0.00534669
0.00543668
0.00542556
0.00544133
0.00549861
0.00558998
0.00553288
0.00555017
0.0056088
0.00570128
0.00561075
0.00562878
0.00568818
0.0057814
0.00566795
0.00568606
0.00574568
0.00583919
0.00571144
0.00572901
0.00578828
0.0058816
0.00574662
0.005763
0.00582133
0.00591392
0.00577756
0.00579199
0.00584873
0.00594005
0.0058072
0.00581885
0.00587331
0.00596276
0.00583752
0.0058455
0.00589695
0.00598394
0.0058696
0.00587303
0.00592077
0.00600474
0.00590372
0.00590182
0.00594525
0.00602573
0.00593949
0.00593169
0.00597037
0.00604703
0.00597608
0.00596211
0.00599583
0.00606851
0.00601253
0.00599241
0.0060212
0.00608993
0.00604805
0.00602208
0.00604618
0.00611115
0.00608223
0.00605092
0.00607075
0.00613229
0.00611526
0.00607926
0.00609534
0.00615385
0.00614802
0.00610804
0.00612091
0.00617685
0.00618218
0.00613894
0.00614916
0.00620297
0.00622034
0.00617448
0.00618258
0.00623467
0.00626605
0.00621817
0.0062246
0.00627531
0.00632397
0.00627461
0.00627975
0.00632935
0.00639984
0.00634954
0.00635371
0.00640233
0.00650042
0.00644973
0.00645318
0.00650082
0.00663301
0.00658261
0.00658552
0.00663199
0.00680458
0.00675534
0.00675786
0.00680268
0.00702022
0.0069733
0.00697551
0.0070179
0.0072811
0.00723799
0.00723993
0.00727873
0.00758236
0.00754477
0.00754645
0.00758025
0.00791184
0.00788153
0.0078829
0.00791022
0.00825095
0.00822928
0.00823029
0.00824992
0.00857823
0.00856579
0.0085664
0.00857783
0.00887532
0.00887165
0.0088719
0.00887554
0.00108592
0.00201854
0.00264357
0.00303051
0.00327643
0.00343411
0.00353023
0.00357878
0.00358688
0.00355707
0.00348827
0.00337649
0.00321547
0.00299699
0.00271014
0.00233771
0.00184518
0.00115006
0.000162637
0.00214981
0.00280355
0.00330348
0.00365613
0.00389816
0.0040591
0.00415763
0.00420468
0.00420576
0.00416218
0.00407179
0.00392959
0.00372836
0.0034589
0.00310901
0.0026592
0.00207103
0.00125817
0.000169067
0.003062
0.00352238
0.00391288
0.00421445
0.00443429
0.00458494
0.00467671
0.00471631
0.00470674
0.00464762
0.00453544
0.00436417
0.00412587
0.00381085
0.00340644
0.0028925
0.00222948
0.00133132
0.000173482
0.00378423
0.00414065
0.00445273
0.00470527
0.004896
0.00502852
0.0051072
0.00513491
0.00511209
0.00503645
0.00490309
0.004705
0.00443366
0.00407922
0.00362914
0.00306347
0.00234289
0.00138252
0.000176552
0.00435583
0.00465639
0.00491502
0.00512634
0.00528749
0.00539869
0.00546088
0.00547414
0.00543669
0.00534449
0.00519133
0.00496931
0.00466948
0.00428203
0.00379482
0.00318849
0.00242436
0.00141872
0.000178693
0.004809
0.00507766
0.00529984
0.00547834
0.00561264
0.00570246
0.00574722
0.00574521
0.00569299
0.00558506
0.00541407
0.00517136
0.0048477
0.00443339
0.00391678
0.00327918
0.00248261
0.00144427
0.00018018
0.00516515
0.00541475
0.00561187
0.00576505
0.00587654
0.00594685
0.00597497
0.00595826
0.00589211
0.00576992
0.00558342
0.00532338
0.00498032
0.00454471
0.00400535
0.00334418
0.00252382
0.00146212
0.0001812
0.00544038
0.00567857
0.00585854
0.00599268
0.00608572
0.00613931
0.00615268
0.00612274
0.00604417
0.00590959
0.00571005
0.00543587
0.00507742
0.0046253
0.00406871
0.00339011
0.00255257
0.00147443
0.000181892
0.00564878
0.0058804
0.00604883
0.00616903
0.00624771
0.0062877
0.00628867
0.00624745
0.00615832
0.00601338
0.0058032
0.00551777
0.00514737
0.00468273
0.00411335
0.00342207
0.00257232
0.00148278
0.000182352
0.00580341
0.00603148
0.00619229
0.00630254
0.00637042
0.00639978
0.00639078
0.00634036
0.00624259
0.00608927
0.00587064
0.00557647
0.00519699
0.00472303
0.00414431
0.00344397
0.00258568
0.00148835
0.000182655
0.00591618
0.00614242
0.00629826
0.00640155
0.00646151
0.00648282
0.0064661
0.00640843
0.00630384
0.00614392
0.00591874
0.00561794
0.00523169
0.0047509
0.00416547
0.00345874
0.00259458
0.001492
0.000182851
0.00599745
0.00622268
0.00637524
0.00647367
0.00652794
0.00654329
0.00652074
0.00645754
0.0063477
0.00618273
0.00595259
0.00564683
0.00525561
0.00476991
0.00417974
0.00346858
0.00260041
0.00149437
0.000182975
0.00605581
0.00628024
0.00643048
0.00652548
0.00657566
0.00658667
0.00655981
0.00649246
0.00637869
0.00620994
0.00597611
0.00566671
0.00527191
0.00478271
0.00418923
0.00347504
0.00260419
0.00149588
0.000183053
0.00609809
0.00632153
0.00646991
0.00656236
0.00660956
0.00661741
0.0065874
0.00651701
0.00640032
0.00622878
0.00599226
0.00568024
0.00528288
0.00479124
0.00419548
0.00347923
0.00260661
0.00149683
0.000183102
0.0061295
0.00635153
0.00649816
0.00658855
0.0066335
0.00663902
0.00660669
0.00653407
0.00641526
0.00624171
0.00600324
0.00568934
0.00529019
0.00479686
0.00419954
0.00348191
0.00260813
0.00149742
0.000183132
0.0061539
0.00637394
0.00651872
0.0066073
0.00665043
0.00665416
0.00662012
0.00654587
0.00642551
0.00625049
0.00601064
0.00569542
0.00529502
0.00480052
0.00420216
0.00348362
0.00260909
0.00149779
0.00018315
0.00617405
0.00639147
0.00653417
0.00662097
0.00666253
0.00666483
0.00662947
0.006554
0.00643252
0.00625645
0.0060156
0.00569946
0.00529819
0.0048029
0.00420383
0.0034847
0.00260968
0.00149801
0.000183161
0.00619185
0.006406
0.00654631
0.00663129
0.00667139
0.00667247
0.00663605
0.00655964
0.00643732
0.00626049
0.00601894
0.00570214
0.00530027
0.00480444
0.00420491
0.00348538
0.00261005
0.00149814
0.000183168
0.00620851
0.00641878
0.0065564
0.00663947
0.00667814
0.00667811
0.0066408
0.00656366
0.00644069
0.00626328
0.00602122
0.00570396
0.00530166
0.00480546
0.0042056
0.00348582
0.00261028
0.00149823
0.000183172
0.00622474
0.00643062
0.00656529
0.00664633
0.00668358
0.00668252
0.00664442
0.00656665
0.00644317
0.00626532
0.00602286
0.00570525
0.00530264
0.00480617
0.00420608
0.00348611
0.00261044
0.00149828
0.000183174
0.00624084
0.00644199
0.00657352
0.00665248
0.00668831
0.00668625
0.00664743
0.0065691
0.00644518
0.00626696
0.00602418
0.00570628
0.00530342
0.00480673
0.00420645
0.00348633
0.00261055
0.00149832
0.000183176
0.00625691
0.00645318
0.00658151
0.00665835
0.00669277
0.00668975
0.00665024
0.0065714
0.00644708
0.00626852
0.00602544
0.00570727
0.00530417
0.00480727
0.00420681
0.00348655
0.00261066
0.00149836
0.000183178
0.00627298
0.00646441
0.00658957
0.00666435
0.00669739
0.00669344
0.00665327
0.00657394
0.00644921
0.00627031
0.00602693
0.00570846
0.00530509
0.00480794
0.00420726
0.00348682
0.0026108
0.00149841
0.00018318
0.00628911
0.00647594
0.0065981
0.00667091
0.00670264
0.00669779
0.00665698
0.00657715
0.00645201
0.00627272
0.00602896
0.00571014
0.00530641
0.00480891
0.00420793
0.00348724
0.00261101
0.00149848
0.000183183
0.0063056
0.00648822
0.00660762
0.00667861
0.00670913
0.00670343
0.00666198
0.00658163
0.00645601
0.00627626
0.00603202
0.00571269
0.00530845
0.00481046
0.00420902
0.00348792
0.00261137
0.00149861
0.000183189
0.00632306
0.00650196
0.00661892
0.00668829
0.00671769
0.00671119
0.0066691
0.00658818
0.00646201
0.00628166
0.00603677
0.00571674
0.00531175
0.00481299
0.00421082
0.00348907
0.00261199
0.00149883
0.000183199
0.00634256
0.00651828
0.00663315
0.00670111
0.00672953
0.00672226
0.00667953
0.00659798
0.00647112
0.00629
0.00604422
0.00572318
0.00531708
0.00481716
0.00421384
0.00349104
0.00261307
0.00149922
0.000183218
0.00636577
0.00653886
0.00665199
0.00671876
0.00674631
0.00673833
0.00669493
0.00661266
0.00648496
0.00630284
0.00605586
0.00573338
0.00532567
0.004824
0.0042189
0.0034944
0.00261494
0.00149992
0.000183251
0.00639507
0.00656601
0.00667774
0.00674354
0.00677034
0.00676169
0.0067176
0.00663452
0.00650583
0.00632243
0.00607385
0.00574942
0.00533939
0.00483514
0.00422731
0.00350011
0.0026182
0.00150116
0.000183311
0.00643374
0.00660291
0.0067135
0.0067785
0.00680465
0.0067954
0.00675061
0.00666667
0.00653682
0.00635189
0.00610128
0.00577427
0.00536108
0.00485312
0.00424119
0.00350977
0.00262385
0.00150335
0.000183419
0.00648601
0.00665362
0.00676321
0.00682753
0.00685313
0.00684334
0.00679791
0.00671312
0.00658206
0.00639542
0.00614243
0.0058122
0.00539485
0.00488176
0.00426388
0.003526
0.0026336
0.00150724
0.000183614
0.00655717
0.00672312
0.00683168
0.00689531
0.00692042
0.0069102
0.00686429
0.00677881
0.0066467
0.00645842
0.00620293
0.00586905
0.00544661
0.0049268
0.00430059
0.00355305
0.00265036
0.00151412
0.000183965
0.0066534
0.00681713
0.00692431
0.00698709
0.0070117
0.00700121
0.00695512
0.00686939
0.00673677
0.0065474
0.00628985
0.00595244
0.00552441
0.00499644
0.00435912
0.00359768
0.002679
0.00152626
0.000184602
0.00678125
0.00694156
0.00704656
0.00710805
0.00713207
0.00712153
0.00707579
0.00699068
0.00685867
0.00666956
0.00641139
0.00607168
0.00563867
0.00510187
0.00445084
0.00367021
0.00272737
0.00154758
0.000185757
0.00694677
0.00710156
0.00720297
0.00726236
0.00728555
0.00727525
0.00723069
0.00714755
0.00701811
0.00683179
0.00657597
0.00623708
0.00580176
0.0052574
0.00459114
0.00378561
0.00280756
0.00158448
0.000187844
0.00715398
0.00730006
0.00739574
0.00745179
0.0074737
0.00746397
0.0074217
0.00734249
0.00721855
0.00703901
0.00679057
0.00645836
0.00602669
0.00547944
0.00479916
0.00396367
0.00293645
0.00164645
0.000191561
0.00740293
0.00753604
0.00762314
0.00767416
0.00769414
0.00768531
0.00764668
0.00757392
0.00745936
0.00729212
0.00705847
0.00674214
0.00632449
0.0057842
0.00509589
0.00422757
0.0031344
0.00174511
0.000197963
0.00768791
0.00780304
0.00787824
0.00792227
0.00793952
0.00793188
0.00789833
0.00783485
0.00773422
0.00758607
0.00737671
0.00708889
0.00670083
0.00618423
0.00550127
0.00460172
0.00342251
0.00189069
0.00020836
0.00799662
0.00808882
0.0081489
0.008184
0.00819772
0.0081915
0.0081644
0.00811294
0.00803087
0.00790897
0.00773459
0.00749055
0.00715274
0.00668528
0.00603301
0.0051143
0.00382683
0.00209134
0.000224217
0.00831139
0.00837693
0.00841952
0.00844432
0.00845391
0.00844929
0.00842969
0.00839243
0.00833274
0.00824338
0.00811403
0.00792959
0.00766637
0.00728382
0.00670859
0.00581193
0.00440727
0.00237223
0.000248794
0.00861298
0.00865056
0.0086749
0.00868897
0.00869431
0.00869144
0.00867987
0.00865794
0.00862273
0.00856975
0.00849235
0.00838016
0.00821519
0.00796189
0.00754273
0.00678358
0.00533547
0.00284133
0.000299111
0.0088862
0.00889755
0.00890488
0.00890909
0.00891063
0.00890965
0.00890599
0.0088991
0.00888807
0.00887147
0.00884714
0.00881163
0.00875849
0.00867318
0.00851608
0.00815784
0.00712294
0.00405931
0.000465862
)
;

boundaryField
{
    leftWall
    {
        type            nutkWallFunction;
        blending        stepwise;
        value           nonuniform List<scalar> 
50
(
0
0
0
0
0
0
0
0
0
0
0
0
0
0
0
0
0
0
0
0
0
0
0
0
0
0
0
5.36008e-05
1.97827e-05
1.11908e-05
1.20539e-05
1.32234e-05
1.40415e-05
1.46045e-05
1.49931e-05
1.52607e-05
1.54453e-05
1.55754e-05
1.56743e-05
1.5763e-05
1.58643e-05
1.60079e-05
1.62384e-05
1.66263e-05
1.72819e-05
1.83681e-05
2.01214e-05
2.29962e-05
2.89476e-05
4.92405e-05
)
;
    }
    rightWall
    {
        type            nutkWallFunction;
        blending        stepwise;
        value           nonuniform List<scalar> 
50
(
2.82443e-06
7.53578e-06
9.94547e-06
1.16034e-05
1.28392e-05
1.38204e-05
1.46387e-05
1.53479e-05
1.63217e-05
1.72166e-05
1.78077e-05
1.82037e-05
1.84699e-05
1.8648e-05
1.87659e-05
1.88429e-05
1.88925e-05
1.8924e-05
1.89438e-05
1.8956e-05
1.89634e-05
1.89679e-05
1.89706e-05
1.89722e-05
1.89732e-05
1.89737e-05
1.89741e-05
1.89743e-05
1.89744e-05
1.89745e-05
1.89747e-05
1.89749e-05
1.89754e-05
1.89762e-05
1.89777e-05
1.89804e-05
1.89853e-05
1.89944e-05
1.90111e-05
1.90419e-05
1.90989e-05
1.92053e-05
1.9404e-05
1.97739e-05
2.04499e-05
2.16376e-05
2.36166e-05
2.68919e-05
3.36944e-05
5.55401e-05
)
;
    }
    lowerWall
    {
        type            nutkWallFunction;
        blending        stepwise;
        value           nonuniform List<scalar> 
62
(
0
0
0
0
0
0
0
0
0
0
0
0
2.16739e-05
0
0
0
0
0
0
0
0
0
0
0
5.27956e-06
7.85797e-06
9.68151e-06
1.12158e-05
1.28084e-05
1.50734e-05
1.95963e-05
2.16731e-05
1.92725e-05
1.93754e-05
2.20245e-05
0
7.82722e-06
1.07355e-05
1.2836e-05
1.46394e-05
1.65431e-05
1.9226e-05
2.42666e-05
0
0
0
0
0
0
0
0
0
0
0
0
0
0
0
0
0
0
0
)
;
    }
    atmosphere
    {
        type            calculated;
        value           uniform 0.009;
    }
    defaultFaces
    {
        type            empty;
    }
}


// ************************************************************************* //
