/*--------------------------------*- C++ -*----------------------------------*\
| =========                 |                                                 |
| \\      /  F ield         | OpenFOAM: The Open Source CFD Toolbox           |
|  \\    /   O peration     | Version:  2406                                  |
|   \\  /    A nd           | Website:  www.openfoam.com                      |
|    \\/     M anipulation  |                                                 |
\*---------------------------------------------------------------------------*/
FoamFile
{
    version     2.0;
    format      ascii;
    arch        "LSB;label=32;scalar=64";
    class       surfaceScalarField;
    location    "0.45";
    object      phi;
}
// * * * * * * * * * * * * * * * * * * * * * * * * * * * * * * * * * * * * * //

dimensions      [0 3 -1 0 0 0 0];

oriented        oriented;

internalField   nonuniform List<scalar> 
4432
(
-2.0955e-304
-1.05127e-304
-4.22463e-304
-4.99039e-304
-6.57145e-304
-6.79919e-304
-9.23532e-304
-7.04592e-304
-1.23136e-303
-5.34908e-304
-1.58471e-303
-7.60798e-305
-1.97854e-303
8.28947e-304
-2.38963e-303
2.42731e-303
-2.75036e-303
5.10924e-303
-2.83548e-303
9.53051e-303
-1.68326e-303
1.69e-302
5.68135e-303
2.94212e-302
7.76558e-303
5.15055e-302
-3.9635e-303
1.67873e-302
-4.88393e-303
2.11337e-303
-2.72329e-303
-1.16423e-303
-1.45153e-303
-1.26879e-303
-7.73531e-304
-8.30034e-304
-4.1305e-304
-4.29581e-304
-2.1607e-304
-1.68322e-304
-1.04223e-304
-2.37923e-305
-3.67694e-305
3.87719e-305
3.52509e-305
-6.52857e-304
-1.91801e-304
-1.30381e-303
-8.95534e-304
-2.01284e-303
-1.23675e-303
-2.81647e-303
-1.26434e-303
-3.74077e-303
-8.95692e-304
-4.79558e-303
5.44192e-305
-5.96298e-303
1.89207e-303
-7.17196e-303
5.09082e-303
-8.23595e-303
1.03881e-302
-8.6764e-303
1.89731e-302
-7.00197e-303
3.29268e-302
-3.51867e-303
5.64411e-302
3.40451e-303
9.31439e-302
-7.63463e-303
2.64754e-302
-6.6831e-303
3.59287e-303
-3.99854e-303
-5.67507e-304
-2.30745e-303
-1.0754e-303
-1.31397e-303
-7.81361e-304
-7.44059e-304
-4.14763e-304
-4.14294e-304
-1.48423e-304
-2.17922e-304
1.11413e-305
-9.00969e-305
8.81745e-305
8.34315e-305
-1.11048e-303
-2.93861e-304
-2.2275e-303
-1.27642e-303
-3.44367e-303
-1.76867e-303
-4.82171e-303
-1.78967e-303
-6.40816e-303
-1.20834e-303
-8.22499e-303
2.49805e-304
-1.02533e-302
3.03019e-303
-1.23996e-302
7.81713e-303
-1.44252e-302
1.56573e-302
-1.57918e-302
2.82039e-302
-1.50329e-302
4.82416e-302
-1.62682e-302
8.10564e-302
-2.68776e-303
1.29271e-301
-1.09121e-302
3.35672e-302
-8.02218e-303
5.07393e-303
-4.97082e-303
1.0745e-304
-2.99926e-303
-7.72725e-304
-1.78106e-303
-6.51027e-304
-1.04819e-303
-3.51425e-304
-6.07638e-304
-1.03874e-304
-3.3684e-304
5.7402e-305
-1.52812e-304
1.45097e-304
1.44609e-304
-1.60441e-303
-4.0309e-304
-3.23049e-303
-1.66337e-303
-5.00066e-303
-2.30555e-303
-7.00509e-303
-2.3147e-303
-9.31434e-303
-1.50757e-303
-1.1969e-302
4.76035e-304
-1.49612e-302
4.21352e-303
-1.81993e-302
1.05794e-302
-2.14436e-302
2.08949e-302
-2.41977e-302
3.72008e-302
-2.51644e-302
6.28096e-302
-3.14803e-302
1.03477e-301
-1.00467e-302
1.60103e-301
-1.43056e-302
3.97564e-302
-9.51273e-303
6.60226e-303
-5.98521e-303
7.70352e-304
-3.71363e-303
-4.53644e-304
-2.27483e-303
-4.98223e-304
-1.3816e-303
-2.72217e-304
-8.2924e-304
-5.10652e-305
-4.81211e-304
1.07414e-304
-2.35806e-304
2.06598e-304
2.20024e-304
-2.15488e-303
-5.21572e-304
-4.34896e-303
-2.07804e-303
-6.73518e-303
-2.87942e-303
-9.43278e-303
-2.87712e-303
-1.25396e-302
-1.83473e-303
-1.6121e-302
6.92144e-304
-2.01904e-302
5.40272e-303
-2.46768e-302
1.33441e-302
-2.93715e-302
2.60723e-302
-3.38555e-302
4.59444e-302
-3.69642e-302
7.66473e-302
-4.84189e-302
1.241e-301
-1.84318e-302
1.87707e-301
-1.80575e-302
4.56562e-302
-1.12822e-302
8.14046e-303
-7.14289e-303
1.40581e-303
-4.51673e-303
-1.44407e-304
-2.83463e-303
-3.44376e-304
-1.76812e-303
-1.91319e-304
-1.09461e-303
3.67089e-307
-6.62537e-304
1.5281e-304
-3.47969e-304
2.63125e-304
2.99971e-304
-2.78129e-303
-6.54549e-304
-5.61919e-303
-2.54038e-303
-8.69945e-303
-3.52109e-303
-1.21719e-302
-3.51587e-303
-1.61647e-302
-2.23289e-303
-2.07725e-302
8.53293e-304
-2.60387e-302
6.55596e-303
-3.1926e-302
1.60738e-302
-3.82735e-302
3.11618e-302
-4.47453e-302
5.44204e-302
-5.02351e-302
8.97921e-302
-6.67986e-302
1.43299e-301
-2.77783e-302
2.13708e-301
-2.22561e-302
5.14687e-302
-1.336e-302
9.68819e-303
-8.48696e-303
2.02538e-303
-5.44388e-303
1.53862e-304
-3.48447e-303
-1.95531e-304
-2.22344e-303
-1.15171e-304
-1.41454e-303
4.38197e-305
-8.90165e-304
1.84585e-304
-5.00625e-304
2.98632e-304
3.52555e-304
-3.50297e-303
-8.10777e-304
-7.07824e-303
-3.06999e-303
-1.09473e-302
-4.26341e-303
-1.52916e-302
-4.27354e-303
-2.02718e-302
-2.75144e-303
-2.60159e-302
9.08358e-304
-3.26028e-302
7.62385e-303
-4.00374e-302
1.87275e-302
-4.82161e-302
3.61352e-302
-5.68853e-302
6.26253e-302
-6.49601e-302
1.02298e-301
-8.66485e-302
1.61284e-301
-3.81508e-302
2.38573e-301
-2.69266e-302
5.7145e-302
-1.57499e-302
1.12596e-302
-1.00412e-302
2.65256e-303
-6.51948e-303
4.513e-304
-4.24318e-303
-5.02589e-305
-2.76045e-303
-4.61779e-305
-1.79729e-303
7.46631e-305
-1.17057e-303
1.93907e-304
-7.08536e-304
2.88892e-304
2.98379e-304
-4.33937e-303
-9.99532e-304
-8.76449e-303
-3.67934e-303
-1.35345e-302
-5.13103e-303
-1.88635e-302
-5.18771e-303
-2.4946e-302
-3.44009e-303
-3.19459e-302
7.96452e-304
-3.99809e-302
8.53537e-303
-4.91033e-302
2.1226e-302
-5.9272e-302
4.09082e-302
-7.03203e-302
7.04805e-302
-8.10909e-302
1.14105e-301
-1.08316e-301
1.7785e-301
-4.92272e-302
2.60299e-301
-3.204e-302
6.24397e-302
-1.84241e-302
1.28699e-302
-1.18027e-302
3.32005e-303
-7.74906e-303
7.68737e-304
-5.11674e-303
1.025e-304
-3.38255e-303
2.09009e-305
-2.24193e-303
9.44965e-305
-1.49688e-303
1.79114e-304
-9.86998e-304
2.2734e-304
1.57692e-304
-1.42432e-308
-8.25089e-308
-1.78296e-308
-4.40872e-307
-1.08602e-308
-3.48328e-307
-1.14852e-308
-1.66155e-307
-1.08931e-308
-5.88889e-308
-7.98264e-309
-1.53846e-308
-4.8161e-309
-1.86523e-309
-2.52801e-309
1.04263e-309
-1.19506e-309
1.06903e-309
-5.19498e-310
6.40892e-310
-2.10214e-310
3.18727e-310
-7.96746e-311
1.43037e-310
-2.83187e-311
5.98433e-311
-9.3996e-312
2.36317e-311
-2.87972e-312
8.80799e-312
-7.93638e-313
3.06472e-312
-1.85045e-313
9.69107e-313
-3.01444e-314
2.56077e-313
3.22325e-314
-3.44843e-308
-2.7913e-307
-6.26132e-308
-1.00418e-306
-5.63078e-308
-7.10591e-307
-5.08129e-308
-3.24363e-307
-3.9022e-308
-1.11549e-307
-2.53938e-308
-2.73185e-308
-1.44681e-308
-1.72802e-309
-7.42884e-309
3.29629e-309
-3.50742e-309
2.84584e-309
-1.54272e-309
1.66739e-309
-6.3719e-310
8.32343e-310
-2.48116e-310
3.7804e-310
-9.11091e-311
1.60555e-310
-3.14229e-311
6.44889e-311
-1.00743e-311
2.4531e-311
-2.93584e-312
8.773e-312
-7.37303e-313
2.89396e-312
-1.33089e-313
8.27297e-313
1.27615e-313
-7.8969e-308
-7.97012e-307
-1.57962e-307
-2.02652e-306
-1.52205e-307
-1.27617e-306
-1.27182e-307
-5.48684e-307
-8.93381e-308
-1.80914e-307
-5.46298e-308
-4.12989e-308
-3.00011e-308
-2.74998e-310
-1.5126e-308
7.04564e-309
-7.10394e-309
5.64505e-309
-3.13684e-309
3.2784e-309
-1.3095e-309
1.64778e-309
-5.18119e-310
7.58177e-310
-1.94216e-310
3.27247e-310
-6.86948e-311
1.33922e-310
-2.27096e-311
5.20766e-311
-6.8769e-312
1.9149e-311
-1.81831e-312
6.56935e-312
-3.53953e-313
2.00505e-312
3.61445e-313
-2.02106e-307
-2.17587e-306
-3.77529e-307
-3.92129e-306
-3.58271e-307
-2.18843e-306
-2.78385e-307
-8.81373e-307
-1.8311e-307
-2.77882e-307
-1.06893e-307
-5.91951e-308
-5.70362e-308
2.86902e-309
-2.83236e-308
1.29579e-308
-1.32354e-308
9.96701e-309
-5.85908e-309
5.77558e-309
-2.46641e-309
2.92796e-309
-9.88673e-310
1.36537e-309
-3.77016e-310
5.98934e-310
-1.36211e-310
2.49682e-310
-4.62088e-311
9.91877e-311
-1.44507e-311
3.74371e-311
-3.98743e-312
1.33039e-311
-8.2591e-313
4.29362e-312
8.80136e-313
-5.57029e-307
-5.84932e-306
-8.76211e-307
-7.30395e-306
-7.86962e-307
-3.60136e-306
-5.68353e-307
-1.35994e-306
-3.53634e-307
-4.11685e-307
-1.98903e-307
-8.26558e-308
-1.03777e-307
8.04914e-309
-5.09545e-308
2.16961e-308
-2.37392e-308
1.63407e-308
-1.05436e-308
9.49595e-309
-4.47491e-309
4.86399e-309
-1.81587e-309
2.29991e-309
-7.03474e-310
1.02526e-309
-2.59107e-310
4.35161e-310
-8.99711e-311
1.76422e-310
-2.89554e-311
6.82198e-311
-8.29579e-312
2.50226e-311
-1.81435e-312
8.47692e-312
1.94881e-312
-1.59991e-306
-1.5399e-305
-1.98745e-306
-1.29699e-305
-1.63968e-306
-5.65445e-306
-1.09971e-306
-2.01499e-306
-6.51417e-307
-5.91018e-307
-3.55389e-307
-1.13709e-307
-1.82265e-307
1.54158e-308
-8.88112e-308
3.39081e-308
-4.13484e-308
2.53474e-308
-1.84489e-308
1.4834e-308
-7.89854e-309
7.68969e-309
-3.24414e-309
3.68885e-309
-1.27594e-309
1.67091e-309
-4.78554e-310
7.21609e-310
-1.69791e-310
2.98194e-310
-5.60989e-311
1.17879e-310
-1.66312e-311
4.44527e-311
-3.8234e-312
1.56723e-311
3.96775e-312
-4.68047e-306
-4.09635e-305
-4.42731e-306
-2.14388e-305
-3.2648e-306
-8.36835e-306
-2.03297e-306
-2.85801e-306
-1.15315e-306
-8.24131e-307
-6.13921e-307
-1.55789e-307
-3.11013e-307
2.41787e-308
-1.50933e-307
4.97796e-308
-7.04004e-308
3.7374e-308
-3.16082e-308
2.21139e-308
-1.36643e-308
1.16183e-308
-5.68331e-309
5.65569e-309
-2.26937e-309
2.60154e-309
-8.6634e-310
1.14167e-309
-3.13782e-310
4.79847e-310
-1.06264e-310
1.93265e-310
-3.25074e-311
7.44927e-311
-7.82206e-312
2.69977e-311
7.31093e-312
-1.32773e-305
-7.31783e-305
-9.56752e-306
-3.07516e-305
-6.12166e-306
-1.13717e-305
-3.55924e-306
-3.8156e-306
-1.94835e-306
-1.09439e-306
-1.01865e-306
-2.04647e-307
-5.12052e-307
3.56331e-308
-2.4824e-307
6.98349e-308
-1.16216e-307
5.26986e-308
-5.25565e-308
3.15007e-308
-2.29483e-308
1.67472e-308
-9.66245e-309
8.25465e-309
-3.91374e-309
3.84537e-309
-1.51857e-309
1.70905e-309
-5.60305e-310
7.27561e-310
-1.93919e-310
2.96911e-310
-6.09621e-311
1.16004e-310
-1.53102e-311
4.25681e-311
1.17588e-311
-1.2363e-302
-1.49272e-303
-2.49497e-302
-5.19224e-303
-3.84385e-302
-7.35628e-303
-5.3395e-302
-7.68967e-303
-7.03519e-302
-5.64995e-303
-8.97816e-302
-4.02315e-304
-1.12073e-301
9.23861e-303
-1.37503e-301
2.49001e-302
-1.662e-301
4.8783e-302
-1.98115e-301
8.38561e-302
-2.2836e-301
1.34143e-301
-3.10485e-301
2.04987e-301
-1.41992e-301
2.92478e-301
-8.61709e-302
7.13876e-302
-4.86581e-302
1.60304e-302
-3.13928e-302
4.73976e-303
-2.08988e-302
1.47681e-303
-1.40339e-302
4.52671e-304
-9.43979e-303
1.71296e-304
-6.35537e-303
1.25099e-304
-4.29124e-303
1.22174e-304
-2.89651e-303
8.04336e-305
-5.17462e-305
-1.70263e-303
-1.68291e-302
-2.12797e-303
-3.39373e-302
-7.10197e-303
-5.21974e-302
-1.02783e-302
-7.23434e-302
-1.12308e-302
-9.50876e-302
-9.29133e-303
-1.21093e-301
-3.49836e-303
-1.50956e-301
7.45816e-303
-1.8519e-301
2.53071e-302
-2.24207e-301
5.22894e-302
-2.68309e-301
9.12708e-302
-3.1143e-301
1.4589e-301
-4.22112e-301
2.20508e-301
-2.01497e-301
3.09424e-301
-1.12074e-301
7.6989e-302
-6.18683e-302
1.8378e-302
-3.98797e-302
5.89129e-303
-2.6712e-302
2.09058e-303
-1.80971e-302
7.71043e-304
-1.22729e-302
3.1125e-304
-8.28724e-303
1.53002e-304
-5.5348e-303
7.85889e-305
-3.58494e-303
4.57057e-307
-1.07804e-304
-2.08386e-303
-2.14706e-302
-2.99066e-303
-4.32375e-302
-9.69998e-303
-6.64063e-302
-1.43618e-302
-9.1894e-302
-1.64257e-302
-1.20604e-301
-1.51065e-302
-1.53396e-301
-9.33214e-303
-1.9107e-301
2.2998e-303
-2.34352e-301
2.1573e-302
-2.83884e-301
5.07037e-302
-3.40207e-301
9.23831e-302
-3.96329e-301
1.49812e-301
-5.33747e-301
2.26458e-301
-2.62225e-301
3.15432e-301
-1.39055e-301
7.98012e-302
-7.55369e-302
1.97631e-302
-4.84275e-302
6.61028e-303
-3.24195e-302
2.49596e-303
-2.19958e-302
9.92722e-304
-1.4933e-302
4.14913e-304
-1.00623e-302
1.81614e-304
-6.66027e-303
6.58824e-305
-4.23439e-303
-1.95257e-305
-9.3643e-305
-2.44128e-303
-2.6319e-302
-4.18735e-303
-5.28903e-302
-1.33111e-302
-8.10957e-302
-2.01302e-302
-1.12046e-301
-2.39718e-302
-1.46843e-301
-2.39347e-302
-1.86543e-301
-1.88447e-302
-2.32136e-301
-7.21968e-303
-2.84533e-301
1.27599e-302
-3.44551e-301
4.32715e-302
-4.12884e-301
8.684e-302
-4.81488e-301
1.46304e-301
-6.44834e-301
2.24473e-301
-3.23116e-301
3.13757e-301
-1.6699e-301
8.05139e-302
-8.97585e-302
2.02697e-302
-5.71872e-302
6.87465e-303
-3.8165e-302
2.65494e-303
-2.58521e-302
1.08746e-303
-1.75247e-302
4.64213e-304
-1.17769e-302
2.01493e-304
-7.75652e-303
7.34409e-305
-4.89897e-303
-5.62485e-306
-5.72306e-305
-2.82308e-303
-3.14026e-302
-5.84284e-303
-6.29365e-302
-1.83073e-302
-9.63074e-302
-2.81871e-302
-1.32831e-301
-3.46768e-302
-1.73818e-301
-3.67537e-302
-2.20518e-301
-3.31362e-302
-2.74106e-301
-2.2261e-302
-3.35656e-301
-2.26396e-303
-4.06121e-301
2.90162e-302
-4.86311e-301
7.39991e-302
-5.67075e-301
1.35293e-301
-7.55917e-301
2.15311e-301
-3.84536e-301
3.06064e-301
-1.95869e-301
7.94747e-302
-1.04554e-301
1.99431e-302
-6.623e-302
6.66819e-303
-4.40328e-302
2.53733e-303
-2.97466e-302
1.02579e-303
-2.01189e-302
4.34389e-304
-1.3488e-302
1.91191e-304
-8.85977e-303
7.91168e-305
-5.58401e-303
1.69179e-305
-1.86974e-305
-3.22305e-303
-3.67502e-302
-8.10502e-303
-7.34184e-302
-2.51263e-302
-1.12094e-301
-3.92427e-302
-1.54313e-301
-4.94963e-302
-2.01608e-301
-5.47235e-302
-2.55434e-301
-5.35224e-302
-3.17145e-301
-4.42314e-302
-3.87969e-301
-2.49178e-302
-4.68984e-301
6.61338e-303
-5.61096e-301
5.27648e-302
-6.54036e-301
1.16069e-301
-8.68383e-301
1.98783e-301
-4.47397e-301
2.92713e-301
-2.25813e-301
7.66527e-302
-1.19945e-301
1.87065e-302
-7.55926e-302
5.92357e-303
-5.00688e-302
2.08818e-303
-3.3726e-302
7.63665e-304
-2.2756e-302
2.90065e-304
-1.52248e-302
1.21384e-304
-9.9843e-303
5.75443e-305
-6.28836e-303
2.71524e-305
1.03867e-305
-3.63537e-303
-4.2384e-302
-1.11518e-302
-8.4366e-302
-3.429e-302
-1.28495e-301
-5.41455e-302
-1.76555e-301
-6.9571e-302
-2.30322e-301
-7.92343e-302
-2.91473e-301
-8.15889e-302
-3.61552e-301
-7.48539e-302
-4.41943e-301
-5.69922e-302
-5.33845e-301
-2.57165e-302
-6.38258e-301
2.14632e-302
-7.43793e-301
8.71621e-302
-9.84134e-301
1.73706e-301
-5.12966e-301
2.72842e-301
-2.57067e-301
7.16199e-302
-1.35984e-301
1.63226e-302
-8.53023e-302
4.49168e-303
-5.62981e-302
1.20787e-303
-3.78142e-302
2.31799e-304
-2.54562e-302
-1.85309e-305
-1.70008e-302
-4.47665e-305
-1.11354e-302
-1.88141e-305
-7.01074e-303
5.84723e-306
1.99334e-305
-4.0575e-303
-4.83045e-302
-1.51995e-302
-9.57642e-302
-4.64278e-302
-1.45492e-301
-7.39155e-302
-1.99555e-301
-9.62712e-302
-2.60013e-301
-1.11952e-301
-3.28794e-301
-1.19244e-301
-4.07649e-301
-1.16223e-301
-4.98128e-301
-1.00718e-301
-6.01556e-301
-7.02863e-302
-7.19029e-301
-2.22489e-302
-8.38039e-301
4.62548e-302
-1.10538e-300
1.37842e-301
-5.82739e-301
2.44345e-301
-2.89958e-301
6.35112e-302
-1.52739e-301
1.23646e-302
-9.53813e-302
2.12314e-303
-6.27311e-302
-2.59231e-304
-4.20189e-302
-6.70153e-304
-2.8225e-302
-5.57715e-304
-1.88189e-302
-3.51959e-304
-1.23129e-302
-1.80131e-304
-7.74922e-303
-6.63229e-305
-4.86071e-307
-4.4878e-303
-5.44657e-302
-2.05149e-302
-1.07504e-301
-6.23055e-302
-1.62931e-301
-9.97886e-302
-2.23154e-301
-1.31245e-301
-2.90574e-301
-1.54873e-301
-3.67405e-301
-1.68766e-301
-4.55634e-301
-1.70852e-301
-5.56992e-301
-1.58807e-301
-6.72936e-301
-1.29992e-301
-8.04662e-301
-8.14385e-302
-9.38541e-301
-9.88617e-303
-1.23446e-300
8.78113e-302
-6.58333e-301
2.03748e-301
-3.24859e-301
5.09517e-302
-1.70282e-301
6.18669e-303
-1.05839e-301
-1.54473e-303
-6.93621e-302
-2.52975e-303
-4.63326e-302
-2.07476e-303
-3.10562e-302
-1.40982e-303
-2.06738e-302
-8.51934e-304
-1.35123e-302
-4.58932e-304
-8.50014e-303
-2.09126e-304
-6.16851e-305
-4.92411e-303
-6.07389e-302
-2.7432e-302
-1.19307e-301
-8.28688e-302
-1.80419e-301
-1.33274e-301
-2.46907e-301
-1.76483e-301
-3.2158e-301
-2.10373e-301
-4.06992e-301
-2.32844e-301
-5.05395e-301
-2.41695e-301
-6.18716e-301
-2.34472e-301
-7.48552e-301
-2.08319e-301
-8.96197e-301
-1.59911e-301
-1.04691e-300
-8.54399e-302
-1.3736e-300
1.90109e-302
-7.41321e-301
1.46037e-301
-3.62122e-301
3.19596e-302
-1.88653e-301
-3.10558e-303
-1.16656e-301
-6.9929e-303
-7.61645e-302
-5.87798e-303
-5.07323e-302
-4.1414e-303
-3.39324e-302
-2.66837e-303
-2.25529e-302
-1.60008e-303
-1.47247e-302
-8.88147e-304
-9.25746e-303
-4.41791e-304
-1.74146e-304
-5.36293e-303
-6.68584e-302
-3.63814e-302
-1.30623e-301
-1.09309e-301
-1.97181e-301
-1.76243e-301
-2.69905e-301
-2.34398e-301
-3.52101e-301
-2.81275e-301
-4.46714e-301
-3.14608e-301
-5.56287e-301
-3.32153e-301
-6.82953e-301
-3.31397e-301
-8.28453e-301
-3.09306e-301
-9.9418e-301
-2.62166e-301
-1.16428e-300
-1.85508e-301
-1.52461e-300
-7.44101e-302
-8.33014e-301
6.45094e-302
-4.01987e-301
3.85038e-303
-2.07818e-301
-1.66663e-302
-1.2777e-301
-1.48061e-302
-8.3083e-302
-1.06166e-302
-5.51771e-302
-7.03995e-303
-3.68246e-302
-4.42658e-303
-2.44359e-302
-2.64824e-303
-1.59362e-302
-1.497e-303
-1.00122e-302
-7.80804e-304
-3.4681e-304
-5.799e-303
-7.23435e-302
-4.79398e-302
-1.40474e-301
-1.43172e-301
-2.11856e-301
-2.31058e-301
-2.90554e-301
-3.07948e-301
-3.80468e-301
-3.70922e-301
-4.84967e-301
-4.17663e-301
-6.06887e-301
-4.46051e-301
-7.48559e-301
-4.53682e-301
-9.11867e-301
-4.37446e-301
-1.09831e-300
-3.93274e-301
-1.29092e-300
-3.15984e-301
-1.6884e-300
-1.99473e-301
-9.34103e-301
-4.9257e-302
-4.44451e-301
-3.67984e-302
-2.27618e-301
-3.5865e-302
-1.39052e-301
-2.56149e-302
-9.00267e-302
-1.70487e-302
-5.96053e-302
-1.09176e-302
-3.96911e-302
-6.75668e-303
-2.62945e-302
-4.03276e-303
-1.71274e-302
-2.30456e-303
-1.07515e-302
-1.23659e-303
-5.85438e-304
-6.22465e-303
-7.6366e-302
-6.29302e-302
-1.47211e-301
-1.86544e-301
-2.22202e-301
-3.00781e-301
-3.06284e-301
-4.0079e-301
-4.04004e-301
-4.83265e-301
-5.1913e-301
-5.46086e-301
-6.54735e-301
-5.87579e-301
-8.13311e-301
-6.05719e-301
-9.96872e-301
-5.97522e-301
-1.20703e-300
-5.58667e-301
-1.42576e-300
-4.83305e-301
-1.86441e-300
-3.64092e-301
-1.04424e-300
-2.05188e-301
-4.89093e-301
-9.402e-302
-2.47716e-301
-6.21171e-302
-1.50287e-301
-3.99576e-302
-9.6862e-302
-2.53752e-302
-6.39307e-302
-1.5843e-302
-4.24741e-302
-9.67887e-303
-2.80887e-302
-5.7582e-303
-1.82707e-302
-3.31145e-303
-1.14571e-302
-1.80939e-303
-8.90665e-304
-6.6286e-303
-7.75151e-302
-8.26296e-302
-1.48108e-301
-2.42382e-301
-2.24668e-301
-3.89494e-301
-3.13165e-301
-5.1751e-301
-4.18726e-301
-6.22953e-301
-5.45332e-301
-7.04415e-301
-6.96132e-301
-7.61186e-301
-8.73684e-301
-7.92036e-301
-1.08011e-300
-7.94378e-301
-1.31717e-300
-7.6383e-301
-1.56585e-300
-6.94025e-301
-2.04996e-300
-5.76544e-301
-1.16148e-300
-4.14102e-301
-5.34857e-301
-1.71983e-301
-2.67534e-301
-9.64714e-302
-1.61159e-301
-5.80129e-302
-1.03401e-301
-3.55431e-302
-6.80322e-302
-2.17282e-302
-4.50903e-302
-1.31229e-302
-2.97598e-302
-7.77895e-303
-1.93251e-302
-4.49115e-303
-1.21013e-302
-2.48512e-303
-1.25595e-303
-6.99398e-303
-7.3298e-302
-1.09233e-301
-1.38605e-301
-3.15092e-301
-2.13688e-301
-5.0278e-301
-3.05427e-301
-6.63867e-301
-4.19063e-301
-7.95382e-301
-5.58305e-301
-8.9755e-301
-7.26042e-301
-9.71412e-301
-9.24744e-301
-1.01707e-300
-1.15663e-300
-1.03265e-300
-1.42366e-300
-1.01392e-300
-1.70595e-300
-9.54261e-301
-2.23964e-300
-8.44639e-301
-1.28174e-300
-6.86619e-301
-5.79742e-301
-2.73798e-301
-2.86171e-301
-1.38764e-301
-1.71206e-301
-7.91575e-302
-1.09366e-301
-4.7042e-302
-7.17247e-302
-2.82407e-302
-4.74094e-302
-1.68922e-302
-3.12156e-302
-9.98441e-303
-2.02269e-302
-5.78343e-303
-1.26424e-302
-3.23206e-303
-1.66577e-303
-7.29556e-303
-5.89515e-302
-1.46818e-301
-1.108e-301
-4.11532e-301
-1.80577e-301
-6.48352e-301
-2.74879e-301
-8.47001e-301
-3.97694e-301
-1.0066e-300
-5.51445e-301
-1.13053e-300
-7.38235e-301
-1.22263e-300
-9.60283e-301
-1.28489e-300
-1.21994e-300
-1.31645e-300
-1.51952e-300
-1.31337e-300
-1.83842e-300
-1.26904e-300
-2.42502e-300
-1.1746e-300
-1.39814e-300
-1.03148e-300
-6.20197e-301
-3.9865e-301
-3.02218e-301
-1.86052e-301
-1.79708e-301
-1.0136e-301
-1.14305e-301
-5.87019e-302
-7.46962e-302
-3.47461e-302
-4.92141e-302
-2.06494e-302
-3.23076e-302
-1.21956e-302
-2.08782e-302
-7.09294e-303
-1.30188e-302
-3.99965e-303
-2.09447e-303
-7.49749e-303
-2.41527e-302
-2.03016e-301
-5.03343e-302
-5.42412e-301
-1.11799e-301
-8.36543e-301
-2.10413e-301
-1.07524e-300
-3.45737e-301
-1.26289e-300
-5.1726e-301
-1.40811e-300
-7.25757e-301
-1.51866e-300
-9.73254e-301
-1.59895e-300
-1.26249e-300
-1.64918e-300
-1.59631e-300
-1.66562e-300
-1.95352e-300
-1.64171e-300
-2.59488e-300
-1.56978e-300
-1.49986e-300
-1.45319e-300
-6.49511e-301
-5.34427e-301
-3.1331e-301
-2.30118e-301
-1.85394e-301
-1.20628e-301
-1.17398e-301
-6.86486e-302
-7.64029e-302
-4.03464e-302
-5.01498e-302
-2.39465e-302
-3.28112e-302
-1.41797e-302
-2.11405e-302
-8.29498e-303
-1.31483e-302
-4.72014e-303
-2.50623e-303
-7.55421e-303
5.72891e-302
-2.62311e-301
7.00714e-302
-6.9723e-301
1.32834e-302
-1.05378e-300
-9.81525e-302
-1.33091e-300
-2.53762e-301
-1.54355e-300
-4.48446e-301
-1.70775e-300
-6.81823e-301
-1.83603e-300
-9.56507e-301
-1.9354e-300
-1.27636e-300
-2.00698e-300
-1.64508e-300
-2.04673e-300
-2.04058e-300
-2.04748e-300
-2.73651e-300
-1.99836e-300
-1.56965e-300
-1.9478e-300
-6.53703e-301
-6.30284e-301
-3.15243e-301
-2.53412e-301
-1.85858e-301
-1.31179e-301
-1.17176e-301
-7.46908e-302
-7.59673e-302
-4.40788e-302
-4.97055e-302
-2.63092e-302
-3.24332e-302
-1.56845e-302
-2.08484e-302
-9.24911e-303
-1.29394e-302
-5.31417e-303
-2.85735e-303
-7.41791e-303
2.60715e-301
-6.19772e-301
3.01778e-301
-1.17925e-300
2.22234e-301
-1.59619e-300
7.5121e-302
-1.90688e-300
-1.1516e-301
-2.14042e-300
-3.40282e-301
-2.32115e-300
-6.0121e-301
-2.46645e-300
-9.03569e-301
-2.58581e-300
-1.25412e-300
-2.68097e-300
-1.65798e-300
-2.74707e-300
-2.08612e-300
-2.7755e-300
-2.84072e-300
-2.7622e-300
-1.58593e-300
-1.641e-300
-6.08045e-301
-5.50865e-301
-2.98904e-301
-2.39626e-301
-1.76321e-301
-1.29434e-301
-1.1132e-301
-7.54879e-302
-7.22587e-302
-4.52664e-302
-4.73229e-302
-2.73547e-302
-3.0894e-302
-1.64848e-302
-1.98601e-302
-9.82117e-303
-1.23207e-302
-5.70212e-303
-3.10223e-303
-7.05409e-303
7.71598e-301
-7.90882e-302
6.91585e-301
-5.17431e-301
5.1904e-301
-8.10168e-301
3.01208e-301
-1.02076e-300
6.06892e-302
-1.17668e-300
-1.99281e-301
-1.29639e-300
-4.86486e-301
-1.39243e-300
-8.13563e-301
-1.47136e-300
-1.19321e-300
-1.53367e-300
-1.63359e-300
-1.57344e-300
-2.13234e-300
-1.57759e-300
-1.7565e-300
-1.53331e-300
-8.18394e-301
-7.88905e-301
-4.07435e-301
-3.71373e-301
-2.39398e-301
-2.0027e-301
-1.50439e-301
-1.17248e-301
-9.78946e-302
-7.11379e-302
-6.46256e-302
-4.37153e-302
-4.27662e-302
-2.68915e-302
-2.81053e-302
-1.64393e-302
-1.81433e-302
-9.91614e-303
-1.12817e-302
-5.8231e-303
-3.20392e-303
-6.46096e-303
3.35612e-301
-2.84132e-301
2.33751e-301
-4.42632e-301
1.54387e-301
-5.23737e-301
7.35102e-302
-5.82465e-301
-1.0083e-302
-6.26142e-301
-1.00098e-301
-6.58375e-301
-2.01264e-301
-6.81844e-301
-3.1791e-301
-6.97805e-301
-4.50528e-301
-7.05396e-301
-5.87484e-301
-7.00367e-301
-6.76203e-301
-6.7205e-301
-5.7921e-301
-6.0358e-301
-3.83035e-301
-4.01056e-301
-2.55786e-301
-2.51453e-301
-1.72828e-301
-1.57008e-301
-1.17386e-301
-9.91076e-302
-7.99014e-302
-6.28449e-302
-5.42511e-302
-3.97757e-302
-3.65686e-302
-2.50059e-302
-2.43322e-302
-1.55509e-302
-1.58387e-302
-9.51451e-303
-9.89946e-303
-5.65601e-303
-3.14604e-303
-5.68001e-303
2.94688e-302
-1.71299e-301
1.71797e-302
-2.4615e-301
4.8161e-303
-2.79368e-301
-1.45698e-302
-3.04722e-301
-4.01499e-302
-3.23747e-301
-7.19273e-302
-3.37003e-301
-1.10266e-301
-3.45235e-301
-1.54814e-301
-3.48999e-301
-2.02693e-301
-3.48351e-301
-2.45803e-301
-3.42513e-301
-2.66624e-301
-3.29327e-301
-2.48946e-301
-3.02463e-301
-2.056e-301
-2.38933e-301
-1.59615e-301
-1.71568e-301
-1.19001e-301
-1.17926e-301
-8.6366e-302
-7.92825e-302
-6.14989e-302
-5.24874e-302
-4.30869e-302
-3.42711e-302
-2.96947e-302
-2.20614e-302
-2.00732e-302
-1.39795e-302
-1.32125e-302
-8.68525e-303
-8.31792e-303
-5.2291e-303
-2.93893e-303
-4.78705e-303
-3.11856e-302
-8.81756e-302
-2.71149e-302
-1.42104e-301
-2.60679e-302
-1.67609e-301
-3.01387e-302
-1.84617e-301
-3.90169e-302
-1.9637e-301
-5.2263e-302
-2.04001e-301
-6.94453e-302
-2.08247e-301
-8.96242e-302
-2.09645e-301
-1.10645e-301
-2.08458e-301
-1.28503e-301
-2.04448e-301
-1.37456e-301
-1.96374e-301
-1.33975e-301
-1.80684e-301
-1.20123e-301
-1.51648e-301
-1.00689e-301
-1.17394e-301
-8.00326e-302
-8.60725e-302
-6.11216e-302
-6.08426e-302
-4.52666e-302
-4.1856e-302
-3.26762e-302
-2.81543e-302
-2.30347e-302
-1.85552e-302
-1.58376e-302
-1.19833e-302
-1.05548e-302
-7.56166e-303
-6.70031e-303
-4.61051e-303
-2.61626e-303
-3.86966e-303
-3.11795e-302
-4.51108e-302
-2.99696e-302
-8.25014e-302
-2.83307e-302
-1.02793e-301
-2.87885e-302
-1.1596e-301
-3.1965e-302
-1.24653e-301
-3.77798e-302
-1.30073e-301
-4.58963e-302
-1.32966e-301
-5.56112e-302
-1.33842e-301
-6.56514e-302
-1.3297e-301
-7.41042e-302
-1.30234e-301
-7.87783e-302
-1.24864e-301
-7.83456e-302
-1.15165e-301
-7.29484e-302
-9.94665e-302
-6.38626e-302
-8.0388e-302
-5.29838e-302
-6.1571e-302
-4.20484e-302
-4.52308e-302
-3.21669e-302
-3.21352e-302
-2.38429e-302
-2.21978e-302
-1.71675e-302
-1.49536e-302
-1.2001e-302
-9.83389e-303
-8.09898e-303
-6.29882e-303
-5.18548e-303
-3.88695e-303
-2.22455e-303
-3.00495e-303
-2.23735e-302
-2.35554e-302
-2.33824e-302
-4.79329e-302
-2.29172e-302
-6.30225e-302
-2.29023e-302
-7.32167e-302
-2.41228e-302
-8.0007e-302
-2.67386e-302
-8.42599e-302
-3.06209e-302
-8.65777e-302
-3.53792e-302
-8.73817e-302
-4.03376e-302
-8.68951e-302
-4.45773e-302
-8.50642e-302
-4.71319e-302
-8.14583e-302
-4.73297e-302
-7.53024e-302
-4.49908e-302
-6.60923e-302
-4.04782e-302
-5.48642e-302
-3.46012e-302
-4.33115e-302
-2.82685e-302
-3.2759e-302
-2.21998e-302
-2.38929e-302
-1.68317e-302
-1.6885e-302
-1.23506e-302
-1.15987e-302
-8.76725e-303
-7.75474e-303
-5.98765e-303
-5.03608e-303
-3.86516e-303
-3.14208e-303
-1.81126e-303
-2.24611e-303
-1.44783e-302
-1.25241e-302
-1.61228e-302
-2.7827e-302
-1.64245e-302
-3.8397e-302
-1.65713e-302
-4.59791e-302
-1.71585e-302
-5.12212e-302
-1.83921e-302
-5.46107e-302
-2.02689e-302
-5.65493e-302
-2.26138e-302
-5.73387e-302
-2.50961e-302
-5.71465e-302
-2.7272e-302
-5.59609e-302
-2.86732e-302
-5.35666e-302
-2.89253e-302
-4.96271e-302
-2.78451e-302
-4.40038e-302
-2.55182e-302
-3.71775e-302
-2.22886e-302
-2.99835e-302
-1.86182e-302
-2.31847e-302
-1.49329e-302
-1.72686e-302
-1.1539e-302
-1.24385e-302
-8.60733e-303
-8.68946e-303
-6.19451e-303
-5.8951e-303
-4.27685e-303
-3.87585e-303
-2.78141e-303
-2.44182e-303
-1.41573e-303
-1.61943e-303
-8.87397e-303
-6.73307e-303
-1.03892e-302
-1.61116e-302
-1.09561e-302
-2.31959e-302
-1.12454e-302
-2.85973e-302
-1.16264e-302
-3.25093e-302
-1.22623e-302
-3.51479e-302
-1.31942e-302
-3.67396e-302
-1.43615e-302
-3.7475e-302
-1.56154e-302
-3.74693e-302
-1.67431e-302
-3.67328e-302
-1.75071e-302
-3.51714e-302
-1.76948e-302
-3.26509e-302
-1.71733e-302
-2.91532e-302
-1.59437e-302
-2.49305e-302
-1.41505e-302
-2.04189e-302
-1.20254e-302
-1.60556e-302
-9.81019e-303
-1.21594e-302
-7.70126e-303
-8.89665e-303
-5.82594e-303
-6.30431e-303
-4.24345e-303
-4.33116e-303
-2.9582e-303
-2.87831e-303
-1.93638e-303
-1.82855e-303
-1.06472e-303
-1.12844e-303
-5.23632e-303
-3.6385e-303
-6.38716e-303
-9.28309e-303
-6.94196e-303
-1.38735e-302
-7.26187e-303
-1.75757e-302
-7.55279e-303
-2.03861e-302
-7.91944e-303
-2.23659e-302
-8.40541e-303
-2.36215e-302
-8.99958e-303
-2.42594e-302
-9.64122e-303
-2.43515e-302
-1.02304e-302
-2.39156e-302
-1.06451e-302
-2.29185e-302
-1.07655e-302
-2.1316e-302
-1.05055e-302
-1.91277e-302
-9.84575e-303
-1.6498e-302
-8.8451e-303
-1.36658e-302
-7.61884e-303
-1.08834e-302
-6.30111e-303
-8.35114e-303
-5.01165e-303
-6.18859e-303
-3.83666e-303
-4.43766e-303
-2.82358e-303
-3.08143e-303
-1.98497e-303
-2.0666e-303
-1.3065e-303
-1.32205e-303
-7.71977e-304
-7.61227e-304
-2.99504e-303
-1.96751e-303
-3.78146e-303
-5.3103e-303
-4.21977e-303
-8.20297e-303
-4.49823e-303
-1.06559e-302
-4.72378e-303
-1.26017e-302
-4.95566e-303
-1.40302e-302
-5.22581e-303
-1.49777e-302
-5.53944e-303
-1.54953e-302
-5.87489e-303
-1.5624e-302
-6.18654e-303
-1.53802e-302
-6.41213e-303
-1.47579e-302
-6.48512e-303
-1.37501e-302
-6.35289e-303
-1.23845e-302
-5.99609e-303
-1.07486e-302
-5.4374e-303
-8.97807e-303
-4.7339e-303
-7.21997e-303
-3.95884e-303
-5.59747e-303
-3.18292e-303
-4.19078e-303
-2.46119e-303
-3.03457e-303
-1.82736e-303
-2.126e-303
-1.2939e-303
-1.43678e-303
-8.555e-304
-9.24346e-304
-5.40538e-304
-4.97827e-304
-1.66635e-303
-1.06068e-303
-2.16655e-303
-3.00893e-303
-2.47446e-303
-4.78715e-303
-2.68559e-303
-6.36341e-303
-2.85271e-303
-7.66487e-303
-3.00623e-303
-8.65705e-303
-3.16572e-303
-9.34164e-303
-3.33888e-303
-9.738e-303
-3.51957e-303
-9.86656e-303
-3.68762e-303
-9.73941e-303
-3.8116e-303
-9.36044e-303
-3.85523e-303
-8.73597e-303
-3.78766e-303
-7.89102e-303
-3.59446e-303
-6.88032e-303
-3.28365e-303
-5.78302e-303
-2.88335e-303
-4.6853e-303
-2.43314e-303
-3.66186e-303
-1.9738e-303
-2.76425e-303
-1.53909e-303
-2.01761e-303
-1.15129e-303
-1.42394e-303
-8.20166e-304
-9.68399e-304
-5.44232e-304
-6.25791e-304
-3.66027e-304
-3.15972e-304
-9.03911e-304
-5.68215e-304
-1.20503e-303
-1.68501e-303
-1.40473e-303
-2.75292e-303
-1.55042e-303
-3.73735e-303
-1.66708e-303
-4.57996e-303
-1.76907e-303
-5.24459e-303
-1.86699e-303
-5.71951e-303
-1.96669e-303
-6.00795e-303
-2.06731e-303
-6.11829e-303
-2.16013e-303
-6.05807e-303
-2.22944e-303
-5.83331e-303
-2.25581e-303
-5.45315e-303
-2.22169e-303
-4.93715e-303
-2.1176e-303
-4.31984e-303
-1.94596e-303
-3.64808e-303
-1.72059e-303
-2.97252e-303
-1.4627e-303
-2.33796e-303
-1.19535e-303
-1.77648e-303
-9.38625e-304
-1.30502e-303
-7.06535e-304
-9.26559e-304
-5.05895e-304
-6.33361e-304
-3.36616e-304
-4.10662e-304
-2.39978e-304
-1.94798e-304
-4.79067e-304
-3.01615e-304
-6.52316e-304
-9.30657e-304
-7.74157e-304
-1.55747e-303
-8.67703e-304
-2.15567e-303
-9.44454e-304
-2.68452e-303
-1.01067e-303
-3.1147e-303
-1.07152e-303
-3.43186e-303
-1.13055e-303
-3.63248e-303
-1.18819e-303
-3.71862e-303
-1.24068e-303
-3.69432e-303
-1.28022e-303
-3.56474e-303
-1.2965e-303
-3.33796e-303
-1.27979e-303
-3.02802e-303
-1.22433e-303
-2.6566e-303
-1.13057e-303
-2.25159e-303
-1.0053e-303
-1.84272e-303
-8.5982e-304
-1.45653e-303
-7.06965e-304