/*--------------------------------*- C++ -*----------------------------------*\
| =========                 |                                                 |
| \\      /  F ield         | OpenFOAM: The Open Source CFD Toolbox           |
|  \\    /   O peration     | Version:  2406                                  |
|   \\  /    A nd           | Website:  www.openfoam.com                      |
|    \\/     M anipulation  |                                                 |
\*---------------------------------------------------------------------------*/
FoamFile
{
    version     2.0;
    format      ascii;
    arch        "LSB;label=32;scalar=64";
    class       volVectorField;
    location    "0.45";
    object      U;
}
// * * * * * * * * * * * * * * * * * * * * * * * * * * * * * * * * * * * * * //

dimensions      [0 1 -1 0 0 0 0];

internalField   nonuniform List<vector> 
2268
(
(-1.22792e-300 -3.65311e-301 0)
(-3.55643e-300 -1.58859e-300 0)
(-6.08904e-300 -2.11392e-300 0)
(-8.9146e-300 -2.22582e-300 0)
(-1.21711e-299 -1.82728e-300 0)
(-1.59427e-299 -6.58474e-301 0)
(-2.02388e-299 1.72178e-300 0)
(-2.49344e-299 6.00541e-300 0)
(-2.96246e-299 1.3324e-299 0)
(-3.31703e-299 2.56705e-299 0)
(-3.1568e-299 4.7037e-299 0)
(-7.56376e-300 8.25548e-299 0)
(1.58895e-298 1.59278e-298 0)
(-1.95251e-299 5.92544e-299 0)
(-7.09678e-299 7.3094e-300 0)
(-4.05399e-299 -7.68686e-300 0)
(-2.16369e-299 -7.12381e-300 0)
(-1.15038e-299 -4.44108e-300 0)
(-6.15711e-300 -2.26129e-300 0)
(-3.27347e-300 -9.1435e-301 0)
(-1.65974e-300 -2.02609e-301 0)
(-7.19832e-301 8.54007e-302 0)
(-1.1967e-301 7.39827e-302 0)
(-3.84532e-300 -7.69009e-301 0)
(-1.10604e-299 -3.79605e-300 0)
(-1.87076e-299 -5.22241e-300 0)
(-2.72488e-299 -5.37673e-300 0)
(-3.70555e-299 -3.94439e-300 0)
(-4.83522e-299 -1.62428e-301 0)
(-6.11383e-299 7.22257e-300 0)
(-7.50059e-299 2.01853e-299 0)
(-8.87411e-299 4.18048e-299 0)
(-9.92984e-299 7.71639e-299 0)
(-9.87972e-299 1.35315e-298 0)
(-6.40696e-299 2.349e-298 0)
(4.9483e-299 3.96467e-298 0)
(-7.94682e-299 1.2188e-298 0)
(-9.48422e-299 1.54939e-299 0)
(-5.77434e-299 -4.87524e-300 0)
(-3.35494e-299 -6.56644e-300 0)
(-1.91332e-299 -4.515e-300 0)
(-1.08667e-299 -2.37389e-300 0)
(-6.12132e-300 -9.01845e-301 0)
(-3.33767e-300 -5.41107e-302 0)
(-1.63783e-300 3.32949e-301 0)
(-4.19223e-301 3.06376e-301 0)
(-6.48531e-300 -1.30053e-300 0)
(-1.88686e-299 -5.86678e-300 0)
(-3.19887e-299 -8.12215e-300 0)
(-4.66357e-299 -8.2655e-300 0)
(-6.34514e-299 -5.72014e-300 0)
(-8.28569e-299 7.49612e-301 0)
(-1.04932e-298 1.31928e-299 0)
(-1.29165e-298 3.47447e-299 0)
(-1.53937e-298 7.0283e-299 0)
(-1.75412e-298 1.27556e-298 0)
(-1.8514e-298 2.19965e-298 0)
(-1.63086e-298 3.74101e-298 0)
(-9.87596e-299 6.08557e-298 0)
(-1.36561e-298 1.6379e-298 0)
(-1.12579e-298 2.32732e-299 0)
(-7.05798e-299 -1.24818e-300 0)
(-4.29116e-299 -5.03716e-300 0)
(-2.55661e-299 -3.91589e-300 0)
(-1.50983e-299 -2.10141e-300 0)
(-8.83366e-300 -6.99646e-301 0)
(-5.03965e-300 1.74325e-301 0)
(-2.65094e-300 6.18456e-301 0)
(-8.37993e-301 5.93851e-301 0)
(-9.30546e-300 -1.87024e-300 0)
(-2.73256e-299 -7.90579e-300 0)
(-4.64316e-299 -1.09618e-299 0)
(-6.77412e-299 -1.1045e-299 0)
(-9.21958e-299 -7.3179e-300 0)
(-1.20465e-298 1.94579e-300 0)
(-1.52807e-298 1.95029e-299 0)
(-1.88781e-298 4.96022e-299 0)
(-2.26738e-298 9.86592e-299 0)
(-2.62854e-298 1.76764e-298 0)
(-2.89618e-298 3.00562e-298 0)
(-2.91927e-298 5.00499e-298 0)
(-2.73401e-298 7.86279e-298 0)
(-1.93568e-298 1.98401e-298 0)
(-1.33051e-298 3.14746e-299 0)
(-8.41391e-299 2.40756e-300 0)
(-5.25125e-299 -3.30056e-300 0)
(-3.22754e-299 -3.1087e-300 0)
(-1.96625e-299 -1.69047e-300 0)
(-1.18816e-299 -4.21161e-301 0)
(-7.05126e-300 4.45044e-301 0)
(-3.93553e-300 9.47144e-301 0)
(-1.44829e-300 9.66486e-301 0)
(-1.24421e-299 -2.47912e-300 0)
(-3.6757e-299 -1.0042e-299 0)
(-6.25364e-299 -1.39152e-299 0)
(-9.12382e-299 -1.39306e-299 0)
(-1.24127e-298 -8.94884e-300 0)
(-1.62173e-298 3.19064e-300 0)
(-2.05894e-298 2.5961e-299 0)
(-2.55083e-298 6.455e-299 0)
(-3.08327e-298 1.26798e-298 0)
(-3.62269e-298 2.24633e-298 0)
(-4.10705e-298 3.77155e-298 0)
(-4.42247e-298 6.1602e-298 0)
(-4.65981e-298 9.4123e-298 0)
(-2.54477e-298 2.30571e-298 0)
(-1.57805e-298 3.97639e-299 0)
(-9.97841e-299 5.90454e-300 0)
(-6.32991e-299 -1.59427e-300 0)
(-3.98248e-299 -2.26713e-300 0)
(-2.48941e-299 -1.24676e-300 0)
(-1.54747e-299 -1.29834e-301 0)
(-9.51693e-300 7.13952e-301 0)
(-5.60982e-300 1.28205e-300 0)
(-2.33485e-300 1.40758e-300 0)
(-1.60181e-299 -3.14865e-300 0)
(-4.7483e-299 -1.238e-299 0)
(-8.08117e-299 -1.71538e-299 0)
(-1.1781e-298 -1.71136e-299 0)
(-1.60094e-298 -1.0848e-299 0)
(-2.08972e-298 4.27761e-300 0)
(-2.65298e-298 3.23345e-299 0)
(-3.29206e-298 7.94325e-299 0)
(-3.99714e-298 1.54523e-298 0)
(-4.74129e-298 2.71109e-298 0)
(-5.47474e-298 4.49871e-298 0)
(-6.10475e-298 7.23021e-298 0)
(-6.73555e-298 1.08414e-297 0)
(-3.21137e-298 2.6206e-298 0)
(-1.87005e-298 4.80718e-299 0)
(-1.18025e-298 9.26421e-300 0)
(-7.57456e-299 3.61106e-302 0)
(-4.85466e-299 -1.4487e-300 0)
(-3.10093e-299 -8.17581e-301 0)
(-1.97552e-299 1.33795e-301 0)
(-1.25409e-299 9.34871e-301 0)
(-7.78296e-300 1.55707e-300 0)
(-3.64708e-300 1.82911e-300 0)
(-2.01502e-299 -3.91394e-300 0)
(-5.98281e-299 -1.50306e-299 0)
(-1.01779e-298 -2.08388e-299 0)
(-1.48164e-298 -2.08227e-299 0)
(-2.00967e-298 -1.32449e-299 0)
(-2.61871e-298 4.92943e-300 0)
(-3.32113e-298 3.84044e-299 0)
(-4.12259e-298 9.40044e-299 0)
(-5.01857e-298 1.81714e-298 0)
(-5.9899e-298 3.16089e-298 0)
(-6.9979e-298 5.18988e-298 0)
(-7.96354e-298 8.23174e-298 0)
(-8.97048e-298 1.22177e-297 0)
(-3.94281e-298 2.93288e-298 0)
(-2.20496e-298 5.6464e-299 0)
(-1.39098e-298 1.25897e-299 0)
(-9.01576e-299 1.62406e-300 0)
(-5.86922e-299 -6.61084e-301 0)
(-3.81862e-299 -4.2512e-301 0)
(-2.48391e-299 3.39021e-301 0)
(-1.61959e-299 1.0568e-300 0)
(-1.053e-299 1.66517e-300 0)
(-5.64694e-300 1.97496e-300 0)
(-2.49494e-299 -4.83435e-300 0)
(-7.41252e-299 -1.80946e-299 0)
(-1.25981e-298 -2.51635e-299 0)
(-1.83033e-298 -2.5289e-299 0)
(-2.47649e-298 -1.64432e-299 0)
(-3.21907e-298 4.87177e-300 0)
(-4.07466e-298 4.38571e-299 0)
(-5.05361e-298 1.08066e-298 0)
(-6.15745e-298 2.08185e-298 0)
(-7.37526e-298 3.59639e-298 0)
(-8.67996e-298 5.84814e-298 0)
(-1.00118e-297 9.17081e-298 0)
(-1.14036e-297 1.35244e-297 0)
(-4.73762e-298 3.23308e-298 0)
(-2.57761e-298 6.50278e-299 0)
(-1.6289e-298 1.60315e-299 0)
(-1.06583e-298 3.24547e-300 0)
(-7.03399e-299 1.1879e-301 0)
(-4.64832e-299 -7.31406e-302 0)
(-3.07457e-299 4.66595e-301 0)
(-2.04411e-299 1.03546e-300 0)
(-1.37349e-299 1.45197e-300 0)
(-8.79978e-300 1.24455e-300 0)
(-4.14249e-305 -1.30342e-304 0)
(-2.8377e-304 -1.13007e-303 0)
(-1.23308e-304 -9.7596e-304 0)
(-1.24646e-304 -4.76037e-304 0)
(-1.37579e-304 -1.71138e-304 0)
(-1.11128e-304 -4.69468e-305 0)
(-7.11285e-305 -8.00907e-306 0)
(-3.88305e-305 1.00494e-306 0)
(-1.88878e-305 1.82382e-306 0)
(-8.39739e-306 1.15698e-306 0)
(-3.46356e-306 5.76651e-307 0)
(-1.33594e-306 2.55982e-307 0)
(-4.83151e-307 1.05658e-307 0)
(-1.63408e-307 4.11368e-308 0)
(-5.11995e-308 1.50673e-308 0)
(-1.4549e-308 5.10195e-309 0)
(-3.57094e-309 1.53486e-309 0)
(-6.53926e-310 3.61823e-310 0)
(-3.4318e-311 3.18652e-311 0)
(-1.03807e-305 -6.70959e-304 0)
(-7.76949e-304 -3.15155e-303 0)
(-6.52608e-304 -2.4069e-303 0)
(-6.32986e-304 -1.13761e-303 0)
(-5.27152e-304 -4.00772e-304 0)
(-3.63781e-304 -1.02464e-304 0)
(-2.15998e-304 -1.01055e-305 0)
(-1.14332e-304 9.12073e-306 0)
(-5.528e-305 8.55827e-306 0)
(-2.47998e-305 5.06717e-306 0)
(-1.04228e-305 2.51873e-306 0)
(-4.12519e-306 1.13315e-306 0)
(-1.53968e-306 4.75521e-307 0)
(-5.40479e-307 1.88367e-307 0)
(-1.76955e-307 7.04733e-308 0)
(-5.30557e-308 2.46617e-308 0)
(-1.39741e-308 7.87681e-309 0)
(-2.85963e-309 2.12512e-309 0)
(-1.78995e-310 2.81167e-310 0)
(-1.17491e-305 -2.03987e-303 0)
(-1.79124e-303 -6.6007e-303 0)
(-1.81527e-303 -4.49414e-303 0)
(-1.65979e-303 -2.0125e-303 0)
(-1.24397e-303 -6.82562e-304 0)
(-7.95756e-304 -1.62845e-304 0)
(-4.51527e-304 -6.67657e-306 0)
(-2.33445e-304 2.28918e-305 0)
(-1.11905e-304 1.90796e-305 0)
(-5.02892e-305 1.1126e-305 0)
(-2.13297e-305 5.56474e-306 0)
(-8.56812e-306 2.53826e-306 0)
(-3.26134e-306 1.08374e-306 0)
(-1.17291e-306 4.3793e-307 0)
(-3.95496e-307 1.67765e-307 0)
(-1.22999e-307 6.0539e-308 0)
(-3.40113e-308 2.02285e-308 0)
(-7.5035e-309 5.90934e-309 0)
(-5.77798e-310 9.58193e-310 0)
(-4.22891e-304 -5.70047e-303 0)
(-4.1915e-303 -1.30802e-302 0)
(-4.42807e-303 -7.8996e-303 0)
(-3.7518e-303 -3.31616e-303 0)
(-2.60415e-303 -1.07442e-303 0)
(-1.57652e-303 -2.38238e-304 0)
(-8.64001e-304 4.00587e-306 0)
(-4.38223e-304 4.55333e-305 0)
(-2.08448e-304 3.57433e-305 0)
(-9.37361e-305 2.07128e-305 0)
(-4.00357e-305 1.0438e-305 0)
(-1.62761e-305 4.82492e-306 0)
(-6.29679e-306 2.09439e-306 0)
(-2.31107e-306 8.62684e-307 0)
(-7.98838e-307 3.37988e-307 0)
(-2.56181e-307 1.2543e-307 0)
(-7.37519e-308 4.35711e-308 0)
(-1.72873e-308 1.35631e-308 0)
(-1.56946e-309 2.55205e-309 0)
(-2.81621e-303 -1.54309e-302 0)
(-9.90162e-303 -2.50021e-302 0)
(-1.01036e-302 -1.33537e-302 0)
(-7.86393e-303 -5.24347e-303 0)
(-5.11244e-303 -1.62428e-303 0)
(-2.96157e-303 -3.36647e-304 0)
(-1.57969e-303 2.38572e-305 0)
(-7.89693e-304 8.03103e-305 0)
(-3.73677e-304 6.10532e-305 0)
(-1.68325e-304 3.53779e-305 0)
(-7.24007e-305 1.79975e-305 0)
(-2.97685e-305 8.4351e-306 0)
(-1.16905e-305 3.72228e-306 0)
(-4.37085e-306 1.56215e-306 0)
(-1.54497e-306 6.25293e-307 0)
(-5.09208e-307 2.38148e-307 0)
(-1.5189e-307 8.56327e-308 0)
(-3.75159e-308 2.81352e-308 0)
(-3.90853e-309 5.99556e-309 0)
(-1.30228e-302 -4.1376e-302 0)
(-2.35056e-302 -4.59316e-302 0)
(-2.18711e-302 -2.16216e-302 0)
(-1.55654e-302 -7.96386e-303 0)
(-9.54268e-303 -2.37387e-303 0)
(-5.33017e-303 -4.66081e-304 0)
(-2.78391e-303 5.43136e-305 0)
(-1.3775e-303 1.30395e-304 0)
(-6.502e-304 9.76429e-305 0)
(-2.93847e-304 5.68438e-305 0)
(-1.2737e-304 2.92401e-305 0)
(-5.29658e-305 1.39009e-305 0)
(-2.1103e-305 6.2347e-306 0)
(-8.02873e-306 2.664e-306 0)
(-2.89739e-306 1.08807e-306 0)
(-9.79196e-307 4.24382e-307 0)
(-3.01627e-307 1.57379e-307 0)
(-7.80882e-308 5.41901e-308 0)
(-9.20586e-309 1.29307e-308 0)
(-5.09762e-302 -1.08174e-301 0)
(-5.58862e-302 -8.00281e-302 0)
(-4.5196e-302 -3.32927e-302 0)
(-2.93443e-302 -1.16051e-302 0)
(-1.70715e-302 -3.36592e-303 0)
(-9.25665e-303 -6.38231e-304 0)
(-4.76012e-303 9.53997e-305 0)
(-2.34078e-303 1.9891e-304 0)
(-1.10526e-303 1.48523e-304 0)
(-5.02088e-304 8.72192e-305 0)
(-2.19575e-304 4.54398e-305 0)
(-9.24029e-305 2.19241e-305 0)
(-3.73558e-305 9.99272e-306 0)
(-1.44575e-305 4.34405e-306 0)
(-5.32238e-306 1.8079e-306 0)
(-1.84175e-306 7.20421e-307 0)
(-5.84417e-307 2.74333e-307 0)
(-1.57777e-307 9.8015e-308 0)
(-2.0813e-308 2.56029e-308 0)
(-1.72275e-301 -2.89651e-301 0)
(-1.30867e-301 -1.28179e-301 0)
(-8.75746e-302 -4.79782e-302 0)
(-5.21923e-302 -1.6151e-302 0)
(-2.90707e-302 -4.63779e-303 0)
(-1.54131e-302 -8.74748e-304 0)
(-7.84414e-303 1.39416e-304 0)
(-3.84678e-303 2.84534e-304 0)
(-1.82093e-303 2.14442e-304 0)
(-8.32472e-304 1.27544e-304 0)
(-3.67474e-304 6.73939e-305 0)
(-1.56471e-304 3.30023e-305 0)
(-6.41381e-305 1.52726e-305 0)
(-2.52187e-305 6.74348e-306 0)
(-9.45261e-306 2.85223e-306 0)
(-3.34002e-306 1.15652e-306 0)
(-1.08745e-306 4.49117e-307 0)
(-3.04405e-307 1.64179e-307 0)
(-4.51511e-308 4.53987e-308 0)
(-3.34011e-299 -6.57965e-300 0)
(-9.93036e-299 -2.3584e-299 0)
(-1.68506e-298 -3.30387e-299 0)
(-2.44092e-298 -3.37282e-299 0)
(-3.29049e-298 -2.30604e-299 0)
(-4.26106e-298 3.07402e-300 0)
(-5.37607e-298 5.07094e-299 0)
(-6.65383e-298 1.28231e-298 0)
(-8.10567e-298 2.4732e-298 0)
(-9.7342e-298 4.24066e-298 0)
(-1.15314e-297 6.81077e-298 0)
(-1.34749e-297 1.04973e-297 0)
(-1.55668e-297 1.51467e-297 0)
(-6.05369e-298 3.65694e-298 0)
(-3.19587e-298 7.88035e-299 0)
(-2.02707e-298 2.19108e-299 0)
(-1.34263e-298 6.06566e-300 0)
(-9.00643e-299 1.47655e-300 0)
(-6.05752e-299 5.08179e-301 0)
(-4.07513e-299 6.01727e-301 0)
(-2.74671e-299 8.1925e-301 0)
(-1.8595e-299 7.46907e-301 0)
(-1.24961e-299 1.31192e-302 0)
(-4.54636e-299 -9.52684e-300 0)
(-1.35179e-298 -3.24403e-299 0)
(-2.29103e-298 -4.63357e-299 0)
(-3.31182e-298 -4.92434e-299 0)
(-4.4535e-298 -3.79026e-299 0)
(-5.75318e-298 -7.41501e-300 0)
(-7.24492e-298 4.89754e-299 0)
(-8.95868e-298 1.40442e-298 0)
(-1.09195e-297 2.79049e-298 0)
(-1.31468e-297 4.80742e-298 0)
(-1.56534e-297 7.66323e-298 0)
(-1.84481e-297 1.16208e-297 0)
(-2.15072e-297 1.64117e-297 0)
(-7.95954e-298 4.04579e-298 0)
(-4.07045e-298 9.41653e-299 0)
(-2.57049e-298 2.92313e-299 0)
(-1.71019e-298 9.86916e-300 0)
(-1.15706e-298 3.40778e-300 0)
(-7.85479e-299 1.34011e-300 0)
(-5.31895e-299 7.4809e-301 0)
(-3.57655e-299 4.99006e-301 0)
(-2.36449e-299 1.20973e-301 0)
(-1.48357e-299 -5.71462e-301 0)
(-5.80906e-299 -1.3434e-299 0)
(-1.72375e-298 -4.41901e-299 0)
(-2.91735e-298 -6.4567e-299 0)
(-4.21069e-298 -7.19366e-299 0)
(-5.6532e-298 -6.2351e-299 0)
(-7.29242e-298 -3.03324e-299 0)
(-9.17306e-298 3.14983e-299 0)
(-1.13363e-297 1.32622e-298 0)
(-1.3819e-297 2.85155e-298 0)
(-1.66531e-297 5.04071e-298 0)
(-1.98646e-297 8.07829e-298 0)
(-2.34778e-297 1.21721e-297 0)
(-2.74427e-297 1.69752e-297 0)
(-9.94164e-298 4.26134e-298 0)
(-4.98452e-298 1.04134e-298 0)
(-3.12359e-298 3.43359e-299 0)
(-2.0746e-298 1.26883e-299 0)
(-1.4053e-298 4.91179e-300 0)
(-9.55726e-299 2.01828e-300 0)
(-6.47174e-299 9.02809e-301 0)
(-4.32912e-299 3.4897e-301 0)
(-2.82001e-299 -1.16041e-301 0)
(-1.72518e-299 -5.91741e-301 0)
(-7.14044e-299 -1.88353e-299 0)
(-2.11103e-298 -6.04729e-299 0)
(-3.5662e-298 -9.03966e-299 0)
(-5.1386e-298 -1.05297e-298 0)
(-6.8884e-298 -1.00649e-298 0)
(-8.87372e-298 -7.03615e-299 0)
(-1.11497e-297 -6.68345e-300 0)
(-1.37677e-297 1.00152e-298 0)
(-1.67741e-297 2.61939e-298 0)
(-2.02099e-297 4.92744e-298 0)
(-2.41089e-297 8.08645e-298 0)
(-2.85024e-297 1.22627e-297 0)
(-3.33246e-297 1.706e-297 0)
(-1.19844e-297 4.34923e-298 0)
(-5.94032e-298 1.0911e-298 0)
(-3.69433e-298 3.69892e-299 0)
(-2.44413e-298 1.42432e-299 0)
(-1.6525e-298 5.7997e-300 0)
(-1.12246e-298 2.45863e-300 0)
(-7.58641e-299 1.05681e-300 0)
(-5.05492e-299 3.61902e-301 0)
(-3.27091e-299 -9.46413e-302 0)
(-1.98764e-299 -4.18669e-301 0)
(-8.55108e-299 -2.63462e-299 0)
(-2.51565e-298 -8.31541e-299 0)
(-4.23994e-298 -1.26809e-298 0)
(-6.09767e-298 -1.53359e-298 0)
(-8.16042e-298 -1.57607e-298 0)
(-1.04971e-297 -1.32973e-298 0)
(-1.31732e-297 -7.1217e-299 0)
(-1.62493e-297 3.75278e-299 0)
(-1.978e-297 2.04962e-298 0)
(-2.3813e-297 4.44261e-298 0)
(-2.83875e-297 7.69974e-298 0)
(-3.35386e-297 1.19579e-297 0)
(-3.91942e-297 1.67944e-297 0)
(-1.40876e-297 4.33823e-298 0)
(-6.93692e-298 1.096e-298 0)
(-4.28585e-298 3.71884e-299 0)
(-2.82327e-298 1.44037e-299 0)
(-1.90321e-298 5.934e-300 0)
(-1.28979e-298 2.55023e-300 0)
(-8.69774e-299 1.11731e-300 0)
(-5.78025e-299 4.30526e-301 0)
(-3.72981e-299 3.39491e-302 0)
(-2.26405e-299 -1.9885e-301 0)
(-1.00518e-298 -3.66981e-299 0)
(-2.93958e-298 -1.14382e-298 0)
(-4.94114e-298 -1.7733e-298 0)
(-7.09099e-298 -2.20804e-298 0)
(-9.47298e-298 -2.38966e-298 0)
(-1.21676e-297 -2.24567e-298 0)
(-1.52506e-297 -1.68979e-298 0)
(-1.87917e-297 -6.1956e-299 0)
(-2.28529e-297 1.08124e-298 0)
(-2.74878e-297 3.5419e-298 0)
(-3.27401e-297 6.89837e-298 0)
(-3.86482e-297 1.12741e-297 0)
(-4.51391e-297 1.623e-297 0)
(-1.62636e-297 4.2371e-298 0)
(-7.97518e-298 1.05586e-298 0)
(-4.89974e-298 3.47615e-299 0)
(-3.21436e-298 1.29742e-299 0)
(-2.16002e-298 5.1343e-300 0)
(-1.46012e-298 2.13683e-300 0)
(-9.82508e-299 9.45644e-301 0)
(-6.51724e-299 4.23145e-301 0)
(-4.19989e-299 1.48595e-301 0)
(-2.55002e-299 -2.89489e-303 0)
(-1.16526e-298 -5.07551e-299 0)
(-3.38422e-298 -1.56731e-298 0)
(-5.6716e-298 -2.46099e-298 0)
(-8.12106e-298 -3.13262e-298 0)
(-1.08303e-297 -3.51502e-298 0)
(-1.38924e-297 -3.52941e-298 0)
(-1.73942e-297 -3.08278e-298 0)
(-2.14147e-297 -2.06907e-298 0)
(-2.60234e-297 -3.67651e-299 0)
(-3.12794e-297 2.15143e-298 0)
(-3.7231e-297 5.62548e-298 0)
(-4.39196e-297 1.01745e-297 0)
(-5.12747e-297 1.53537e-297 0)
(-1.85347e-297 4.03374e-298 0)
(-9.05886e-298 9.62578e-299 0)
(-5.53759e-298 2.91539e-299 0)
(-3.61874e-298 9.55734e-300 0)
(-2.42429e-298 3.10566e-300 0)
(-1.63469e-298 9.92982e-301 0)
(-1.09777e-298 3.64088e-301 0)
(-7.27092e-299 1.97759e-301 0)
(-4.68176e-299 1.44379e-301 0)
(-2.84355e-299 1.14968e-301 0)
(-1.33582e-298 -6.95729e-299 0)
(-3.84917e-298 -2.13258e-298 0)
(-6.43014e-298 -3.38132e-298 0)
(-9.18695e-298 -4.3741e-298 0)
(-1.22332e-297 -5.03437e-298 0)
(-1.56766e-297 -5.27404e-298 0)
(-1.96161e-297 -4.99396e-298 0)
(-2.41409e-297 -4.0804e-298 0)
(-2.93281e-297 -2.40716e-298 0)
(-3.52428e-297 1.64457e-299 0)
(-4.19376e-297 3.77932e-298 0)
(-4.94573e-297 8.56842e-298 0)
(-5.7734e-297 1.4086e-297 0)
(-2.09302e-297 3.69406e-298 0)
(-1.01939e-297 7.98631e-299 0)
(-6.20112e-298 1.93114e-299 0)
(-4.03709e-298 3.47556e-300 0)
(-2.69645e-298 -6.0454e-301 0)
(-1.81385e-298 -1.19293e-300 0)
(-1.21582e-298 -8.47119e-301 0)
(-8.04202e-299 -4.00763e-301 0)
(-5.17462e-299 -8.12877e-302 0)
(-3.14337e-299 1.00114e-301 0)
(-1.51626e-298 -9.443e-299 0)
(-4.33008e-298 -2.87698e-298 0)
(-7.20936e-298 -4.59418e-298 0)
(-1.02796e-297 -6.01357e-298 0)
(-1.36738e-297 -7.04532e-298 0)
(-1.75164e-297 -7.59244e-298 0)
(-2.19208e-297 -7.54655e-298 0)
(-2.69869e-297 -6.78708e-298 0)
(-3.28005e-297 -5.17674e-298 0)
(-3.94324e-297 -2.56512e-298 0)
(-4.69399e-297 1.21157e-298 0)
(-5.53708e-297 6.30481e-298 0)
(-6.46581e-297 1.2279e-297 0)
(-2.34838e-297 3.15881e-298 0)
(-1.13866e-297 5.35513e-299 0)
(-6.89148e-298 3.59727e-300 0)
(-4.46922e-298 -6.27266e-300 0)
(-2.97609e-298 -6.62642e-300 0)
(-1.99724e-298 -4.82482e-300 0)
(-1.33633e-298 -2.95052e-300 0)
(-8.82792e-299 -1.54285e-300 0)
(-5.67621e-299 -6.34337e-301 0)
(-3.44783e-299 -1.05359e-301 0)
(-1.70388e-298 -1.26926e-298 0)
(-4.81582e-298 -3.84579e-298 0)
(-7.99058e-298 -6.17303e-298 0)
(-1.13756e-297 -8.14779e-298 0)
(-1.51274e-297 -9.66555e-298 0)
(-1.93909e-297 -1.06175e-297 0)
(-2.42955e-297 -1.08884e-297 0)
(-2.99535e-297 -1.03483e-297 0)
(-3.64593e-297 -8.84941e-298 0)
(-4.38901e-297 -6.22211e-298 0)
(-5.23075e-297 -2.27829e-298 0)
(-6.17629e-297 3.17004e-298 0)
(-7.21838e-297 9.70552e-298 0)
(-2.62283e-297 2.33889e-298 0)
(-1.26418e-297 1.32032e-299 0)
(-7.60821e-298 -2.02649e-299 0)
(-4.91365e-298 -2.10234e-299 0)
(-3.26182e-298 -1.57603e-299 0)
(-2.18377e-298 -1.03872e-299 0)
(-1.45853e-298 -6.24186e-300 0)
(-9.62292e-299 -3.40903e-300 0)
(-6.18253e-299 -1.62213e-300 0)
(-3.75441e-299 -5.60225e-301 0)
(-1.89271e-298 -1.69066e-298 0)
(-5.28386e-298 -5.09577e-298 0)
(-8.73722e-298 -8.20727e-298 0)
(-1.24282e-297 -1.08947e-297 0)
(-1.65434e-297 -1.30338e-297 0)
(-2.1251e-297 -1.45064e-297 0)
(-2.66991e-297 -1.51905e-297 0)
(-3.30126e-297 -1.49513e-297 0)
(-4.02954e-297 -1.36282e-297 0)
(-4.86305e-297 -1.10324e-297 0)
(-5.80846e-297 -6.94069e-298 0)
(-6.87121e-297 -1.11876e-298 0)
(-8.04263e-297 6.05194e-298 0)
(-2.91899e-297 1.10955e-298 0)
(-1.39593e-297 -4.67125e-299 0)
(-8.34783e-298 -5.51886e-299 0)
(-5.36703e-298 -4.24001e-299 0)
(-3.55107e-298 -2.89255e-299 0)
(-2.37162e-298 -1.84046e-299 0)
(-1.58113e-298 -1.10231e-299 0)
(-1.04182e-298 -6.17409e-300 0)
(-6.68765e-299 -3.1448e-300 0)
(-4.05941e-299 -1.31882e-300 0)
(-2.07137e-298 -2.23489e-298 0)
(-5.69397e-298 -6.69867e-298 0)
(-9.38444e-298 -1.08094e-297 0)
(-1.33561e-297 -1.43969e-297 0)
(-1.78319e-297 -1.73159e-297 0)
(-2.30075e-297 -1.94399e-297 0)
(-2.90488e-297 -2.06489e-297 0)
(-3.60943e-297 -2.08065e-297 0)
(-4.42559e-297 -1.9746e-297 0)
(-5.36237e-297 -1.72553e-297 0)
(-6.42685e-297 -1.30756e-297 0)
(-7.62504e-297 -6.9101e-298 0)
(-8.94516e-297 9.08637e-299 0)
(-3.23771e-297 -6.94095e-299 0)
(-1.53302e-297 -1.33118e-298 0)
(-9.10225e-298 -1.04569e-298 0)
(-5.82355e-298 -7.2153e-299 0)
(-3.8399e-298 -4.70357e-299 0)
(-2.55812e-298 -2.93583e-299 0)
(-1.70232e-298 -1.75515e-299 0)
(-1.12013e-298 -9.97855e-300 0)
(-7.18316e-299 -5.28009e-300 0)
(-4.35749e-299 -2.42327e-300 0)
(-2.2201e-298 -2.93782e-298 0)
(-5.97702e-298 -8.7496e-298 0)
(-9.82453e-298 -1.41218e-297 0)
(-1.40266e-297 -1.88307e-297 0)
(-1.88498e-297 -2.27066e-297 0)
(-2.45159e-297 -2.5626e-297 0)
(-3.12074e-297 -2.74801e-297 0)
(-3.90717e-297 -2.81458e-297 0)
(-4.8229e-297 -2.74545e-297 0)
(-5.87751e-297 -2.5179e-297 0)
(-7.07875e-297 -2.10191e-297 0)
(-8.43331e-297 -1.46131e-297 0)
(-9.92442e-297 -6.22348e-298 0)
(-3.57668e-297 -3.27646e-298 0)
(-1.67324e-297 -2.53867e-298 0)
(-9.85737e-298 -1.71816e-298 0)
(-6.27443e-298 -1.11803e-298 0)
(-4.12272e-298 -7.07652e-299 0)
(-2.73959e-298 -4.35464e-299 0)
(-1.81957e-298 -2.59621e-299 0)
(-1.19547e-298 -1.48877e-299 0)
(-7.65705e-299 -8.06269e-300 0)
(-4.64093e-299 -3.89362e-300 0)
(-2.30458e-298 -3.85236e-298 0)
(-6.01587e-298 -1.13785e-297 0)
(-9.88199e-298 -1.83325e-297 0)
(-1.42338e-297 -2.44146e-297 0)
(-1.93813e-297 -2.94377e-297 0)
(-2.55647e-297 -3.32967e-297 0)
(-3.29711e-297 -3.59198e-297 0)
(-4.17515e-297 -3.72114e-297 0)
(-5.20295e-297 -3.70182e-297 0)
(-6.39094e-297 -3.51013e-297 0)
(-7.74757e-297 -3.11295e-297 0)
(-9.28095e-297 -2.46725e-297 0)
(-1.09666e-296 -1.59163e-297 0)
(-3.9286e-297 -6.86831e-298 0)
(-1.81255e-297 -4.16378e-298 0)
(-1.05916e-297 -2.59328e-298 0)
(-6.70722e-298 -1.61996e-298 0)
(-4.39178e-298 -1.00181e-298 0)
(-2.91079e-298 -6.08888e-299 0)
(-1.9292e-298 -3.6169e-299 0)
(-1.26522e-298 -2.08429e-299 0)
(-8.09136e-299 -1.14607e-299 0)
(-4.89816e-299 -5.71667e-300 0)
(-2.26207e-298 -5.06338e-298 0)
(-5.60573e-298 -1.47745e-297 0)
(-9.27205e-298 -2.3694e-297 0)
(-1.36652e-297 -3.14248e-297 0)
(-1.91194e-297 -3.7779e-297 0)
(-2.58628e-297 -4.27098e-297 0)
(-3.40656e-297 -4.62123e-297 0)
(-4.38676e-297 -4.82495e-297 0)
(-5.53942e-297 -4.86953e-297 0)
(-6.87579e-297 -4.73161e-297 0)
(-8.40576e-297 -4.37559e-297 0)
(-1.01394e-296 -3.75368e-297 0)
(-1.20424e-296 -2.87654e-297 0)
(-4.27852e-297 -1.16887e-297 0)
(-1.94442e-297 -6.2455e-298 0)
(-1.12733e-297 -3.66632e-298 0)
(-7.10396e-298 -2.21516e-298 0)
(-4.63537e-298 -1.34266e-298 0)
(-3.06354e-298 -8.07076e-299 0)
(-2.02538e-298 -4.7766e-299 0)
(-1.3253e-298 -2.76167e-299 0)
(-8.45854e-299 -1.53538e-299 0)
(-5.1118e-299 -7.83505e-300 0)
(-1.95952e-298 -6.72283e-298 0)
(-4.36833e-298 -1.9224e-297 0)
(-7.52492e-298 -3.05561e-297 0)
(-1.18582e-297 -4.02065e-297 0)
(-1.76473e-297 -4.80429e-297 0)
(-2.50411e-297 -5.4136e-297 0)
(-3.41509e-297 -5.86033e-297 0)
(-4.50911e-297 -6.14922e-297 0)
(-5.79855e-297 -6.27274e-297 0)
(-7.29631e-297 -6.20857e-297 0)
(-9.01422e-297 -5.9209e-297 0)
(-1.09656e-296 -5.35999e-297 0)
(-1.31043e-296 -4.53209e-297 0)
(-4.5986e-297 -1.78541e-297 0)
(-2.05858e-297 -8.72715e-298 0)
(-1.18542e-297 -4.87479e-298 0)
(-7.43566e-298 -2.86069e-298 0)
(-4.83382e-298 -1.70451e-298 0)
(-3.18405e-298 -1.0156e-298 0)
(-2.09858e-298 -5.9966e-299 0)
(-1.36932e-298 -3.47867e-299 0)
(-8.71744e-299 -1.95202e-299 0)
(-5.2569e-299 -1.01387e-299 0)
(-1.04341e-298 -9.11885e-298 0)
(-1.54914e-298 -2.51803e-297 0)
(-3.85373e-298 -3.94012e-297 0)
(-8.14676e-298 -5.1185e-297 0)
(-1.44389e-297 -6.05697e-297 0)
(-2.26724e-297 -6.78488e-297 0)
(-3.28502e-297 -7.33183e-297 0)
(-4.50525e-297 -7.71479e-297 0)
(-5.94164e-297 -7.93183e-297 0)
(-7.6099e-297 -7.96275e-297 0)
(-9.52483e-297 -7.77206e-297 0)
(-1.17033e-296 -7.314e-297 0)
(-1.40882e-296 -6.59758e-297 0)
(-4.83383e-297 -2.51602e-297 0)
(-2.13801e-297 -1.13479e-297 0)
(-1.22506e-297 -6.06195e-298 0)
(-7.6496e-298 -3.47326e-298 0)
(-4.95193e-298 -2.0446e-298 0)
(-3.24914e-298 -1.21248e-298 0)
(-2.13393e-298 -7.16243e-299 0)
(-1.38801e-298 -4.17462e-299 0)
(-8.8121e-299 -2.36361e-299 0)
(-5.30124e-299 -1.24607e-299 0)
(1.68588e-298 -1.27866e-297 0)
(4.46352e-298 -3.3346e-297 0)
(3.05794e-298 -5.0862e-297 0)
(-1.6321e-298 -6.48334e-297 0)
(-8.90357e-298 -7.56959e-297 0)
(-1.83352e-297 -8.40868e-297 0)
(-2.98009e-297 -9.05458e-297 0)
(-4.33858e-297 -9.5379e-297 0)
(-5.92855e-297 -9.86287e-297 0)
(-7.77192e-297 -1.00093e-296 0)
(-9.88636e-297 -9.94205e-297 0)
(-1.22892e-296 -9.62393e-297 0)
(-1.49201e-296 -9.08234e-297 0)
(-4.86329e-297 -3.25045e-297 0)
(-2.15355e-297 -1.34819e-297 0)
(-1.23026e-297 -6.95378e-298 0)
(-7.64737e-298 -3.93394e-298 0)
(-4.93033e-298 -2.30878e-298 0)
(-3.22398e-298 -1.37135e-298 0)
(-2.11139e-298 -8.13752e-299 0)
(-1.36999e-298 -4.77567e-299 0)
(-8.67879e-299 -2.72943e-299 0)
(-5.21037e-299 -1.45816e-299 0)
(1.07921e-297 -1.77632e-297 0)
(1.71931e-297 -4.47763e-297 0)
(1.51998e-297 -6.57318e-297 0)
(8.65477e-298 -8.16628e-297 0)
(-5.91287e-299 -9.37444e-297 0)
(-1.177e-297 -1.03071e-296 0)
(-2.47559e-297 -1.10453e-296 0)
(-3.97779e-297 -1.16342e-296 0)
(-5.7211e-297 -1.20816e-296 0)
(-7.74061e-297 -1.23641e-296 0)
(-1.00562e-296 -1.24394e-296 0)
(-1.26683e-296 -1.22762e-296 0)
(-1.55097e-296 -1.19344e-296 0)
(-4.48479e-297 -3.55033e-297 0)
(-2.04196e-297 -1.38613e-297 0)
(-1.16648e-297 -7.20044e-298 0)
(-7.26149e-298 -4.12521e-298 0)
(-4.6876e-298 -2.44733e-298 0)
(-3.06863e-298 -1.46742e-298 0)
(-2.01101e-298 -8.78611e-299 0)
(-1.30515e-298 -5.20414e-299 0)
(-8.26625e-299 -3.00457e-299 0)
(-4.95874e-299 -1.62493e-299 0)
(4.19158e-297 -2.65053e-297 0)
(4.09073e-297 -5.92154e-297 0)
(3.33273e-297 -8.32481e-297 0)
(2.23863e-297 -1.0084e-296 0)
(9.94531e-298 -1.13958e-296 0)
(-3.43094e-298 -1.24131e-296 0)
(-1.79599e-297 -1.32427e-296 0)
(-3.42594e-297 -1.39418e-296 0)
(-5.30683e-297 -1.45212e-296 0)
(-7.50108e-297 -1.49519e-296 0)
(-1.00339e-296 -1.51825e-296 0)
(-1.28546e-296 -1.51529e-296 0)
(-5.99969e-297 -5.77203e-297 0)
(-2.78494e-297 -2.39352e-297 0)
(-1.58846e-297 -1.19944e-297 0)
(-9.81236e-298 -6.7655e-298 0)
(-6.33571e-298 -4.01995e-298 0)
(-4.17227e-298 -2.43692e-298 0)
(-2.76462e-298 -1.48415e-298 0)
(-1.82589e-298 -9.00098e-299 0)
(-1.19093e-298 -5.39292e-299 0)
(-7.56568e-299 -3.14804e-299 0)
(-4.54412e-299 -1.72238e-299 0)
(2.13738e-297 -1.84835e-297 0)
(1.46507e-297 -3.09031e-297 0)
(1.04401e-297 -3.7582e-297 0)
(6.13175e-298 -4.22231e-297 0)
(1.75882e-298 -4.56243e-297 0)
(-2.84113e-298 -4.81651e-297 0)
(-7.90341e-298 -5.00912e-297 0)
(-1.37002e-297 -5.15069e-297 0)
(-2.04242e-297 -5.23263e-297 0)
(-2.79354e-297 -5.21569e-297 0)
(-3.5125e-297 -4.99994e-297 0)
(-3.74585e-297 -4.44584e-297 0)
(-2.47138e-297 -2.74026e-297 0)
(-1.64011e-297 -1.6136e-297 0)
(-1.1055e-297 -9.61486e-298 0)
(-7.49637e-298 -5.88561e-298 0)
(-5.10384e-298 -3.65584e-298 0)
(-3.47276e-298 -2.27997e-298 0)
(-2.35055e-298 -1.41744e-298 0)
(-1.57472e-298 -8.73707e-299 0)
(-1.03709e-298 -5.30661e-299 0)
(-6.6303e-299 -3.1351e-299 0)
(-3.99577e-299 -1.73466e-299 0)
(2.01222e-298 -1.21744e-297 0)
(1.15096e-298 -1.6857e-297 0)
(6.93106e-299 -1.89293e-297 0)
(-1.76148e-299 -2.0625e-297 0)
(-1.38778e-298 -2.19366e-297 0)
(-2.9219e-298 -2.28737e-297 0)
(-4.79876e-298 -2.34799e-297 0)
(-7.03721e-298 -2.37863e-297 0)
(-9.58053e-298 -2.37861e-297 0)
(-1.21765e-297 -2.34128e-297 0)
(-1.42079e-297 -2.2515e-297 0)
(-1.44115e-297 -2.0668e-297 0)
(-1.23103e-297 -1.58714e-297 0)
(-9.75874e-298 -1.09959e-297 0)
(-7.37428e-298 -7.32638e-298 0)
(-5.39924e-298 -4.80812e-298 0)
(-3.87127e-298 -3.12513e-298 0)
(-2.73e-298 -2.01184e-298 0)
(-1.89494e-298 -1.2807e-298 0)
(-1.29249e-298 -8.04236e-299 0)
(-8.62166e-299 -4.95957e-299 0)
(-5.56058e-299 -2.96774e-299 0)
(-3.36786e-299 -1.65993e-299 0)
(-1.7949e-298 -6.30872e-298 0)
(-1.55255e-298 -9.7026e-298 0)
(-1.35795e-298 -1.12146e-297 0)
(-1.44018e-298 -1.22546e-297 0)
(-1.7949e-298 -1.29957e-297 0)
(-2.39316e-298 -1.34889e-297 0)
(-3.21674e-298 -1.3771e-297 0)
(-4.2375e-298 -1.38707e-297 0)
(-5.38274e-298 -1.3801e-297 0)
(-6.49385e-298 -1.35444e-297 0)
(-7.29964e-298 -1.30195e-297 0)
(-7.45486e-298 -1.19678e-297 0)
(-6.92601e-298 -9.90954e-298 0)
(-5.96798e-298 -7.51637e-298 0)
(-4.83992e-298 -5.39782e-298 0)
(-3.75076e-298 -3.74647e-298 0)
(-2.81001e-298 -2.53826e-298 0)
(-2.04889e-298 -1.68602e-298 0)
(-1.45856e-298 -1.09973e-298 0)
(-1.01398e-298 -7.04158e-299 0)
(-6.86024e-299 -4.41183e-299 0)
(-4.46929e-299 -2.67446e-299 0)
(-2.7228e-299 -1.51118e-299 0)
(-1.67427e-298 -3.20544e-298 0)
(-1.67253e-298 -5.63047e-298 0)
(-1.5444e-298 -6.87051e-298 0)
(-1.49661e-298 -7.66564e-298 0)
(-1.59354e-298 -8.19256e-298 0)
(-1.83758e-298 -8.52279e-298 0)
(-2.2177e-298 -8.69885e-298 0)
(-2.7088e-298 -8.75001e-298 0)
(-3.2605e-298 -8.69166e-298 0)
(-3.78651e-298 -8.51554e-298 0)
(-4.16782e-298 -8.16935e-298 0)
(-4.28822e-298 -7.52804e-298 0)
(-4.12138e-298 -6.4533e-298 0)
(-3.70889e-298 -5.15051e-298 0)
(-3.14611e-298 -3.88942e-298 0)
(-2.54116e-298 -2.81845e-298 0)
(-1.97231e-298 -1.978e-298 0)
(-1.48048e-298 -1.35183e-298 0)
(-1.07882e-298 -9.0238e-299 0)
(-7.63933e-299 -5.88844e-299 0)
(-5.24247e-299 -3.74722e-299 0)
(-3.45096e-299 -2.30028e-299 0)
(-2.11512e-299 -1.31176e-299 0)
(-1.13646e-298 -1.66203e-298 0)
(-1.26511e-298 -3.27144e-298 0)
(-1.24476e-298 -4.22084e-298 0)
(-1.21517e-298 -4.84642e-298 0)
(-1.24316e-298 -5.25749e-298 0)
(-1.34618e-298 -5.51211e-298 0)
(-1.52394e-298 -5.64819e-298 0)
(-1.7629e-298 -5.6916e-298 0)
(-2.03469e-298 -5.65588e-298 0)
(-2.29513e-298 -5.5367e-298 0)
(-2.48978e-298 -5.3035e-298 0)
(-2.56935e-298 -4.89832e-298 0)
(-2.51101e-298 -4.27915e-298 0)
(-2.31829e-298 -3.52337e-298 0)
(-2.02664e-298 -2.7541e-298 0)
(-1.68745e-298 -2.06196e-298 0)
(-1.34688e-298 -1.48939e-298 0)
(-1.03603e-298 -1.04332e-298 0)
(-7.70674e-299 -7.11115e-299 0)
(-5.55033e-299 -4.72234e-299 0)
(-3.86041e-299 -3.04922e-299 0)
(-2.56672e-299 -1.89375e-299 0)
(-1.58214e-299 -1.08853e-299 0)
(-7.0476e-299 -8.79602e-299 0)
(-8.49341e-299 -1.90053e-298 0)
(-8.81277e-299 -2.5793e-298 0)
(-8.81721e-299 -3.05367e-298 0)
(-8.9704e-299 -3.37528e-298 0)
(-9.4475e-299 -3.57955e-298 0)
(-1.02946e-298 -3.69356e-298 0)
(-1.14621e-298 -3.73689e-298 0)
(-1.28115e-298 -3.72012e-298 0)
(-1.41265e-298 -3.64175e-298 0)
(-1.51471e-298 -3.48587e-298 0)
(-1.56306e-298 -3.22682e-298 0)
(-1.54177e-298 -2.85222e-298 0)
(-1.44712e-298 -2.39649e-298 0)
(-1.292e-298 -1.91921e-298 0)
(-1.10046e-298 -1.47275e-298 0)