/*--------------------------------*- C++ -*----------------------------------*\
| =========                 |                                                 |
| \\      /  F ield         | OpenFOAM: The Open Source CFD Toolbox           |
|  \\    /   O peration     | Version:  2406                                  |
|   \\  /    A nd           | Website:  www.openfoam.com                      |
|    \\/     M anipulation  |                                                 |
\*---------------------------------------------------------------------------*/
FoamFile
{
    version     2.0;
    format      ascii;
    arch        "LSB;label=32;scalar=64";
    class       volScalarField;
    location    "0.85";
    object      epsilon;
}
// * * * * * * * * * * * * * * * * * * * * * * * * * * * * * * * * * * * * * //

dimensions      [0 2 -3 0 0 0 0];

internalField   nonuniform List<scalar> 
2268
(
3.11056
4.22461
4.22461
4.22461
4.22461
4.22461
4.22461
4.22461
4.22461
4.22461
4.22461
4.22461
4.22461
0.0823487
0.0157365
0.0248908
0.0316185
0.0354665
0.0365854
0.0346881
0.0291203
0.0190239
0.00437941
1.99652
3.53904
3.87395
3.99094
4.04704
4.07915
4.09939
4.11284
4.12192
4.12796
4.13166
4.13343
4.13343
0.0899676
0.0158922
0.0171118
0.0198398
0.0215525
0.0220047
0.0210239
0.0183471
0.0137307
0.00787037
1.99652
3.12319
3.57196
3.77087
3.87483
3.93634
3.9757
4.00204
4.01993
4.03183
4.03915
4.04265
4.04265
0.0938463
0.0191284
0.0177429
0.0193527
0.0205501
0.0208642
0.0201218
0.0181748
0.0150125
0.0129083
1.99652
2.85875
3.32579
3.572
3.71211
3.79847
3.85492
3.89313
3.91926
3.93673
3.9475
3.95264
3.95264
0.0996808
0.0223109
0.0193733
0.0203347
0.0212567
0.0215246
0.0209619
0.0195012
0.0172937
0.0178157
1.99652
2.68257
3.12893
3.39683
3.5614
3.66728
3.73821
3.78692
3.82053
3.84313
3.8571
3.86379
3.86379
0.105394
0.0252387
0.0211889
0.0216785
0.0224068
0.0226673
0.0222924
0.0213052
0.0200526
0.0230137
1.99652
2.55993
2.97193
3.24473
3.4238
3.5439
3.62646
3.68409
3.72426
3.75145
3.76833
3.77643
3.77643
0.11083
0.0279259
0.0229678
0.02307
0.0236423
0.0239162
0.0237458
0.0232796
0.0232451
0.0296024
1.99652
2.47111
2.84601
3.11357
3.29937
3.4289
3.52027
3.58515
3.63089
3.66207
3.68153
3.69088
3.69088
0.116037
0.0304022
0.0246134
0.0243641
0.0247965
0.0250915
0.02513
0.0252214
0.0268662
0.0410668
1.99652
2.40455
2.74408
3.00067
3.1875
3.32243
3.42001
3.4905
3.54077
3.57532
3.59698
3.60742
3.60742
0.121063
0.0326753
0.02606
0.0254669
0.0257631
0.0260757
0.0263009
0.0268822
0.0304352
0.0712857
0.00525013
0.0253673
0.0402835
0.0502392
0.0567027
0.0608144
0.0632799
0.0645008
0.0646929
0.0639601
0.0623335
0.0597933
0.0562797
0.0516957
0.0459011
0.0386922
0.029754
0.0185704
0.00476214
0.00886836
0.0170885
0.0237104
0.0282974
0.0313462
0.033316
0.034513
0.0351221
0.0352465
0.0349364
0.0342047
0.0330364
0.0313935
0.0292162
0.026421
0.0228963
0.0184985
0.0131042
0.00722612
0.0147807
0.0180868
0.0225758
0.0258872
0.0281724
0.0296845
0.0306179
0.0311005
0.0312084
0.0309788
0.0304195
0.0295151
0.0282296
0.0265086
0.0242796
0.0214554
0.0179586
0.0138669
0.0111502
0.020747
0.0204825
0.0236056
0.0261546
0.0280115
0.0292801
0.0300773
0.0304933
0.0305862
0.0303846
0.0298929
0.0290942
0.0279529
0.0264164
0.0244182
0.0218879
0.0187946
0.0153624
0.0147529
0.0271813
0.0234672
0.0252783
0.0271615
0.0286659
0.0297415
0.0304325
0.0307947
0.0308698
0.0306788
0.0302222
0.0294819
0.0284221
0.0269922
0.0251308
0.022782
0.0199525
0.0169798
0.018024
0.0353347
0.0268672
0.0271366
0.0283586
0.0295337
0.0304316
0.0310246
0.0313355
0.0313899
0.031201
0.0307658
0.0300647
0.0290622
0.02771
0.0259528
0.0237486
0.0211367
0.0185498
0.0210442
0.0490949
0.0305448
0.02891
0.0294881
0.0303544
0.0310838
0.031582
0.0318415
0.031873
0.0316817
0.031261
0.0305902
0.0296349
0.0283497
0.0266866
0.024618
0.0222146
0.0199993
0.0238872
0.0827038
0.0338757
0.0303369
0.0303873
0.0309829
0.0315558
0.0319625
0.0321709
0.0321777
0.0319812
0.0315712
0.0309265
0.030014
0.0287926
0.0272226
0.0252925
0.0231053
0.0212806
0.026602
1.99652
2.32441
2.61366
2.8485
3.03072
3.169
3.27269
3.34955
3.40536
3.44417
3.4687
3.48057
3.48057
0.128622
0.0358677
0.0279275
0.0268005
0.0268861
0.0272108
0.0276524
0.0285917
0.0314485
0.0416725
1.99652
2.25444
2.49121
2.69467
2.86184
2.99523
3.0994
3.17909
3.23832
3.28021
3.30697
3.32001
3.32001
0.137701
0.0397033
0.0302905
0.0285913
0.0284449
0.0287394
0.0292675
0.0302034
0.0320998
0.0360342
1.99652
2.20583
2.40242
2.57749
2.7271
2.85097
2.95086
3.0293
3.0888
3.13152
3.1591
3.17262
3.17262
0.145675
0.0430819
0.0324504
0.0302939
0.029953
0.0301865
0.0307033
0.0315297
0.032861
0.0349413
1.99652
2.17008
2.33539
2.48606
2.61836
2.73093
2.824
2.89864
2.95624
2.99814
3.02544
3.03889
3.03889
0.152707
0.046048
0.0343574
0.0318158
0.0313049
0.0314655
0.0319392
0.0326689
0.0337198
0.0351861
1.99652
2.14268
2.28314
2.41317
2.52957
2.63061
2.71575
2.7852
2.83955
2.87952
2.90577
2.91876
2.91876
0.158905
0.0486529
0.0360189
0.0331409
0.0324785
0.0325651
0.0329912
0.0336539
0.0345711
0.0358122
1.99652
2.12104
2.24142
2.35407
2.4563
2.54636
2.62337
2.68701
2.73739
2.77478
2.79948
2.81176
2.81176
0.164346
0.050936
0.0374556
0.0342784
0.0334798
0.0334965
0.0338784
0.034496
0.0353462
0.0364931
1.99652
2.10357
2.2075
2.3055
2.39531
2.47532
2.54447
2.60223
2.64836
2.68284
2.70575
2.71718
2.71718
0.169096
0.0529298
0.0386911
0.0352468
0.0343259
0.0342783
0.0346209
0.0352056
0.0360178
0.0371173
1.99652
2.08927
2.17959
2.26521
2.34424
2.41523
2.47711
2.5292
2.5711
2.60261
2.62363
2.63414
2.63414
0.173218
0.0546639
0.0397501
0.0360679
0.0350375
0.0349316
0.035239
0.0357975
0.0365842
0.0376537
1.99652
2.07745
2.15641
2.23156
2.30131
2.36433
2.41963
2.46647
2.50435
2.53296
2.55212
2.56172
2.56172
0.176781
0.0561689
0.0406575
0.0367646
0.0356364
0.0354777
0.0357532
0.036289
0.0370556
0.0381026
1.99652
2.06761
2.13708
2.20339
2.26517
2.32125
2.3707
2.41278
2.44697
2.47288
2.49028
2.49901
2.49901
0.179854
0.0574777
0.0414399
0.0373604
0.0361445
0.0359375
0.0361831
0.0366981
0.037447
0.038475
1.99652
2.05941
2.12093
2.17979
2.23479
2.28488
2.32922
2.36708
2.39794
2.4214
2.43719
2.44512
2.44512
0.182511
0.0586277
0.042126
0.0378797
0.0365836
0.0363308
0.0365472
0.0370416
0.0377737
0.0387845
1.99652
2.05259
2.10749
2.16009
2.20935
2.25434
2.29427
2.32846
2.3564
2.37769
2.39203
2.39925
2.39925
0.184835
0.0596629
0.0427483
0.038349
0.0369758
0.0366767
0.0368626
0.0373351
0.0380498
0.0390439
1.99652
2.04695
2.09637
2.14377
2.18823
2.22892
2.2651
2.29616
2.32159
2.34099
2.35408
2.36067
2.36067
0.186921
0.0606389
0.0433457
0.0387969
0.037343
0.036993
0.0371442
0.037592
0.0382874
0.0392643
1.99652
2.04236
2.08728
2.13042
2.17093
2.20806
2.24112
2.26955
2.29286
2.31067
2.32269
2.32875
2.32875
0.188894
0.0616308
0.0439663
0.039255
0.0377071
0.0372956
0.0374049
0.037823
0.0384964
0.0394548
1.99652
2.03867
2.08001
2.11972
2.15705
2.1913
2.22183
2.24812
2.26969
2.28619
2.29734
2.30296
2.30296
0.19094
0.0627486
0.0446692
0.0397549
0.0380855
0.0375959
0.0376533
0.0380361
0.0386841
0.0396223
1.99652
2.03583
2.07438
2.11143
2.14628
2.17828
2.20684
2.23144
2.25165
2.26712
2.27758
2.28285
2.28285
0.193389
0.0641585
0.0455172
0.0403166
0.0384842
0.0378966
0.0378925
0.0382351
0.0388551
0.0397719
1.99652
2.03374
2.07026
2.10536
2.1384
2.16875
2.19585
2.21921
2.23841
2.25311
2.26306
2.26807
2.26807
0.196913
0.0660741
0.0465276
0.040917
0.038882
0.0381852
0.0381172
0.0384193
0.0390115
0.0399068
1.99652
2.03238
2.06756
2.10139
2.13324
2.1625
2.18864
2.21118
2.22972
2.24391
2.25352
2.25836
2.25836
0.202804
0.0684253
0.0474852
0.0414212
0.0392105
0.0384298
0.0383138
0.0385841
0.0391528
0.040029
1.99652
2.0317
2.06622
2.09942
2.13068
2.15941
2.18507
2.20721
2.22541
2.23936
2.24879
2.25355
2.25355
0.206455
0.0685917
0.0474719
0.041511
0.0393543
0.0385871
0.0384658
0.038724
0.0392785
0.0401397
1.99652
2.0317
2.06622
2.09942
2.13068
2.15941
2.18507
2.20721
2.22541
2.23935
2.24879
2.25355
0.304544
0.0905708
0.0552504
0.0448315
0.0408677
0.0392377
0.0386354
0.0385668
0.0388376
0.0393893
0.0402412
0.157177
0.164046
0.169445
0.174269
0.17815
0.181307
0.184019
0.186596
0.189474
0.193418
0.199824
0.204189
0.0900336
0.0584876
0.0472453
0.0423345
0.0400379
0.0389934
0.0386133
0.0386303
0.0389314
0.0394895
0.0403366
0.0265258
0.0339036
0.0408253
0.0460452
0.0500646
0.0532698
0.0559519
0.0583693
0.0607964
0.0635293
0.0665584
0.067316
0.0546656
0.0470375
0.04285
0.0405491
0.0393264
0.0387468
0.0385721
0.0386789
0.0390163
0.0395853
0.0404305
0.0251237
0.0236697
0.0275491
0.0311766
0.0342266
0.0367674
0.0389284
0.0408484
0.0426571
0.0444257
0.0459811
0.0464469
0.0442264
0.0420184
0.0404215
0.0394002
0.0388204
0.0385639
0.0385494
0.0387329
0.0391041
0.0396843
0.0405283
0.0310965
0.0238726
0.0257902
0.02835
0.0307437
0.0328394
0.0346562
0.0362547
0.0376932
0.0389855
0.0400298
0.0405404
0.0402307
0.0396456
0.0391067
0.0387243
0.0385155
0.0384675
0.038566
0.0388076
0.0392054
0.0397944
0.0406363
0.0362999
0.0254559
0.026186
0.028063
0.0300147
0.0318015
0.0333776
0.0347571
0.0359647
0.0370047
0.0378352
0.0383673
0.0385493
0.0385276
0.0384435
0.0383808
0.0383799
0.0384596
0.0386321
0.0389134
0.0393297
0.0399236
0.0407616
0.0405216
0.0271015
0.0270693
0.0285004
0.0301494
0.0317162
0.0331178
0.0343424
0.0353989
0.0362924
0.0370126
0.0375381
0.037868
0.0380575
0.0381735
0.0382694
0.0383816
0.0385356
0.0387535
0.0390595
0.0394866
0.0400815
0.0409132
0.0439734
0.0285623
0.0280085
0.0291428
0.0305854
0.0319972
0.0332737
0.0343888
0.0353438
0.0361459
0.0367993
0.0373069
0.0376805
0.0379504
0.0381541
0.0383269
0.0384982
0.0386933
0.0389367
0.0392562
0.0396877
0.04028
0.0411028
0.0468559
0.0298223
0.0288915
0.0298252
0.0311295
0.0324358
0.0336259
0.0346655
0.0355523
0.0362948
0.0369039
0.0373916
0.0377736
0.038072
0.0383125
0.0385207
0.038721
0.0389368
0.0391928
0.0395178
0.0399487
0.0405352
0.0413464
0.0493613
0.0309331
0.0297155
0.0305128
0.0317278
0.0329662
0.0340999
0.0350897
0.0359313
0.0366344
0.037213
0.0376827
0.0380608
0.0383663
0.0386199
0.0388425
0.0390551
0.0392795
0.0395398
0.0398648
0.0402914
0.0408691
0.0416659
0.0516958
0.0319777
0.0305278
0.0312322
0.032393
0.0335915
0.0346912
0.0356497
0.0364621
0.0371387
0.0376954
0.0381497
0.0385195
0.0388231
0.0390786
0.0393047
0.0395204
0.0397461
0.0400053
0.0403264
0.0407458
0.0413118
0.0420909
0.0541038
0.0330681
0.0314115
0.0320506
0.0331809
0.0343584
0.0354387
0.0363775
0.0371697
0.0378269
0.0383662
0.0388065
0.0391662
0.0394632
0.0397149
0.0399385
0.0401518
0.0403745
0.040629
0.0409433
0.0413526
0.0419041
0.0426616
0.0568971
0.0343556
0.0324881
0.0330744
0.0341857
0.0353501
0.036416
0.037338
0.038112
0.0387507
0.0392729
0.0396981
0.0400455
0.0403327
0.0405766
0.0407937
0.0410011
0.0412175
0.0414648
0.0417696
0.0421663
0.0426999
0.043431
0.0604941
0.0360509
0.0339313
0.0344566
0.035543
0.0366866
0.0377295
0.0386265
0.0393752
0.0399897
0.0404898
0.0408957
0.0412267
0.0415003
0.0417328
0.0419401
0.0421386
0.0423461
0.0425835
0.0428765
0.0432577
0.0437694
0.0444682
0.0654718
0.0384527
0.0359857
0.0364083
0.0374352
0.038526
0.0395179
0.0403668
0.0410721
0.0416486
0.0421163
0.042495
0.0428033
0.0430581
0.0432751
0.0434691
0.0436557
0.0438516
0.0440767
0.0443551
0.0447172
0.0452023
0.0458622
0.0726396
0.0419887
0.0389918
0.0392107
0.040095
0.0410635
0.0419494
0.0427088
0.0433403
0.0438571
0.0442766
0.0446167
0.044894
0.0451237
0.0453202
0.045497
0.0456683
0.0458499
0.0460599
0.0463204
0.0466595
0.0471126
0.0477259
0.083164
0.0472779
0.0434161
0.0432214
0.0437997
0.044523
0.0452146
0.0458236
0.04634
0.0467688
0.0471209
0.0474089
0.0476456
0.0478433
0.0480139
0.0481693
0.0483221
0.0484861
0.0486777
0.0489169
0.0492283
0.0496434
0.0502017
0.0988272
0.0552444
0.0498838
0.0488649
0.0488497
0.0491369
0.0495136
0.0498972
0.0502517
0.0505631
0.0508285
0.0510516
0.0512386
0.0513977
0.0515376
0.0516677
0.0517985
0.0519417
0.0521116
0.0523254
0.0526042
0.0529746
0.0534694
0.122648
0.0673358
0.0591896
0.0565739
0.0555097
0.0551089
0.0550364
0.0551234
0.0552775
0.0554494
0.0556149
0.0557643
0.0558958
0.056012
0.0561177
0.0562195
0.0563254
0.0564449
0.0565896
0.0567737
0.0570145
0.0573334
0.0577561
0.160514
0.0859276
0.0721504
0.0665907
0.0638843
0.0625548
0.0619432
0.0617031
0.0616479
0.0616784
0.0617439
0.0618197
0.0618955
0.0619681
0.0620388
0.0621111
0.0621903
0.0622835
0.0623997
0.0625498
0.0627471
0.0630076
0.0633501
0.226627
0.114925
0.0888366
0.0784601
0.0737057
0.0714395
0.0703599
0.0698595
0.0696422
0.0695622
0.0695471
0.0695617
0.0695894
0.0696234
0.0696618
0.0697056
0.069758
0.0698236
0.0699084
0.0700202
0.0701683
0.0703636
0.0706181
0.377149
0.159615
0.106203
0.090211
0.0841802
0.0816064
0.0804368
0.0798884
0.0796285
0.0795066
0.079452
0.079431
0.0794273
0.0794334
0.0794465
0.0794661
0.0794935
0.0795312
0.0795825
0.0796521
0.0797454
0.0798687
0.0800282
1.44632
0.212319
0.115468
0.0988491
0.0945767
0.093128
0.0925343
0.092261
0.0921259
0.0920557
0.092018
0.0919974
0.0919863
0.0919811
0.0919802
0.091983
0.0919898
0.0920011
0.092018
0.0920421
0.0920751
0.0921191
0.0921764
0.092158
0.0745093
0.0767094
0.101153
0.0414595
0.0424327
0.0430457
0.0432723
0.0369387
0.0378588
0.0381639
0.0378944
0.0365586
0.0372737
0.0374859
0.0372628
0.0370033
0.0376321
0.0378012
0.0375862
0.037611
0.038198
0.0383409
0.0381181
0.0381949
0.0387559
0.0388806
0.0386482
0.0387033
0.0392452
0.0393563
0.0391159
0.0391301
0.0396569
0.0397573
0.0395106
0.0394839
0.0399982
0.0400899
0.0398382
0.0397773
0.0402808
0.0403653
0.0401093
0.0400221
0.0405163
0.0405942
0.0403342
0.0402287
0.0407142
0.040786
0.0405222
0.0404056
0.0408828
0.0409485
0.0406806
0.0405593
0.0410282
0.0410879
0.0408158
0.0406948
0.0411555
0.0412092
0.0409327
0.0408158
0.0412684
0.0413161
0.0410352
0.0409249
0.0413699
0.0414119
0.0411268
0.0410242
0.0414623
0.0414992
0.0412104
0.0411161
0.0415483
0.0415808
0.0412887
0.0412037
0.0416308
0.0416596
0.0413647
0.0412909
0.0417134
0.0417389
0.0414417
0.0413822
0.0418003
0.0418229
0.0415237
0.0414833
0.0418968
0.0419165
0.0416155
0.0416006
0.0420091
0.0420258
0.0417234
0.0417429
0.0421455
0.0421591
0.0418556
0.0419213
0.0423173
0.0423277
0.0420235
0.0421516
0.0425398
0.0425468
0.0422427
0.0424549
0.042834
0.0428377
0.0425348
0.0428604
0.0432287
0.0432292
0.042929
0.0434073
0.0437628
0.0437602
0.0434648
0.0441478
0.0444881
0.0444826
0.0441945
0.0451501
0.0454722
0.0454643
0.0451866
0.046502
0.0468028
0.0467929
0.046529
0.0483159
0.0485918
0.0485806
0.0483343
0.050734
0.0509815
0.0509695
0.0507448
0.0539359
0.0541517
0.0541396
0.0539405
0.0581494
0.0583303
0.0583188
0.0581491
0.0636634
0.0638067
0.0637965
0.0636597
0.0708461
0.0709499
0.0709417
0.0708406
0.080167
0.0802299
0.0802244
0.0801614
0.0922247
0.0922457
0.0922433
0.0922205
0.0454585
0.0342853
0.0316459
0.0312913
0.0315521
0.0319071
0.0321798
0.0323103
0.0322778
0.0320704
0.0316737
0.0310657
0.0302171
0.0290947
0.0276737
0.0259695
0.0241395
0.022976
0.0307005
0.0380838
0.0342548
0.0327608
0.0323734
0.0324235
0.0325911
0.0327302
0.032775
0.032694
0.0324672
0.0320758
0.0314972
0.0307055
0.0296759
0.0283991
0.0269182
0.0254477
0.0249618
0.0352542
0.0362979
0.0345568
0.0336754
0.0333505
0.0333054
0.0333576
0.0334018
0.0333797
0.0332574
0.033011
0.0326191
0.0320587
0.0313061
0.0303421
0.0291679
0.0278456
0.0266294
0.026629
0.0388907
0.0362038
0.0350927
0.034477
0.034194
0.0340977
0.0340759
0.0340528
0.0339795
0.0338233
0.0335591
0.033164
0.032615
0.0318895
0.0309723
0.0298714
0.0286615
0.0276253
0.0279786
0.041781
0.0366301
0.0357065
0.0351866
0.0349139
0.0347819
0.0347093
0.0346376
0.0345254
0.034342
0.0340622
0.0336625
0.0331199
0.0324127
0.0315278
0.0304777
0.0293459
0.0284364
0.0290506
0.0440676
0.0371778
0.0363013
0.0358042
0.0355227
0.035361
0.0352511
0.0351435
0.0350016
0.0347964
0.0345032
0.0340982
0.0335583
0.0328624
0.0319987
0.0309825
0.0299037
0.0290829
0.0298906
0.0458647
0.0377058
0.0368329
0.0363311
0.0360327
0.0358455
0.0357069
0.0355721
0.0354072
0.0351845
0.0348796
0.0344689
0.0339289
0.0332389
0.032388
0.0313932
0.0303491
0.0295897
0.0305411
0.0472653
0.0381692
0.0372883
0.0367732
0.0364564
0.0362475
0.0360864
0.0359305
0.0357474
0.0355105
0.0351955
0.0347786
0.0342365
0.0335485
0.032704
0.0317216
0.0306992
0.0299816
0.0310391
0.0483461
0.0385604
0.0376696
0.0371402
0.0368065
0.0365793
0.0364001
0.0362275
0.0360299
0.0357812
0.0354571
0.035034
0.0344884
0.0337994
0.032957
0.0319806
0.0309708
0.0302809
0.0314161
0.0491713
0.0388854
0.0379854
0.0374429
0.0370944
0.0368521
0.0366582
0.036472
0.0362626
0.0360038
0.0356717
0.0352423
0.0346922
0.0340004
0.033157
0.0321823
0.031179
0.0305069
0.0316982
0.049794
0.039154
0.0382458
0.0376917
0.0373306
0.0370756
0.0368696
0.0366723
0.036453
0.0361856
0.0358461
0.0354106
0.0348554
0.0341597
0.0333135
0.0323377
0.0313368
0.0306756
0.0319069
0.0502586
0.0393763
0.0384605
0.0378962
0.0375241
0.0372583
0.0370422
0.0368355
0.0366077
0.0363328
0.0359867
0.0355453
0.0349849
0.0342846
0.0334346
0.0324562
0.0314552
0.0308002
0.0320596
0.0506012
0.0395611
0.0386378
0.0380643
0.0376826
0.0374075
0.0371826
0.0369679
0.0367328
0.0364512
0.0360991
0.0356522
0.0350867
0.0343818
0.0335275
0.0325457
0.0315432
0.0308913
0.0321701
0.0508509
0.0397158
0.0387851
0.0382029
0.0378125
0.0375291
0.0372965
0.0370748
0.0368333
0.0365459
0.0361883
0.0357363
0.0351661
0.0344566
0.0335981
0.0326127
0.0316079
0.0309573
0.0322492
0.051031
0.0398466
0.0389083
0.0383178
0.0379193
0.0376284
0.0373889
0.037161
0.0369138
0.0366212
0.0362587
0.0358021
0.0352275
0.0345138
0.0336514
0.0326624
0.0316551
0.0310046
0.0323053
0.0511597
0.0399586
0.0390125
0.0384138
0.0380077
0.0377098
0.0374641
0.0372306
0.0369783
0.0366809
0.0363141
0.0358534
0.0352748
0.0345573
0.0336913
0.0326992
0.0316894
0.0310383
0.0323449
0.0512511
0.0400562
0.039102
0.0384953
0.0380817
0.0377773
0.0375258
0.0372871
0.0370302
0.0367286
0.0363579
0.0358935
0.0353114
0.0345905
0.0337214
0.0327263
0.0317143
0.0310624
0.0323728
0.0513158
0.0401428
0.0391806
0.0385659
0.0381451
0.0378343
0.0375773
0.0373338
0.0370726
0.0367672
0.036393
0.0359253
0.03534
0.0346162
0.0337442
0.0327467
0.0317326
0.0310798
0.0323926
0.0513622
0.0402218
0.0392516
0.038629
0.038201
0.0378841
0.0376218
0.0373737
0.0371085
0.0367996
0.0364221
0.0359514
0.0353633
0.0346368
0.0337623
0.0327625
0.0317465
0.0310927
0.0324071
0.0513964
0.0402961
0.0393182
0.0386876
0.0382526
0.0379296
0.0376621
0.0374097
0.0371407
0.0368284
0.0364479
0.0359744
0.0353836
0.0346545
0.0337777
0.0327757
0.031758
0.0311032
0.0324187
0.0514238
0.0403688
0.0393834
0.0387451
0.0383031
0.0379741
0.0377015
0.0374448
0.0371721
0.0368565
0.036473
0.0359967
0.0354033
0.0346717
0.0337925
0.0327883
0.0317688
0.0311128
0.0324292
0.0514489
0.0404432
0.0394508
0.0388049
0.0383559
0.0380209
0.0377434
0.0374823
0.037206
0.0368871
0.0365005
0.0360212
0.035425
0.0346907
0.0338089
0.0328023
0.0317807
0.0311234
0.0324406
0.0514762
0.0405232
0.0395243
0.038871
0.0384152
0.0380743
0.0377917
0.0375264
0.0372462
0.0369239
0.036534
0.0360516
0.0354522
0.0347147
0.0338297
0.0328202
0.031796
0.0311371
0.0324553
0.0515113
0.0406138
0.039609
0.0389487
0.0384862
0.0381395
0.0378519
0.0375822
0.0372981
0.036972
0.0365784
0.0360924
0.0354892
0.0347478
0.0338588
0.0328454
0.0318179
0.0311567
0.0324766
0.0515616
0.0407213
0.0397116
0.0390448
0.038576
0.0382235
0.0379309
0.0376567
0.0373684
0.0370382
0.0366405
0.0361501
0.0355422
0.0347958
0.0339016
0.032883
0.0318508
0.0311866
0.0325091
0.0516377
0.0408545
0.0398412
0.0391687
0.038694
0.0383361
0.0380385
0.0377597
0.0374669
0.0371322
0.0367297
0.0362339
0.0356201
0.0348673
0.0339662
0.0329405
0.0319018
0.0312334
0.0325603
0.0517562
0.0410253
0.0400103
0.0393332
0.0388533
0.0384903
0.0381879
0.0379045
0.037607
0.0372674
0.0368593
0.0363572
0.0357361
0.0349749
0.0340646
0.0330293
0.0319816
0.0313075
0.0326415
0.0519421
0.0412502
0.0402361
0.0395561
0.039072
0.0387045
0.0383977
0.0381097
0.0378075
0.0374626
0.0370483
0.0365389
0.035909
0.0351375
0.0342153
0.0331671
0.032107
0.0314252
0.0327711
0.0522348
0.0415515
0.040542
0.0398614
0.0393746
0.0390037
0.0386931
0.038401
0.0380943
0.0377441
0.0373234
0.036806
0.0361662
0.0353824
0.0344455
0.0333808
0.0323045
0.0316128
0.0329781
0.0526956
0.0419598
0.0409599
0.0402817
0.0397943
0.0394215
0.0391082
0.0388131
0.0385026
0.0381479
0.0377214
0.0371963
0.0365464
0.0357494
0.0347959
0.0337116
0.0326151
0.0319116
0.0333089
0.0534197
0.042516
0.0415319
0.0408603
0.0403753
0.0400026
0.0396885
0.039392
0.0390797
0.0387223
0.0382921
0.0377616
0.0371035
0.0362948
0.0353252
0.0342204
0.0331018
0.0323867
0.0338369
0.0545541
0.0432739
0.0423135
0.0416538
0.0411749
0.0408055
0.0404933
0.0401982
0.0398872
0.0395309
0.0391013
0.0385704
0.0379101
0.0370961
0.0361165
0.0349961
0.0338592
0.0331391
0.0346771
0.0563227
0.0443034
0.0433762
0.0427349
0.0422669
0.0419048
0.0415984
0.0413089
0.0410038
0.0406546
0.0402332
0.0397114
0.0390608
0.0382556
0.0372822
0.0361635
0.0350252
0.0343208
0.0360067
0.0590611
0.0456939
0.044811
0.0441958
0.0437448
0.043395
0.0430993
0.0428207
0.0425284
0.0421947
0.0417926
0.0412948
0.0406735
0.0399029
0.0389682
0.0378896
0.036793
0.0361549
0.0380921
0.063261
0.0475587
0.0467324
0.0461523
0.0457251
0.0453936
0.0451146
0.0448537
0.0445824
0.0442749
0.0439068
0.0434535
0.04289
0.0421939
0.0413526
0.0403863
0.0394206
0.0389566
0.0413259
0.0696318
0.0500408
0.049284
0.0487486
0.048353
0.0480467
0.047791
0.0475552
0.047314
0.047045
0.0467278
0.0463431
0.0458736
0.0453062
0.0446397
0.0439045
0.0432345
0.0431596
0.0462838
0.079205
0.0533198
0.052646
0.0521655
0.0518097
0.0515357
0.0513101
0.0511068
0.0509045
0.0506855
0.0504354
0.0501438
0.0498065
0.0494307
0.0490437
0.0487141
0.0486178
0.0493433
0.0538321
0.0935606
0.0576229
0.0570452
0.0566299
0.0563223
0.0560875
0.0558984
0.0557338
0.0555772
0.0554167
0.0552454
0.0550646
0.0548896
0.0547606
0.054762
0.0550554
0.0559561
0.0582441
0.0653501
0.115387
0.063238
0.0627688
0.062429
0.0621777
0.0619885
0.0618409
0.0617188
0.061611
0.0615113
0.0614208
0.0613532
0.0613463
0.0614836
0.0619367
0.0630449
0.0654733
0.0706411
0.0831747
0.150049
0.0705319
0.0701827
0.069928
0.0697406
0.0696024
0.069499
0.0694199
0.0693585
0.0693135
0.0692918
0.0693164
0.0694416
0.069789
0.0706242
0.0725327
0.0768404
0.0867274
0.111314
0.212183
0.0799721
0.0797535
0.0795933
0.0794766
0.0793929
0.0793339
0.079294
0.0792703
0.0792642
0.0792841
0.0793529
0.0795238
0.0799199
0.0808343
0.0830089
0.088501
0.103837
0.154635
0.378536
0.0921546
0.0920773
0.0920207
0.0919803
0.0919526
0.0919351
0.0919261
0.0919251
0.0919334
0.0919552
0.0920013
0.092096
0.0922977
0.0927572
0.0939218
0.0974043
0.110825
0.192641
1.44587
)
;

boundaryField
{
    leftWall
    {
        type            epsilonWallFunction;
        blending        stepwise;
        value           nonuniform List<scalar> 
50
(
3.11056
1.99652
1.99652
1.99652
1.99652
1.99652
1.99652
1.99652
1.99652
1.99652
1.99652
1.99652
1.99652
1.99652
1.99652
1.99652
1.99652
1.99652
1.99652
1.99652
1.99652
1.99652
1.99652
1.99652
1.99652
1.99652
1.99652
1.99652
0.157177
0.0265258
0.0251237
0.0310965
0.0362999
0.0405216
0.0439734
0.0468559
0.0493613
0.0516958
0.0541038
0.0568971
0.0604941
0.0654718
0.0726396
0.083164
0.0988272
0.122648
0.160514
0.226627
0.377149
1.44632
)
;
    }
    rightWall
    {
        type            epsilonWallFunction;
        blending        stepwise;
        value           nonuniform List<scalar> 
50
(
0.00476214
0.00722612
0.0111502
0.0147529
0.018024
0.0210442
0.0238872
0.026602
0.0307005
0.0352542
0.0388907
0.041781
0.0440676
0.0458647
0.0472653
0.0483461
0.0491713
0.049794
0.0502586
0.0506012
0.0508509
0.051031
0.0511597
0.0512511
0.0513158
0.0513622
0.0513964
0.0514238
0.0514489
0.0514762
0.0515113
0.0515616
0.0516377
0.0517562
0.0519421
0.0522348
0.0526956
0.0534197
0.0545541
0.0563227
0.0590611
0.063261
0.0696318
0.079205
0.0935606
0.115387
0.150049
0.212183
0.378536
1.44587
)
;
    }
    lowerWall
    {
        type            epsilonWallFunction;
        blending        stepwise;
        value           nonuniform List<scalar> 
62
(
3.11056
4.22461
4.22461
4.22461
4.22461
4.22461
4.22461
4.22461
4.22461
4.22461
4.22461
4.22461
4.22461
0.0823487
0.0157365
0.0248908
0.0316185
0.0354665
0.0365854
0.0346881
0.0291203
0.0190239
0.00437941
0.00437941
0.00787037
0.0129083
0.0178157
0.0230137
0.0296024
0.0410668
0.0712857
0.092158
0.0745093
0.0767094
0.101153
0.00525013
0.00886836
0.0147807
0.020747
0.0271813
0.0353347
0.0490949
0.0827038
0.00525013
0.0253673
0.0402835
0.0502392
0.0567027
0.0608144
0.0632799
0.0645008
0.0646929
0.0639601
0.0623335
0.0597933
0.0562797
0.0516957
0.0459011
0.0386922
0.029754
0.0185704
0.00476214
)
;
    }
    atmosphere
    {
        type            inletOutlet;
        inletValue      uniform 0.1;
        value           nonuniform List<scalar> 
46
(
1.44632
0.1
0.1
0.1
0.1
0.1
0.1
0.1
0.1
0.1
0.1
0.1
0.1
0.1
0.1
0.1
0.1
0.1
0.1
0.1
0.1
0.1
0.1
0.1
0.1
0.1
0.1
0.1
0.1
0.1
0.1
0.1
0.1
0.1
0.1
0.1
0.1
0.1
0.1
0.1
0.1
0.1
0.1
0.1
0.1
0.1
)
;
    }
    defaultFaces
    {
        type            empty;
    }
}


// ************************************************************************* //
