/*--------------------------------*- C++ -*----------------------------------*\
| =========                 |                                                 |
| \\      /  F ield         | OpenFOAM: The Open Source CFD Toolbox           |
|  \\    /   O peration     | Version:  2406                                  |
|   \\  /    A nd           | Website:  www.openfoam.com                      |
|    \\/     M anipulation  |                                                 |
\*---------------------------------------------------------------------------*/
FoamFile
{
    version     2.0;
    format      ascii;
    arch        "LSB;label=32;scalar=64";
    class       volScalarField;
    location    "0.85";
    object      epsilon;
}
// * * * * * * * * * * * * * * * * * * * * * * * * * * * * * * * * * * * * * //

dimensions      [0 2 -3 0 0 0 0];

internalField   nonuniform List<scalar> 
2268
(
0.00478771
0.021007
0.0349705
0.0464934
0.0560723
0.0640507
0.0706707
0.0761123
0.0805135
0.0839802
0.0865907
0.088396
0.0894179
0.0896426
0.0890098
0.0873941
0.0845725
0.0801706
0.0735804
0.0638559
0.0496851
0.0297983
0.00552912
0.00849337
0.0144024
0.0203721
0.0254279
0.0296297
0.0331037
0.0359588
0.0382817
0.0401408
0.0415891
0.0426658
0.043397
0.0437947
0.0438545
0.0435517
0.0428342
0.041611
0.0397336
0.0369698
0.0329725
0.0272833
0.0195417
0.0110549
0.0137588
0.0149903
0.0188078
0.0222935
0.0252515
0.0277092
0.0297265
0.031361
0.032662
0.033669
0.0344119
0.0349108
0.0351759
0.0352057
0.034985
0.0344815
0.0336405
0.0323776
0.0305708
0.0280568
0.0246563
0.020405
0.0192535
0.0186323
0.0164349
0.0189972
0.0216492
0.0239806
0.0259439
0.027563
0.0288758
0.0299193
0.0307249
0.0313173
0.0317136
0.031923
0.0319462
0.0317739
0.0313859
0.03075
0.029822
0.028551
0.0268976
0.0248927
0.0229522
0.0275671
0.0230091
0.0180383
0.0196749
0.0217439
0.0236522
0.025291
0.0266547
0.0277648
0.0286485
0.0293309
0.0298327
0.0301689
0.0303483
0.0303733
0.0302397
0.029937
0.0294505
0.0287682
0.0278974
0.0269084
0.0260518
0.0262385
0.0363577
0.0269462
0.0196212
0.0205158
0.0221302
0.0237146
0.0251093
0.0262841
0.0272469
0.028016
0.0286113
0.0290502
0.0293461
0.0295075
0.0295386
0.0294395
0.0292078
0.0288441
0.0283628
0.0278212
0.0273929
0.027585
0.0301085
0.0471056
0.0305089
0.0211233
0.021399
0.0226407
0.0239616
0.0251596
0.026184
0.0270306
0.0277106
0.0282391
0.0286307
0.0288972
0.0290473
0.0290868
0.0290192
0.0288496
0.0285907
0.0282786
0.028011
0.0280504
0.0291816
0.0344686
0.0649706
0.033749
0.0225247
0.0222712
0.0231991
0.0242987
0.0253321
0.0262314
0.0269822
0.0275893
0.0280639
0.0284179
0.028662
0.0288049
0.0288536
0.0288151
0.0287001
0.028531
0.0283601
0.0283122
0.0287057
0.030518
0.0385118
0.11182
0.00600927
0.0324843
0.0530964
0.0669614
0.0758768
0.0814205
0.0846141
0.0860559
0.0860761
0.0848399
0.0824065
0.0787611
0.0738304
0.0674876
0.0595469
0.0497449
0.0376987
0.0228483
0.0052265
0.0106895
0.0205458
0.0286494
0.0342599
0.0379617
0.0403174
0.0417075
0.0423635
0.0424172
0.0419344
0.0409365
0.0394118
0.037321
0.0345995
0.0311548
0.0268631
0.0215693
0.0151561
0.008336
0.0183404
0.0208815
0.0254423
0.0288446
0.0312058
0.0327667
0.0337149
0.0341756
0.0342246
0.0339005
0.0332139
0.0321532
0.0306875
0.0287685
0.0263315
0.0233006
0.019618
0.0154156
0.0132448
0.0261573
0.0230614
0.0253086
0.027378
0.0289662
0.030082
0.030785
0.031133
0.0311666
0.0309074
0.0303592
0.02951
0.0283338
0.0267926
0.02484
0.0224348
0.0195922
0.0166498
0.0178154
0.0345093
0.0260074
0.0261527
0.0271416
0.0281377
0.0289203
0.0294401
0.0297001
0.0297132
0.0294873
0.0290205
0.0283003
0.0273043
0.0260027
0.0243644
0.0223765
0.0201144
0.0180906
0.0219327
0.0449247
0.0294957
0.0273888
0.0274118
0.0279119
0.0284194
0.0287867
0.0289707
0.0289609
0.0287533
0.0283413
0.0277116
0.0268451
0.0257187
0.0243145
0.0226436
0.0208314
0.0195398
0.025638
0.0624735
0.0333652
0.02871
0.0278878
0.027975
0.0282516
0.0284883
0.0286046
0.028571
0.0283737
0.0280015
0.0274408
0.0266749
0.025687
0.0244702
0.023056
0.0216115
0.0209285
0.0289892
0.106467
0.0368448
0.0298413
0.0284057
0.0281744
0.0282623
0.0283878
0.0284442
0.0283873
0.0281955
0.0278539
0.0273484
0.0266646
0.0257911
0.0247304
0.0235313
0.0223961
0.0222316
0.0320347
0.038413
0.0245536
0.0235787
0.0240862
0.02489
0.0257036
0.026436
0.0270597
0.0275709
0.027975
0.0282807
0.0284969
0.0286324
0.0286959
0.0286985
0.0286578
0.0286073
0.0286147
0.0288246
0.0295626
0.0316411
0.0374394
0.055487
0.0436026
0.0268368
0.0251104
0.0251942
0.0257016
0.0262942
0.0268587
0.0273546
0.0277699
0.0281045
0.0283634
0.028554
0.0286845
0.0287648
0.0288088
0.0288374
0.028887
0.0290225
0.0293638
0.0301345
0.031759
0.0350314
0.0412721
0.0478979
0.028713
0.0263914
0.0261516
0.0264353
0.0268609
0.0272979
0.0276964
0.0280386
0.0283203
0.0285438
0.028715
0.0288414
0.0289331
0.0290038
0.0290738
0.0291749
0.0293579
0.0297039
0.0303378
0.0314368
0.0331979
0.0356421
0.0514484
0.0302461
0.0274455
0.0269543
0.0270669
0.027365
0.0277043
0.028028
0.0283136
0.0285541
0.0287499
0.0289052
0.0290269
0.0291241
0.029209
0.0292989
0.0294185
0.0296027
0.0298998
0.0303701
0.0310735
0.0320261
0.0331015
0.0543717
0.0314913
0.0283032
0.0276149
0.0275956
0.0277961
0.0280605
0.0283264
0.028568
0.0287761
0.0289495
0.0290914
0.0292073
0.0293051
0.029395
0.0294905
0.0296091
0.0297732
0.030009
0.030342
0.0307851
0.0313143
0.0318346
0.0567647
0.0324959
0.0289945
0.0281512
0.0280301
0.0281557
0.0283627
0.028584
0.0287914
0.0289739
0.0291292
0.0292592
0.0293685
0.0294635
0.0295523
0.029645
0.0297534
0.029891
0.030071
0.0303026
0.030583
0.0308873
0.0311591
0.0587096
0.0333004
0.0295467
0.0285817
0.0283821
0.0284505
0.0286136
0.0288007
0.0289815
0.0291439
0.0292844
0.029404
0.0295063
0.0295965
0.0296807
0.0297664
0.0298612
0.0299732
0.0301086
0.0302694
0.0304497
0.0306313
0.0307824
0.0602776
0.0339393
0.0299839
0.0289239
0.028664
0.0286888
0.0288185
0.0289795
0.0291399
0.0292864
0.0294148
0.0295254
0.0296209
0.0297053
0.0297834
0.0298606
0.0299419
0.0300319
0.0301336
0.0302465
0.0303651
0.0304774
0.030566
0.0615304
0.0344423
0.0303271
0.0291934
0.0288875
0.0288794
0.0289839
0.0291251
0.0292697
0.0294038
0.0295224
0.0296253
0.0297144
0.0297929
0.0298647
0.0299334
0.0300026
0.0300751
0.0301522
0.0302329
0.0303129
0.030385
0.0304394
0.0625218
0.0348347
0.0305939
0.0294037
0.029063
0.0290303
0.029116
0.0292423
0.0293749
0.0294993
0.0296101
0.0297065
0.0297899
0.029863
0.0299286
0.0299898
0.0300489
0.0301079
0.0301673
0.0302263
0.030282
0.03033
0.0303647
0.0632986
0.0351378
0.0307996
0.0295663
0.0291997
0.0291487
0.0292205
0.0293357
0.0294593
0.0295763
0.0296808
0.0297719
0.0298504
0.0299187
0.029979
0.0300337
0.0300847
0.0301334
0.0301802
0.0302245
0.0302646
0.0302978
0.0303208
0.063901
0.0353697
0.0309567
0.0296911
0.0293053
0.0292409
0.0293025
0.0294095
0.0295265
0.0296378
0.0297375
0.0298243
0.0298988
0.0299629
0.0300187
0.0300681
0.0301128
0.0301539
0.0301917
0.0302261
0.0302559
0.0302797
0.0302956
0.0643633
0.0355453
0.0310755
0.0297859
0.0293862
0.0293122
0.0293665
0.0294676
0.0295796
0.0296867
0.0297827
0.029866
0.0299373
0.029998
0.0300502
0.0300954
0.0301352
0.0301706
0.030202
0.0302296
0.0302526
0.0302704
0.0302819
0.0647144
0.035677
0.0311646
0.0298574
0.0294477
0.0293669
0.029416
0.0295129
0.0296214
0.0297254
0.0298186
0.0298993
0.029968
0.030026
0.0300752
0.0301172
0.0301533
0.0301845
0.0302115
0.0302343
0.0302528
0.0302666
0.0302752
0.0649783
0.0357749
0.0312308
0.0299109
0.0294941
0.0294085
0.0294541
0.0295481
0.0296541
0.0297559
0.029847
0.0299257
0.0299924
0.0300484
0.0300954
0.0301348
0.0301682
0.0301963
0.03022
0.0302396
0.030255
0.0302662
0.0302729
0.0651748
0.0358468
0.0312796
0.0299506
0.0295288
0.0294401
0.0294832
0.0295752
0.0296795
0.0297798
0.0298695
0.0299467
0.0300119
0.0300663
0.0301116
0.0301492
0.0301804
0.0302064
0.0302278
0.0302451
0.0302584
0.0302679
0.0302733
0.0653195
0.0358993
0.0313152
0.0299798
0.0295547
0.0294638
0.0295053
0.0295961
0.0296993
0.0297985
0.0298871
0.0299633
0.0300274
0.0300807
0.0301247
0.0301609
0.0301907
0.0302151
0.0302349
0.0302506
0.0302625
0.0302707
0.0302753
0.0654252
0.0359372
0.031341
0.0300012
0.0295738
0.0294815
0.0295221
0.0296121
0.0297145
0.029813
0.029901
0.0299765
0.0300398
0.0300923
0.0301353
0.0301706
0.0301993
0.0302226
0.0302412
0.0302558
0.0302667
0.0302742
0.0302782
0.0655016
0.0359643
0.0313595
0.0300167
0.0295879
0.0294947
0.0295347
0.0296242
0.0297262
0.0298243
0.0299118
0.0299869
0.0300497
0.0301015
0.030144
0.0301785
0.0302065
0.030229
0.0302469
0.0302607
0.030271
0.0302778
0.0302815
0.0655563
0.0359836
0.0313727
0.0300279
0.0295981
0.0295045
0.0295441
0.0296334
0.0297351
0.029833
0.0299203
0.029995
0.0300575
0.030109
0.030151
0.0301851
0.0302126
0.0302345
0.0302519
0.0302652
0.030275
0.0302815
0.0302849
0.0655953
0.0359972
0.0313821
0.0300358
0.0296055
0.0295116
0.0295511
0.0296403
0.029742
0.0298397
0.0299269
0.0300014
0.0300637
0.030115
0.0301567
0.0301905
0.0302176
0.0302392
0.0302562
0.0302692
0.0302786
0.0302849
0.0302882
0.0656227
0.0360067
0.0313886
0.0300415
0.0296109
0.0295168
0.0295563
0.0296455
0.0297471
0.0298448
0.0299319
0.0300064
0.0300686
0.0301197
0.0301613
0.0301949
0.0302218
0.0302431
0.0302599
0.0302727
0.0302819
0.0302881
0.0302912
0.0656419
0.0360133
0.0313932
0.0300455
0.0296147
0.0295206
0.0295601
0.0296493
0.029751
0.0298487
0.0299358
0.0300103
0.0300725
0.0301235
0.030165
0.0301984
0.0302252
0.0302464
0.030263
0.0302757
0.0302848
0.0302908
0.0302939
0.0656552
0.0360178
0.0313964
0.0300483
0.0296174
0.0295234
0.0295629
0.0296521
0.0297539
0.0298517
0.0299388
0.0300133
0.0300755
0.0301265
0.0301679
0.0302013
0.030228
0.0302492
0.0302657
0.0302782
0.0302873
0.0302933
0.0302963
0.0656643
0.0360209
0.0313986
0.0300503
0.0296194
0.0295253
0.0295649
0.0296542
0.0297561
0.0298539
0.0299411
0.0300156
0.0300778
0.0301288
0.0301702
0.0302036
0.0302303
0.0302514
0.0302678
0.0302803
0.0302894
0.0302953
0.0302983
0.0656706
0.036023
0.0314001
0.0300516
0.0296207
0.0295267
0.0295664
0.0296558
0.0297576
0.0298556
0.0299428
0.0300174
0.0300796
0.0301306
0.030172
0.0302054
0.0302321
0.0302531
0.0302696
0.0302821
0.0302911
0.030297
0.0303
0.0656749
0.0360244
0.0314011
0.0300526
0.0296216
0.0295277
0.0295674
0.0296569
0.0297588
0.0298568
0.0299441
0.0300187
0.0300809
0.030132
0.0301734
0.0302068
0.0302335
0.0302546
0.030271
0.0302835
0.0302925
0.0302984
0.0303014
0.0656778
0.0360254
0.0314018
0.0300532
0.0296223
0.0295284
0.0295682
0.0296577
0.0297597
0.0298577
0.029945
0.0300197
0.0300819
0.030133
0.0301745
0.0302079
0.0302346
0.0302557
0.0302721
0.0302846
0.0302936
0.0302995
0.0303025
0.0656797
0.036026
0.0314023
0.0300537
0.0296228
0.0295289
0.0295687
0.0296582
0.0297603
0.0298583
0.0299457
0.0300204
0.0300827
0.0301338
0.0301753
0.0302087
0.0302354
0.0302565
0.030273
0.0302855
0.0302945
0.0303004
0.0303034
0.065681
0.0360265
0.0314026
0.030054
0.0296231
0.0295292
0.0295691
0.0296586
0.0297607
0.0298588
0.0299462
0.030021
0.0300833
0.0301344
0.0301759
0.0302094
0.0302361
0.0302572
0.0302737
0.0302861
0.0302952
0.0303011
0.0303041
0.0656818
0.0360267
0.0314028
0.0300542
0.0296233
0.0295295
0.0295693
0.0296589
0.029761
0.0298592
0.0299466
0.0300214
0.0300837
0.0301349
0.0301764
0.0302098
0.0302366
0.0302577
0.0302742
0.0302867
0.0302957
0.0303016
0.0303046
0.0656824
0.0360269
0.0314029
0.0300543
0.0296234
0.0295296
0.0295695
0.0296591
0.0297613
0.0298594
0.0299469
0.0300216
0.030084
0.0301352
0.0301767
0.0302102
0.0302369
0.0302581
0.0302745
0.030287
0.0302961
0.030302
0.030305
0.0656828
0.036027
0.031403
0.0300544
0.0296235
0.0295297
0.0295696
0.0296593
0.0297614
0.0298596
0.0299471
0.0300218
0.0300842
0.0301354
0.030177
0.0302105
0.0302372
0.0302584
0.0302748
0.0302873
0.0302964
0.0303023
0.0303053
0.065683
0.0360271
0.031403
0.0300544
0.0296236
0.0295298
0.0295697
0.0296594
0.0297615
0.0298597
0.0299472
0.030022
0.0300844
0.0301356
0.0301772
0.0302106
0.0302374
0.0302586
0.030275
0.0302875
0.0302966
0.0303025
0.0303055
0.0656832
0.0360272
0.0314031
0.0300545
0.0296236
0.0295299
0.0295698
0.0296594
0.0297616
0.0298598
0.0299473
0.0300221
0.0300845
0.0301357
0.0301773
0.0302108
0.0302375
0.0302587
0.0302752
0.0302877
0.0302967
0.0303027
0.0303057
0.0656833
0.0360272
0.0314031
0.0300545
0.0296237
0.0295299
0.0295698
0.0296595
0.0297616
0.0298598
0.0299473
0.0300222
0.0300846
0.0301358
0.0301774
0.0302109
0.0302376
0.0302588
0.0302753
0.0302878
0.0302968
0.0303028
0.0303058
0.0656833
0.0360272
0.0314031
0.0300545
0.0296237
0.0295299
0.0295698
0.0296595
0.0297617
0.0298599
0.0299474
0.0300222
0.0300846
0.0301358
0.0301774
0.0302109
0.0302377
0.0302589
0.0302754
0.0302879
0.0302969
0.0303028
0.0303059
0.0656834
0.0360272
0.0314031
0.0300545
0.0296237
0.0295299
0.0295699
0.0296595
0.0297617
0.0298599
0.0299474
0.0300222
0.0300847
0.0301359
0.0301775
0.030211
0.0302377
0.0302589
0.0302754
0.0302879
0.030297
0.0303029
0.0303059
0.0656834
0.0360272
0.0314031
0.0300545
0.0296237
0.0295299
0.0295699
0.0296595
0.0297617
0.0298599
0.0299474
0.0300223
0.0300847
0.0301359
0.0301775
0.030211
0.0302378
0.030259
0.0302754
0.030288
0.030297
0.0303029
0.0303059
0.0656834
0.0360272
0.0314031
0.0300545
0.0296237
0.0295299
0.0295699
0.0296595
0.0297617
0.0298599
0.0299474
0.0300223
0.0300847
0.0301359
0.0301775
0.030211
0.0302378
0.030259
0.0302755
0.030288
0.030297
0.0303029
0.0303059
0.0656834
0.0360272
0.0314031
0.0300545
0.0296237
0.0295299
0.0295699
0.0296595
0.0297617
0.0298599
0.0299475
0.0300223
0.0300847
0.0301359
0.0301775
0.030211
0.0302378
0.030259
0.0302755
0.030288
0.030297
0.0303029
0.0303059
0.0656834
0.0360273
0.0314031
0.0300545
0.0296237
0.0295299
0.0295699
0.0296595
0.0297617
0.0298599
0.0299475
0.0300223
0.0300847
0.0301359
0.0301775
0.030211
0.0302378
0.030259
0.0302755
0.030288
0.030297
0.0303029
0.0303059
0.138404
0.108368
0.108062
0.136787
0.0489933
0.0495764
0.0495396
0.048905
0.0373412
0.0378319
0.0378225
0.0373162
0.0336755
0.0338679
0.0338634
0.0336622
0.032076
0.032157
0.032154
0.0320671
0.0312749
0.0313128
0.0313104
0.0312677
0.0308431
0.0308623
0.0308602
0.0308368
0.0305999
0.0306101
0.0306082
0.0305941
0.0304592
0.0304648
0.030463
0.0304538
0.0303767
0.0303798
0.0303781
0.0303716
0.0303284
0.03033
0.0303284
0.0303235
0.0303004
0.0303012
0.0302997
0.0302958
0.030285
0.0302853
0.0302838
0.0302806
0.0302772
0.0302772
0.0302758
0.030273
0.0302743
0.0302741
0.0302727
0.0302702
0.0302743
0.0302739
0.0302726
0.0302703
0.030276
0.0302756
0.0302743
0.0302721
0.0302787
0.0302782
0.030277
0.0302749
0.0302819
0.0302814
0.0302801
0.0302781
0.0302852
0.0302847
0.0302834
0.0302814
0.0302884
0.0302879
0.0302867
0.0302847
0.0302914
0.0302909
0.0302897
0.0302877
0.0302941
0.0302936
0.0302924
0.0302904
0.0302965
0.0302959
0.0302947
0.0302928
0.0302985
0.030298
0.0302967
0.0302948
0.0303002
0.0302996
0.0302984
0.0302965
0.0303016
0.030301
0.0302998
0.0302979
0.0303027
0.0303021
0.0303009
0.030299
0.0303036
0.030303
0.0303018
0.0302999
0.0303042
0.0303037
0.0303025
0.0303006
0.0303048
0.0303042
0.030303
0.0303011
0.0303052
0.0303046
0.0303034
0.0303015
0.0303055
0.0303049
0.0303037
0.0303018
0.0303057
0.0303051
0.0303039
0.030302
0.0303058
0.0303053
0.0303041
0.0303022
0.0303059
0.0303054
0.0303042
0.0303023
0.030306
0.0303055
0.0303042
0.0303023
0.0303061
0.0303055
0.0303043
0.0303024
0.0303061
0.0303055
0.0303043
0.0303024
0.0303061
0.0303055
0.0303043
0.0303024
0.0303061
0.0303055
0.0303043
0.0303024
0.0303061
0.0303055
0.0303043
0.0303024
0.0538494
0.0362274
0.0308989
0.0291342
0.0285696
0.0284282
0.0284095
0.0283846
0.0282939
0.0281064
0.0278029
0.0273689
0.026793
0.0260711
0.0252186
0.0243068
0.0235852
0.0241243
0.0364143
0.0407713
0.0343534
0.0311842
0.0297131
0.0290599
0.0287794
0.028648
0.0285507
0.0284266
0.0282412
0.0279734
0.0276091
0.0271404
0.0265703
0.0259265
0.025302
0.0249958
0.0262618
0.041281
0.0354747
0.0328389
0.0310454
0.0299917
0.0294148
0.0291047
0.0289237
0.0287872
0.028644
0.0284624
0.0282222
0.0279108
0.0275234
0.0270682
0.0265819
0.026174
0.0261831
0.0280202
0.0453044
0.033032
0.0318301
0.0308161
0.030106
0.0296507
0.0293653
0.0291748
0.0290238
0.0288739
0.028699
0.0284819
0.028212
0.0278874
0.0275203
0.0271541
0.0269113
0.0271637
0.0294572
0.0486278
0.0317981
0.0311994
0.0306138
0.0301447
0.0298035
0.0295623
0.0293836
0.0292337
0.029086
0.0289206
0.0287235
0.028487
0.0282113
0.0279119
0.0276376
0.0275214
0.0279635
0.0306242
0.0513634
0.0311353
0.0308138
0.0304647
0.0301541
0.0299038
0.0297081
0.0295499
0.0294096
0.0292695
0.0291151
0.0289359
0.0287262
0.0284887
0.0282416
0.0280377
0.0280189
0.0286092
0.0315658
0.0536034
0.0307644
0.0305799
0.030364
0.0301552
0.0299718
0.0298158
0.0296797
0.0295525
0.0294226
0.0292797
0.0291161
0.0289283
0.0287207
0.0285137
0.0283637
0.0284197
0.0291259
0.03232
0.0554254
0.0305511
0.0304386
0.0302996
0.0301559
0.0300202
0.0298959
0.0297802
0.0296667
0.0295476
0.0294157
0.0292656
0.0290955
0.0289112
0.028735
0.028626
0.0287394
0.0295357
0.0329195
0.0568962
0.0304263
0.0303538
0.0302605
0.0301586
0.0300563
0.0299564
0.029858
0.0297569
0.0296481
0.0295263
0.0293877
0.0292317
0.0290656
0.0289128
0.028835
0.028992
0.0298581
0.0333921
0.0580736
0.0303529
0.0303036
0.0302381
0.0301634
0.0300843
0.0300028
0.0299183
0.0298281
0.0297284
0.0296154
0.0294862
0.0293415
0.0291894
0.0290543
0.0289999
0.0291899
0.0301095
0.0337614
0.0590076
0.0303099
0.0302746
0.0302266
0.0301698
0.0301069
0.030039
0.0299654
0.0298841
0.0297922
0.0296865
0.0295651
0.0294292
0.0292877
0.029166
0.0291289
0.0293436
0.0303038
0.0340474
0.0597416
0.0302854
0.0302588
0.030222
0.0301771
0.0301255
0.0300676
0.0300025
0.0299283
0.0298427
0.029743
0.0296278
0.0294988
0.0293652
0.0292534
0.0292291
0.0294621
0.0304528
0.0342669
0.0603128
0.0302722
0.0302511
0.0302217
0.0301849
0.0301412
0.0300905
0.0300318
0.0299633
0.0298827
0.0297878
0.0296774
0.0295536
0.029426
0.0293213
0.0293064
0.0295527
0.030566
0.0344337
0.0607529
0.0302659
0.0302485
0.030224
0.0301927
0.0301546
0.0301092
0.0300554
0.0299912
0.0299145
0.0298233
0.0297165
0.0295966
0.0294734
0.0293738
0.0293655
0.0296214
0.0306514
0.0345594
0.0610886
0.030264
0.030249
0.0302278
0.0302003
0.0301662
0.0301246
0.0300743
0.0300134
0.0299397
0.0298513
0.0297473
0.0296302
0.02951
0.0294142
0.0294105
0.0296731
0.0307151
0.0346532
0.0613423
0.0302646
0.0302513
0.0302324
0.0302076
0.0301762
0.0301374
0.0300897
0.0300312
0.0299597
0.0298734
0.0297714
0.0296563
0.0295383
0.0294449
0.0294445
0.0297118
0.0307624
0.0347225
0.061532
0.0302669
0.0302547
0.0302373
0.0302143
0.0301849
0.0301481
0.0301022
0.0300455
0.0299756
0.0298908
0.0297903
0.0296766
0.0295601
0.0294683
0.02947
0.0297405
0.0307972
0.0347734
0.0616726
0.0302699
0.0302585
0.0302422
0.0302204
0.0301924
0.030157
0.0301125
0.030057
0.0299883
0.0299045
0.029805
0.0296922
0.0295767
0.029486
0.029489
0.0297617
0.0308225
0.0348103
0.0617758
0.0302734
0.0302624
0.0302469
0.030226
0.0301989
0.0301645
0.0301209
0.0300663
0.0299984
0.0299153
0.0298164
0.0297043
0.0295893
0.0294992
0.0295031
0.0297772
0.0308409
0.0348369
0.0618509
0.0302768
0.0302663
0.0302512
0.0302309
0.0302045
0.0301707
0.0301278
0.0300737
0.0300064
0.0299238
0.0298253
0.0297135
0.0295988
0.0295092
0.0295135
0.0297884
0.0308541
0.034856
0.0619051
0.0302802
0.0302699
0.0302551
0.0302352
0.0302092
0.0301759
0.0301334
0.0300797
0.0300127
0.0299304
0.0298321
0.0297205
0.029606
0.0295165
0.0295211
0.0297966
0.0308635
0.0348695
0.0619438
0.0302833
0.0302731
0.0302585
0.0302389
0.0302132
0.0301801
0.0301379
0.0300845
0.0300177
0.0299355
0.0298374
0.0297259
0.0296114
0.029522
0.0295267
0.0298024
0.0308702
0.034879
0.0619712
0.030286
0.0302759
0.0302615
0.0302421
0.0302166
0.0301836
0.0301416
0.0300883
0.0300216
0.0299395
0.0298414
0.0297299
0.0296154
0.0295259
0.0295307
0.0298066
0.0308749
0.0348856
0.0619906
0.0302884
0.0302784
0.0302641
0.0302447
0.0302193
0.0301865
0.0301445
0.0300913
0.0300246
0.0299426
0.0298444
0.0297329
0.0296184
0.0295289
0.0295336
0.0298096
0.0308782
0.0348902
0.0620041
0.0302904
0.0302804
0.0302662
0.0302469
0.0302215
0.0301887
0.0301468
0.0300936
0.030027
0.0299449
0.0298467
0.0297351
0.0296206
0.029531
0.0295356
0.0298116
0.0308804
0.0348934
0.0620134
0.0302921
0.0302822
0.0302679
0.0302486
0.0302233
0.0301905
0.0301486
0.0300954
0.0300288
0.0299467
0.0298485
0.0297368
0.0296222
0.0295325
0.0295371
0.0298131
0.030882
0.0348955
0.0620198
0.0302935
0.0302835
0.0302693
0.03025
0.0302247
0.030192
0.03015
0.0300968
0.0300301
0.029948
0.0298497
0.029738
0.0296233
0.0295336
0.0295382
0.0298141
0.0308831
0.034897
0.0620242
0.0302946
0.0302847
0.0302704
0.0302512
0.0302258
0.0301931
0.0301511
0.0300979
0.0300312
0.029949
0.0298507
0.0297389
0.0296241
0.0295344
0.0295389
0.0298148
0.0308838
0.034898
0.0620272
0.0302955
0.0302855
0.0302713
0.030252
0.0302267
0.0301939
0.030152
0.0300987
0.0300319
0.0299497
0.0298514
0.0297396
0.0296247
0.0295349
0.0295394
0.0298153
0.0308843
0.0348987
0.0620292
0.0302962
0.0302862
0.030272
0.0302527
0.0302273
0.0301946
0.0301526
0.0300993
0.0300325
0.0299503
0.0298519
0.02974
0.0296252
0.0295353
0.0295397
0.0298156
0.0308847
0.0348991
0.0620306
0.0302967
0.0302867
0.0302725
0.0302532
0.0302278
0.030195
0.030153
0.0300998
0.0300329
0.0299507
0.0298522
0.0297404
0.0296255
0.0295356
0.02954
0.0298158
0.0308849
0.0348994
0.0620315
0.0302971
0.0302871
0.0302729
0.0302536
0.0302282
0.0301954
0.0301534
0.0301001
0.0300332
0.0299509
0.0298525
0.0297406
0.0296257
0.0295358
0.0295402
0.029816
0.030885
0.0348996
0.0620321
0.0302974
0.0302874
0.0302732
0.0302539
0.0302285
0.0301957
0.0301536
0.0301003
0.0300335
0.0299511
0.0298527
0.0297408
0.0296258
0.0295359
0.0295403
0.0298161
0.0308851
0.0348997
0.0620325
0.0302976
0.0302876
0.0302734
0.0302541
0.0302287
0.0301958
0.0301538
0.0301005
0.0300336
0.0299513
0.0298528
0.0297409
0.0296259
0.029536
0.0295403
0.0298162
0.0308852
0.0348998
0.0620327
0.0302978
0.0302878
0.0302735
0.0302542
0.0302288
0.030196
0.0301539
0.0301006
0.0300337
0.0299514
0.0298529
0.0297409
0.029626
0.029536
0.0295404
0.0298162
0.0308852
0.0348999
0.0620329
0.0302979
0.0302879
0.0302736
0.0302543
0.0302289
0.0301961
0.030154
0.0301007
0.0300338
0.0299515
0.029853
0.029741
0.029626
0.0295361
0.0295404
0.0298162
0.0308853
0.0348999
0.062033
0.0302979
0.030288
0.0302737
0.0302544
0.030229
0.0301961
0.0301541
0.0301007
0.0300339
0.0299515
0.029853
0.029741
0.0296261
0.0295361
0.0295405
0.0298163
0.0308853
0.0348999
0.062033
0.030298
0.030288
0.0302737
0.0302544
0.030229
0.0301962
0.0301541
0.0301008
0.0300339
0.0299515
0.029853
0.0297411
0.0296261
0.0295361
0.0295405
0.0298163
0.0308853
0.0348999
0.0620331
0.030298
0.030288
0.0302738
0.0302544
0.0302291
0.0301962
0.0301542
0.0301008
0.0300339
0.0299516
0.029853
0.0297411
0.0296261
0.0295361
0.0295405
0.0298163
0.0308853
0.0348999
0.0620331
0.030298
0.030288
0.0302738
0.0302545
0.0302291
0.0301962
0.0301542
0.0301008
0.0300339
0.0299516
0.0298531
0.0297411
0.0296261
0.0295361
0.0295405
0.0298163
0.0308853
0.0348999
0.0620331
0.030298
0.0302881
0.0302738
0.0302545
0.0302291
0.0301962
0.0301542
0.0301008
0.0300339
0.0299516
0.0298531
0.0297411
0.0296261
0.0295362
0.0295405
0.0298163
0.0308853
0.0348999
0.0620331
0.030298
0.030288
0.0302738
0.0302545
0.0302291
0.0301962
0.0301542
0.0301008
0.0300339
0.0299516
0.0298531
0.0297411
0.0296261
0.0295362
0.0295405
0.0298163
0.0308853
0.0348999
0.0620332
)
;

boundaryField
{
    leftWall
    {
        type            epsilonWallFunction;
        blending        stepwise;
        value           nonuniform List<scalar> 
50
(
0.00478771
0.00849337
0.0137588
0.0186323
0.0230091
0.0269462
0.0305089
0.033749
0.038413
0.0436026
0.0478979
0.0514484
0.0543717
0.0567647
0.0587096
0.0602776
0.0615304
0.0625218
0.0632986
0.063901
0.0643633
0.0647144
0.0649783
0.0651748
0.0653195
0.0654252
0.0655016
0.0655563
0.0655953
0.0656227
0.0656419
0.0656552
0.0656643
0.0656706
0.0656749
0.0656778
0.0656797
0.065681
0.0656818
0.0656824
0.0656828
0.065683
0.0656832
0.0656833
0.0656833
0.0656834
0.0656834
0.0656834
0.0656834
0.0656834
)
;
    }
    rightWall
    {
        type            epsilonWallFunction;
        blending        stepwise;
        value           nonuniform List<scalar> 
50
(
0.0052265
0.008336
0.0132448
0.0178154
0.0219327
0.025638
0.0289892
0.0320347
0.0364143
0.041281
0.0453044
0.0486278
0.0513634
0.0536034
0.0554254
0.0568962
0.0580736
0.0590076
0.0597416
0.0603128
0.0607529
0.0610886
0.0613423
0.061532
0.0616726
0.0617758
0.0618509
0.0619051
0.0619438
0.0619712
0.0619906
0.0620041
0.0620134
0.0620198
0.0620242
0.0620272
0.0620292
0.0620306
0.0620315
0.0620321
0.0620325
0.0620327
0.0620329
0.062033
0.062033
0.0620331
0.0620331
0.0620331
0.0620331
0.0620332
)
;
    }
    lowerWall
    {
        type            epsilonWallFunction;
        blending        stepwise;
        value           nonuniform List<scalar> 
62
(
0.00478771
0.021007
0.0349705
0.0464934
0.0560723
0.0640507
0.0706707
0.0761123
0.0805135
0.0839802
0.0865907
0.088396
0.0894179
0.0896426
0.0890098
0.0873941
0.0845725
0.0801706
0.0735804
0.0638559
0.0496851
0.0297983
0.00552912
0.00552912
0.0110549
0.0192535
0.0275671
0.0363577
0.0471056
0.0649706
0.11182
0.138404
0.108368
0.108062
0.136787
0.00600927
0.0106895
0.0183404
0.0261573
0.0345093
0.0449247
0.0624735
0.106467
0.00600927
0.0324843
0.0530964
0.0669614
0.0758768
0.0814205
0.0846141
0.0860559
0.0860761
0.0848399
0.0824065
0.0787611
0.0738304
0.0674876
0.0595469
0.0497449
0.0376987
0.0228483
0.0052265
)
;
    }
    atmosphere
    {
        type            inletOutlet;
        inletValue      uniform 0.1;
        value           nonuniform List<scalar> 
46
(
0.0656834
0.0360273
0.0314031
0.0300545
0.0296237
0.0295299
0.0295699
0.0296595
0.0297617
0.0298599
0.0299475
0.0300223
0.0300847
0.0301359
0.0301775
0.030211
0.0302378
0.030259
0.0302755
0.030288
0.030297
0.0303029
0.0303059
0.0303061
0.0303055
0.0303043
0.0303024
0.030298
0.030288
0.0302738
0.0302545
0.0302291
0.0301962
0.0301542
0.0301008
0.0300339
0.0299516
0.0298531
0.0297411
0.0296261
0.0295362
0.0295405
0.0298163
0.0308853
0.0348999
0.0620332
)
;
    }
    defaultFaces
    {
        type            empty;
    }
}


// ************************************************************************* //
