/*--------------------------------*- C++ -*----------------------------------*\
| =========                 |                                                 |
| \\      /  F ield         | OpenFOAM: The Open Source CFD Toolbox           |
|  \\    /   O peration     | Version:  2406                                  |
|   \\  /    A nd           | Website:  www.openfoam.com                      |
|    \\/     M anipulation  |                                                 |
\*---------------------------------------------------------------------------*/
FoamFile
{
    version     2.0;
    format      ascii;
    arch        "LSB;label=32;scalar=64";
    class       volScalarField;
    location    "0.85";
    object      k;
}
// * * * * * * * * * * * * * * * * * * * * * * * * * * * * * * * * * * * * * //

dimensions      [0 2 -2 0 0 0 0];

internalField   nonuniform List<scalar> 
2268
(
0.00128563
0.00281966
0.00396531
0.00479893
0.00544179
0.00595098
0.00635874
0.00668543
0.00694487
0.00714667
0.00729752
0.00740173
0.00746137
0.00747614
0.00744277
0.00735388
0.00719578
0.00694453
0.00655873
0.00596689
0.00504646
0.00358646
0.00116316
0.00253522
0.00646405
0.00887414
0.0106515
0.0120296
0.0131232
0.0139993
0.014701
0.0152581
0.0156912
0.0160148
0.0162384
0.0163666
0.0163986
0.0163278
0.0161385
0.0158022
0.0152691
0.0144545
0.0132136
0.0113018
0.00830435
0.00304549
0.00350166
0.00855558
0.0115143
0.0137018
0.0154076
0.0167661
0.017857
0.0187324
0.0194283
0.0199703
0.0203763
0.020658
0.0208212
0.0208654
0.0207826
0.0205545
0.0201473
0.0195032
0.0185235
0.0170402
0.0147626
0.0111515
0.00441457
0.00429007
0.0101485
0.013456
0.0158931
0.0178005
0.0193251
0.0205526
0.0215399
0.0223264
0.0229403
0.0234018
0.0237238
0.0239131
0.0239697
0.0238853
0.0236411
0.0232022
0.022509
0.0214607
0.0198828
0.017458
0.0135162
0.00561316
0.00494142
0.0114745
0.0150526
0.0176708
0.0197233
0.0213686
0.0226969
0.0237678
0.024623
0.0252925
0.0257977
0.0261528
0.0263653
0.0264358
0.0263569
0.0261102
0.0256622
0.0249558
0.0238941
0.0223068
0.0198618
0.01575
0.0067555
0.00549329
0.0126163
0.0164251
0.019189
0.0213555
0.0230957
0.0245042
0.0256424
0.0265538
0.0272696
0.0278121
0.0281966
0.0284314
0.028518
0.02845
0.0282109
0.0277699
0.0270751
0.0260387
0.0245034
0.0221416
0.0180324
0.00803421
0.00597044
0.0136165
0.0176309
0.0205196
0.0227813
0.0246002
0.0260754
0.0272705
0.02823
0.0289861
0.0295621
0.029974
0.0302309
0.0303357
0.0302832
0.0300594
0.0296376
0.0289728
0.0279897
0.0265531
0.0243703
0.0205148
0.00996256
0.006389
0.0145021
0.0187034
0.0217033
0.0240476
0.0259344
0.0274674
0.028712
0.029714
0.0305064
0.0311132
0.0315512
0.0318307
0.0319553
0.0319222
0.0317198
0.0313263
0.0307048
0.0297946
0.028489
0.0265626
0.0232994
0.0143189
0.00122891
0.00379794
0.00527291
0.0061557
0.0066902
0.00701102
0.00719141
0.00727061
0.00726903
0.00719611
0.0070543
0.0068408
0.00654807
0.00616314
0.00566533
0.00502091
0.00416948
0.00298238
0.00139235
0.00319258
0.00872904
0.0117655
0.0136035
0.0147267
0.0154053
0.0157884
0.0159567
0.0159526
0.015796
0.0154916
0.0150333
0.0144048
0.0135779
0.0125086
0.011126
0.00930719
0.00680042
0.00268471
0.00458203
0.011656
0.0153051
0.0174941
0.0188373
0.0196528
0.0201135
0.0203132
0.0203017
0.0201017
0.0197189
0.0191452
0.0183603
0.0173298
0.016
0.0142863
0.0120433
0.00896225
0.00366086
0.00581125
0.0140638
0.0180243
0.0203493
0.0217772
0.0226481
0.0231398
0.0233483
0.0233245
0.0230917
0.0226548
0.0220044
0.0211176
0.0199564
0.0184622
0.016543
0.0140407
0.0105972
0.00446531
0.00699574
0.0163235
0.0204198
0.0227551
0.0241893
0.0250682
0.0255632
0.0257661
0.0257252
0.0254624
0.0249814
0.0242712
0.0233071
0.0220486
0.0204339
0.0183663
0.0156762
0.0119548
0.00513298
0.00834681
0.0186122
0.022664
0.0249107
0.0262952
0.0271487
0.0276273
0.0278136
0.0277511
0.0274588
0.0269386
0.0261779
0.0251503
0.0238137
0.0221036
0.0199192
0.0170792
0.0131231
0.00569936
0.0104075
0.0210632
0.0248299
0.0269019
0.0281949
0.0289986
0.0294458
0.0296069
0.0295186
0.0291964
0.0286397
0.0278342
0.026752
0.0253494
0.0235598
0.0212781
0.0183106
0.0141468
0.00618903
0.014861
0.0237493
0.0269353
0.0287668
0.0299397
0.0306764
0.0310811
0.0312101
0.0310926
0.0307397
0.030148
0.0293015
0.0281708
0.0267105
0.0248521
0.022486
0.0194057
0.0150534
0.00661841
0.00696952
0.0157374
0.0202063
0.0233644
0.0258244
0.0278051
0.0294178
0.0307315
0.0317934
0.0326379
0.0332899
0.0337676
0.0340827
0.0342412
0.034243
0.0340815
0.0337428
0.033203
0.032425
0.0313486
0.0298641
0.0277202
0.0241461
0.00759047
0.0170713
0.021844
0.0251844
0.027776
0.0298623
0.0315647
0.0329566
0.0340878
0.0349942
0.0357025
0.0362324
0.0365977
0.0368074
0.0368659
0.0367731
0.0365249
0.036113
0.0355257
0.0347478
0.0337591
0.0325303
0.0310172
0.00808767
0.0181448
0.0231724
0.0266697
0.029376
0.0315544
0.0333351
0.0347959
0.0359891
0.0369522
0.0377135
0.0382942
0.0387105
0.038974
0.039093
0.0390729
0.0389172
0.0386288
0.0382117
0.0376744
0.037034
0.0363255
0.0356216
0.00848904
0.0190146
0.024256
0.027889
0.0306963
0.0329567
0.0348076
0.0363307
0.0375806
0.0385966
0.0394082
0.0400383
0.040505
0.0408223
0.0410016
0.0410524
0.0409836
0.0408045
0.0405276
0.0401704
0.0397599
0.0393368
0.038962
0.00881395
0.0197211
0.0251417
0.0288917
0.0317881
0.034122
0.0360365
0.0376167
0.0389192
0.0399846
0.040844
0.0415216
0.042037
0.0424063
0.0426432
0.0427601
0.0427689
0.0426827
0.042517
0.0422916
0.0420324
0.0417724
0.0415517
0.00907681
0.0202948
0.0258651
0.0297158
0.0326907
0.0350905
0.0370629
0.0386955
0.0400466
0.0411583
0.0420628
0.0427855
0.0433472
0.0437655
0.0440558
0.0442323
0.0443088
0.0442997
0.0442215
0.0440929
0.043936
0.0437758
0.0436384
0.0092888
0.0207593
0.0264546
0.0303916
0.0334354
0.035894
0.0379189
0.0395995
0.0409956
0.0421505
0.0430971
0.043862
0.0444669
0.0449306
0.0452695
0.045499
0.0456336
0.0456883
0.045679
0.0456226
0.0455376
0.0454427
0.0453559
0.00945891
0.0211338
0.0269331
0.0309437
0.0340477
0.0365587
0.0386309
0.0403552
0.0417927
0.0429874
0.0439731
0.044777
0.0454218
0.0459269
0.0463095
0.0465854
0.0467697
0.0468771
0.0469225
0.0469213
0.0468886
0.0468391
0.0467857
0.00959456
0.0214341
0.0273194
0.0313927
0.0345489
0.0371063
0.0392208
0.0409848
0.0424599
0.043691
0.0447126
0.0455524
0.0462335
0.046776
0.0471974
0.0475139
0.0477404
0.0478914
0.0479809
0.0480225
0.0480291
0.0480126
0.0479828
0.00970192
0.0216733
0.0276295
0.0317557
0.0349572
0.0375552
0.0397074
0.0415069
0.0430161
0.0442803
0.0453344
0.0462067
0.0469206
0.0474965
0.0479522
0.0483038
0.0485664
0.0487537
0.0488789
0.0489543
0.0489913
0.0489997
0.0489871
0.0097862
0.0218624
0.0278768
0.0320475
0.0352877
0.0379211
0.0401065
0.0419376
0.0434773
0.0447713
0.0458547
0.0467561
0.0474994
0.0481049
0.0485906
0.0489727
0.0492658
0.0494834
0.0496379
0.0497406
0.0498014
0.0498289
0.0498295
0.00985178
0.0220107
0.0280724
0.0322803
0.0355535
0.0382176
0.040432
0.042291
0.0438577
0.0451781
0.0462876
0.047215
0.0479842
0.0486158
0.0491277
0.0495361
0.0498552
0.0500981
0.0502767
0.0504014
0.0504814
0.0505239
0.0505347
0.00990234
0.0221261
0.0282261
0.0324648
0.0357658
0.0384561
0.0406956
0.0425789
0.0441694
0.0455131
0.0466456
0.0475959
0.0483879
0.0490422
0.0495769
0.0500077
0.0503489
0.0506131
0.0508117
0.0509544
0.0510497
0.0511043
0.051123
0.00994095
0.0222151
0.0283457
0.0326098
0.0359341
0.0386466
0.0409077
0.042812
0.0444231
0.0457871
0.0469398
0.04791
0.0487219
0.0493959
0.0499501
0.0504002
0.0507601
0.0510421
0.0512572
0.0514147
0.0515225
0.0515867
0.0516118
0.00997016
0.0222831
0.0284381
0.0327228
0.0360665
0.0387977
0.041077
0.0429993
0.0446281
0.0460097
0.0471798
0.0481672
0.0489962
0.0496873
0.0502582
0.0507246
0.0511002
0.0513972
0.051626
0.0517956
0.0519136
0.0519856
0.0520158
0.00999205
0.0223346
0.0285089
0.0328103
0.0361698
0.0389166
0.0412112
0.0431487
0.0447926
0.0461892
0.0473741
0.0483764
0.04922
0.0499255
0.0505106
0.0509908
0.0513797
0.0516891
0.0519292
0.0521089
0.0522352
0.0523136
0.0523479
0.0100083
0.0223732
0.0285626
0.0328774
0.0362498
0.0390094
0.0413168
0.043267
0.0449236
0.0463327
0.0475303
0.0485451
0.0494011
0.0501188
0.0507159
0.0512077
0.0516076
0.0519273
0.0521769
0.0523648
0.0524978
0.0525814
0.052619
0.0100202
0.022402
0.0286031
0.0329284
0.0363112
0.0390812
0.041399
0.0433598
0.045027
0.0464467
0.0476548
0.0486801
0.0495466
0.0502746
0.0508816
0.0513831
0.0517922
0.0521204
0.0523777
0.0525723
0.0527109
0.0527986
0.0528389
0.010029
0.0224232
0.0286333
0.0329669
0.036358
0.0391363
0.0414627
0.0434321
0.0451079
0.0465364
0.0477533
0.0487873
0.0496624
0.0503989
0.0510143
0.0515238
0.0519404
0.0522757
0.0525393
0.0527394
0.0528825
0.0529736
0.053016
0.0100353
0.0224387
0.0286556
0.0329956
0.0363933
0.0391783
0.0415115
0.0434879
0.0451709
0.0466065
0.0478306
0.0488718
0.049754
0.0504975
0.0511197
0.0516357
0.0520585
0.0523995
0.0526683
0.0528728
0.0530195
0.0531134
0.0531575
0.0100398
0.02245
0.028672
0.033017
0.0364197
0.03921
0.0415487
0.0435307
0.0452193
0.0466608
0.0478907
0.0489377
0.0498257
0.0505749
0.0512027
0.051724
0.0521519
0.0524975
0.0527704
0.0529785
0.0531282
0.0532242
0.0532697
0.010043
0.0224581
0.028684
0.0330327
0.0364394
0.0392338
0.0415768
0.0435632
0.0452564
0.0467025
0.0479371
0.0489888
0.0498815
0.0506353
0.0512675
0.0517931
0.0522251
0.0525744
0.0528507
0.0530617
0.0532137
0.0533114
0.053358
0.0100452
0.0224639
0.0286926
0.0330442
0.0364539
0.0392514
0.0415978
0.0435876
0.0452844
0.0467342
0.0479725
0.049028
0.0499244
0.0506819
0.0513178
0.0518468
0.0522819
0.0526343
0.0529132
0.0531265
0.0532803
0.0533794
0.0534269
0.0100468
0.022468
0.0286988
0.0330525
0.0364645
0.0392645
0.0416133
0.0436059
0.0453055
0.0467582
0.0479994
0.0490579
0.0499573
0.0507177
0.0513563
0.0518881
0.0523258
0.0526805
0.0529615
0.0531765
0.0533319
0.053432
0.0534802
0.0100479
0.0224709
0.0287032
0.0330585
0.0364721
0.039274
0.0416248
0.0436195
0.0453213
0.0467762
0.0480197
0.0490805
0.0499822
0.0507448
0.0513857
0.0519196
0.0523593
0.0527158
0.0529985
0.053215
0.0533714
0.0534724
0.0535211
0.0100487
0.0224729
0.0287063
0.0330628
0.0364777
0.0392809
0.0416332
0.0436295
0.0453329
0.0467895
0.0480348
0.0490974
0.0500008
0.0507653
0.0514079
0.0519434
0.0523847
0.0527427
0.0530266
0.0532442
0.0534015
0.0535032
0.0535522
0.0100492
0.0224743
0.0287085
0.0330658
0.0364816
0.0392859
0.0416393
0.0436368
0.0453414
0.0467994
0.048046
0.0491099
0.0500148
0.0507806
0.0514245
0.0519614
0.0524038
0.0527629
0.0530478
0.0532662
0.0534242
0.0535264
0.0535757
0.0100495
0.0224752
0.02871
0.0330679
0.0364844
0.0392894
0.0416437
0.043642
0.0453477
0.0468066
0.0480542
0.0491192
0.0500251
0.0507919
0.0514369
0.0519747
0.0524181
0.052778
0.0530636
0.0532827
0.0534412
0.0535437
0.0535933
0.0100498
0.0224759
0.0287111
0.0330694
0.0364864
0.039292
0.0416468
0.0436458
0.0453521
0.0468118
0.0480602
0.049126
0.0500327
0.0508003
0.051446
0.0519845
0.0524286
0.0527891
0.0530754
0.0532949
0.0534538
0.0535566
0.0536064
0.0100499
0.0224763
0.0287118
0.0330704
0.0364878
0.0392938
0.0416491
0.0436485
0.0453554
0.0468156
0.0480645
0.0491309
0.0500382
0.0508064
0.0514527
0.0519917
0.0524363
0.0527973
0.053084
0.0533039
0.0534631
0.0535661
0.053616
0.0100501
0.0224766
0.0287123
0.0330711
0.0364888
0.039295
0.0416506
0.0436504
0.0453577
0.0468182
0.0480677
0.0491344
0.0500421
0.0508108
0.0514575
0.051997
0.052442
0.0528033
0.0530903
0.0533104
0.0534699
0.0535731
0.053623
0.0100501
0.0224768
0.0287126
0.0330716
0.0364894
0.0392959
0.0416517
0.0436518
0.0453593
0.0468202
0.0480699
0.0491369
0.050045
0.050814
0.051461
0.0520008
0.052446
0.0528077
0.0530948
0.0533152
0.0534748
0.0535781
0.0536281
0.0100502
0.022477
0.0287129
0.033072
0.0364899
0.0392965
0.0416525
0.0436527
0.0453604
0.0468215
0.0480714
0.0491387
0.050047
0.0508162
0.0514635
0.0520035
0.0524489
0.0528108
0.0530981
0.0533186
0.0534783
0.0535817
0.0536318
0.0100502
0.0224771
0.028713
0.0330722
0.0364902
0.0392969
0.041653
0.0436534
0.0453612
0.0468224
0.0480725
0.04914
0.0500484
0.0508178
0.0514652
0.0520054
0.052451
0.052813
0.0531005
0.0533211
0.0534808
0.0535843
0.0536344
0.0100502
0.0224771
0.0287131
0.0330723
0.0364904
0.0392972
0.0416534
0.0436538
0.0453618
0.0468231
0.0480733
0.0491409
0.0500494
0.0508189
0.0514665
0.0520068
0.0524525
0.0528145
0.0531021
0.0533228
0.0534826
0.0535861
0.0536363
0.0100502
0.0224772
0.0287132
0.0330724
0.0364905
0.0392973
0.0416536
0.0436541
0.0453621
0.0468236
0.0480738
0.0491415
0.0500501
0.0508197
0.0514673
0.0520077
0.0524535
0.0528156
0.0531033
0.053324
0.0534839
0.0535874
0.0536376
0.0100502
0.0224772
0.0287132
0.0330725
0.0364906
0.0392975
0.0416538
0.0436543
0.0453624
0.0468239
0.0480742
0.0491419
0.0500506
0.0508203
0.0514679
0.0520084
0.0524542
0.0528164
0.0531041
0.0533248
0.0534847
0.0535883
0.0536385
0.0100502
0.0224772
0.0287133
0.0330726
0.0364907
0.0392976
0.0416539
0.0436545
0.0453626
0.0468241
0.0480744
0.0491422
0.0500509
0.0508206
0.0514683
0.0520088
0.0524547
0.0528169
0.0531046
0.0533254
0.0534853
0.0535889
0.0536391
0.0100503
0.0224772
0.0287133
0.0330726
0.0364907
0.0392976
0.041654
0.0436546
0.0453627
0.0468242
0.0480746
0.0491424
0.0500512
0.0508209
0.0514686
0.0520091
0.052455
0.0528172
0.053105
0.0533258
0.0534857
0.0535893
0.0536395
0.0100503
0.0224772
0.0287133
0.0330726
0.0364908
0.0392977
0.041654
0.0436546
0.0453627
0.0468243
0.0480747
0.0491425
0.0500513
0.050821
0.0514688
0.0520093
0.0524552
0.0528175
0.0531052
0.053326
0.053486
0.0535895
0.0536397
0.0100503
0.0224772
0.0287133
0.0330726
0.0364908
0.0392977
0.041654
0.0436547
0.0453628
0.0468243
0.0480748
0.0491426
0.0500514
0.0508211
0.0514689
0.0520094
0.0524554
0.0528176
0.0531053
0.0533262
0.0534861
0.0535897
0.0536399
0.0100503
0.0224772
0.0287133
0.0330726
0.0364908
0.0392977
0.0416541
0.0436547
0.0453628
0.0468244
0.0480748
0.0491426
0.0500514
0.0508212
0.0514689
0.0520095
0.0524554
0.0528177
0.0531054
0.0533262
0.0534862
0.0535897
0.0536399
0.0165802
0.0140895
0.0140623
0.0164484
0.0297177
0.0291845
0.0291651
0.0296599
0.0352296
0.0350746
0.0350583
0.035181
0.038784
0.0387149
0.0386986
0.0387353
0.0414493
0.041407
0.0413903
0.0413991
0.0435711
0.0435405
0.0435232
0.0435191
0.0453083
0.0452838
0.0452659
0.0452543
0.0467505
0.0467298
0.0467112
0.0466946
0.047956
0.0479377
0.0479185
0.0478982
0.0489663
0.0489497
0.0489299
0.0489067
0.0498131
0.0497977
0.0497773
0.0497519
0.0505216
0.050507
0.0504861
0.0504588
0.0511125
0.0510985
0.0510772
0.0510483
0.0516033
0.0515898
0.051568
0.0515378
0.0520089
0.0519957
0.0519735
0.0519423
0.0523422
0.0523292
0.0523067
0.0522745
0.0526143
0.0526014
0.0525787
0.0525458
0.052835
0.0528222
0.0527992
0.0527657
0.0530127
0.053
0.0529768
0.0529427
0.0531547
0.0531421
0.0531186
0.0530842
0.0532672
0.0532547
0.0532311
0.0531963
0.0533558
0.0533433
0.0533196
0.0532845
0.0534249
0.0534124
0.0533886
0.0533533
0.0534784
0.0534659
0.053442
0.0534065
0.0535194
0.0535069
0.0534829
0.0534473
0.0535506
0.0535382
0.0535141
0.0534784
0.0535742
0.0535618
0.0535377
0.0535018
0.0535919
0.0535794
0.0535553
0.0535194
0.053605
0.0535925
0.0535684
0.0535324
0.0536146
0.0536022
0.053578
0.053542
0.0536217
0.0536092
0.0535851
0.053549
0.0536268
0.0536144
0.0535902
0.0535541
0.0536305
0.053618
0.0535938
0.0535578
0.0536331
0.0536207
0.0535965
0.0535604
0.053635
0.0536225
0.0535983
0.0535622
0.0536363
0.0536238
0.0535996
0.0535635
0.0536372
0.0536247
0.0536005
0.0535644
0.0536378
0.0536253
0.0536011
0.053565
0.0536382
0.0536257
0.0536015
0.0535654
0.0536384
0.0536259
0.0536017
0.0535656
0.0536385
0.0536261
0.0536019
0.0535657
0.0536386
0.0536261
0.0536019
0.0535658
0.0243367
0.0279571
0.0300873
0.0315069
0.0324689
0.0330834
0.0334094
0.0334803
0.0333128
0.0329105
0.0322657
0.0313593
0.0301594
0.0286184
0.0266645
0.0241807
0.0209405
0.0163184
0.00721359
0.0310072
0.032578
0.0338116
0.0347535
0.0354318
0.0358654
0.0360676
0.036046
0.0358021
0.0353298
0.0346151
0.0336345
0.0323529
0.0307194
0.0286571
0.0260392
0.0226148
0.0176851
0.00784964
0.0355518
0.0362672
0.0369655
0.0375562
0.0379956
0.0382613
0.0383406
0.0382239
0.0379009
0.0373577
0.0365747
0.0355244
0.0341684
0.0324523
0.0302945
0.0275591
0.0239749
0.0187855
0.00835855
0.0388726
0.0392214
0.03961
0.0399571
0.0402091
0.0403307
0.0402972
0.0400892
0.0396887
0.039076
0.038227
0.0371106
0.0356855
0.0338939
0.0316499
0.0288099
0.0250864
0.0196778
0.00876922
0.0414527
0.041623
0.0418264
0.0420058
0.0421146
0.0421169
0.0419841
0.0416922
0.0412185
0.0405394
0.0396273
0.0384484
0.0369587
0.0350976
0.0327752
0.0298419
0.025997
0.0204035
0.00910168
0.0435327
0.0436034
0.0436893
0.0437507
0.0437503
0.0436552
0.043437
0.0430699
0.0425288
0.0417875
0.0408161
0.0395785
0.0380286
0.0361033
0.0337098
0.0306932
0.0267428
0.0209936
0.00937078
0.0452445
0.0452529
0.0452596
0.0452355
0.0451506
0.0449763
0.0446854
0.0442519
0.0436498
0.0428512
0.0418247
0.0405326
0.0389269
0.0369428
0.0344848
0.0313942
0.0273525
0.0214724
0.00958801
0.0466692
0.0466352
0.0465853
0.0464973
0.0463463
0.0461072
0.0457547
0.0452632
0.0446063
0.0437556
0.0426786
0.0413362
0.0396793
0.0376416
0.0351257
0.0319697
0.0278492
0.0218595
0.00976259
0.0478617
0.0477969
0.0477049
0.0475677
0.0473641
0.0470717
0.0466669
0.0461249
0.0454196
0.044522
0.043399
0.0420109
0.0403075
0.0382213
0.0356535
0.0324401
0.028252
0.0221709
0.00990208
0.0488617
0.0487737
0.0486494
0.0484734
0.0482273
0.0478908
0.0474417
0.0468561
0.046108
0.0451686
0.0440043
0.0425748
0.0408295
0.0387
0.0360863
0.0328228
0.0285769
0.0224198
0.0100128
0.0497002
0.049594
0.0494442
0.0492372
0.0489565
0.0485832
0.0480965
0.0474732
0.0466878
0.0457113
0.0445102
0.0430439
0.0412612
0.0390931
0.0364391
0.0331322
0.0288373
0.0226175
0.0100999
0.0504018
0.0502812
0.0501109
0.0498787
0.0495695
0.0491656
0.048647
0.0479913
0.0471733
0.0461643
0.0449307
0.0434318
0.041616
0.0394141
0.036725
0.0333808
0.0290446
0.0227733
0.010168
0.050987
0.0508546
0.0506677
0.050415
0.0500822
0.0496526
0.0491069
0.0484234
0.0475773
0.0465401
0.045278
0.0437505
0.0419058
0.0396745
0.0369551
0.0335792
0.0292084
0.0228952
0.0102206
0.0514729
0.051331
0.0511306
0.0508609
0.0505085
0.0500573
0.0494889
0.0487817
0.0479114
0.0468497
0.045563
0.0440106
0.0421409
0.0398843
0.037139
0.0337363
0.0293369
0.0229896
0.010261
0.0518744
0.0517247
0.0515131
0.0512294
0.0508608
0.0503916
0.0498039
0.0490766
0.0481857
0.047103
0.0457951
0.0442215
0.0423303
0.040052
0.0372848
0.0338598
0.0294368
0.0230623
0.0102917
0.0522042
0.0520481
0.0518273
0.0515321
0.0511499
0.0506658
0.0500618
0.0493176
0.0484092
0.0473087
0.0459828
0.044391
0.0424816
0.0401851
0.0373996
0.033956
0.0295138
0.0231176
0.0103149
0.0524734
0.052312
0.0520837
0.0517789
0.0513856
0.050889
0.0502716
0.0495131
0.04859
0.0474744
0.0461334
0.0445263
0.0426017
0.0402899
0.0374892
0.0340304
0.0295728
0.0231595
0.0103321
0.0526917
0.0525259
0.0522914
0.0519788
0.0515763
0.0510693
0.0504407
0.0496704
0.048735
0.0476069
0.0462532
0.0446334
0.0426961
0.0403718
0.0375586
0.0340875
0.0296175
0.0231908
0.0103449
0.0528673
0.052698
0.0524584
0.0521395
0.0517294
0.0512139
0.0505761
0.049796
0.0488505
0.047712
0.0463478
0.0447175
0.0427697
0.0404351
0.0376119
0.0341309
0.0296512
0.0232141
0.0103543
0.0530076
0.0528354
0.0525917
0.0522676
0.0518513
0.0513289
0.0506835
0.0498955
0.0489416
0.0477946
0.0464218
0.0447829
0.0428267
0.0404838
0.0376525
0.0341637
0.0296763
0.0232313
0.0103611
0.0531188
0.0529443
0.0526973
0.0523689
0.0519477
0.0514196
0.0507681
0.0499736
0.049013
0.0478591
0.0464793
0.0448335
0.0428705
0.0405209
0.0376832
0.0341882
0.0296948
0.0232438
0.010366
0.0532063
0.0530298
0.0527801
0.0524484
0.0520231
0.0514906
0.0508342
0.0500344
0.0490683
0.0479089
0.0465235
0.0448722
0.0429037
0.0405489
0.0377062
0.0342064
0.0297085
0.0232529
0.0103695
0.0532745
0.0530965
0.0528447
0.0525102
0.0520818
0.0515456
0.0508853
0.0500813
0.049111
0.0479471
0.0465573
0.0449016
0.0429289
0.0405699
0.0377232
0.0342198
0.0297184
0.0232594
0.010372
0.0533272
0.053148
0.0528946
0.052558
0.052127
0.051588
0.0509245
0.0501173
0.0491435
0.0479761
0.0465829
0.0449237
0.0429476
0.0405855
0.0377358
0.0342295
0.0297255
0.0232641
0.0103737
0.0533677
0.0531876
0.0529328
0.0525945
0.0521615
0.0516203
0.0509544
0.0501446
0.0491681
0.047998
0.0466021
0.0449403
0.0429616
0.040597
0.037745
0.0342366
0.0297307
0.0232674
0.0103749
0.0533984
0.0532176
0.0529618
0.0526222
0.0521877
0.0516447
0.050977
0.0501651
0.0491866
0.0480144
0.0466163
0.0449525
0.0429719
0.0406054
0.0377517
0.0342417
0.0297343
0.0232697
0.0103758
0.0534217
0.0532403
0.0529836
0.0526431
0.0522074
0.0516631
0.0509938
0.0501805
0.0492003
0.0480266
0.0466269
0.0449615
0.0429794
0.0406115
0.0377565
0.0342454
0.0297369
0.0232713
0.0103764
0.053439
0.0532572
0.053
0.0526586
0.0522221
0.0516767
0.0510064
0.0501918
0.0492105
0.0480355
0.0466346
0.044968
0.0429848
0.0406159
0.0377599
0.0342479
0.0297387
0.0232724
0.0103768
0.0534519
0.0532698
0.0530121
0.0526702
0.0522329
0.0516868
0.0510156
0.0502002
0.0492179
0.048042
0.0466402
0.0449728
0.0429887
0.0406191
0.0377624
0.0342497
0.02974
0.0232732
0.010377
0.0534614
0.0532791
0.053021
0.0526786
0.0522409
0.0516942
0.0510224
0.0502063
0.0492233
0.0480468
0.0466443
0.0449762
0.0429915
0.0406213
0.0377641
0.034251
0.0297409
0.0232737
0.0103772
0.0534684
0.0532858
0.0530275
0.0526848
0.0522467
0.0516995
0.0510273
0.0502107
0.0492272
0.0480501
0.0466472
0.0449786
0.0429935
0.0406229
0.0377653
0.0342519
0.0297415
0.0232741
0.0103773
0.0534734
0.0532907
0.0530322
0.0526893
0.0522508
0.0517034
0.0510308
0.0502138
0.04923
0.0480526
0.0466493
0.0449803
0.0429949
0.040624
0.0377661
0.0342525
0.0297419
0.0232743
0.0103774
0.053477
0.0532942
0.0530356
0.0526925
0.0522538
0.0517062
0.0510333
0.0502161
0.049232
0.0480543
0.0466507
0.0449815
0.0429959
0.0406247
0.0377667
0.0342529
0.0297422
0.0232745
0.0103775
0.0534796
0.0532967
0.053038
0.0526947
0.052256
0.0517081
0.0510351
0.0502177
0.0492334
0.0480555
0.0466517
0.0449824
0.0429965
0.0406253
0.0377671
0.0342532
0.0297423
0.0232746
0.0103775
0.0534814
0.0532985
0.0530397
0.0526963
0.0522575
0.0517095
0.0510363
0.0502188
0.0492344
0.0480563
0.0466524
0.044983
0.042997
0.0406256
0.0377674
0.0342534
0.0297425
0.0232747
0.0103775
0.0534827
0.0532997
0.0530409
0.0526975
0.0522585
0.0517105
0.0510372
0.0502196
0.0492351
0.0480569
0.0466529
0.0449834
0.0429973
0.0406259
0.0377675
0.0342535
0.0297426
0.0232747
0.0103776
0.0534836
0.0533006
0.0530417
0.0526982
0.0522592
0.0517111
0.0510378
0.0502201
0.0492355
0.0480573
0.0466532
0.0449836
0.0429975
0.040626
0.0377677
0.0342536
0.0297426
0.0232748
0.0103776
0.0534842
0.0533012
0.0530422
0.0526988
0.0522597
0.0517116
0.0510382
0.0502205
0.0492358
0.0480576
0.0466535
0.0449838
0.0429977
0.0406261
0.0377677
0.0342536
0.0297426
0.0232748
0.0103776
0.0534846
0.0533015
0.0530426
0.0526991
0.05226
0.0517119
0.0510385
0.0502207
0.049236
0.0480577
0.0466536
0.0449839
0.0429978
0.0406262
0.0377678
0.0342537
0.0297427
0.0232748
0.0103776
0.0534848
0.0533018
0.0530428
0.0526993
0.0522603
0.0517121
0.0510386
0.0502209
0.0492362
0.0480579
0.0466537
0.044984
0.0429978
0.0406263
0.0377678
0.0342537
0.0297427
0.0232748
0.0103776
0.0534849
0.0533019
0.053043
0.0526995
0.0522604
0.0517122
0.0510387
0.0502209
0.0492363
0.0480579
0.0466538
0.0449841
0.0429979
0.0406263
0.0377679
0.0342537
0.0297427
0.0232748
0.0103776
0.053485
0.053302
0.053043
0.0526995
0.0522604
0.0517122
0.0510388
0.050221
0.0492363
0.048058
0.0466538
0.0449841
0.0429979
0.0406263
0.0377679
0.0342537
0.0297427
0.0232748
0.0103776
)
;

boundaryField
{
    leftWall
    {
        type            kqRWallFunction;
        value           nonuniform List<scalar> 
50
(
0.00128563
0.00253522
0.00350166
0.00429007
0.00494142
0.00549329
0.00597044
0.006389
0.00696952
0.00759047
0.00808767
0.00848904
0.00881395
0.00907681
0.0092888
0.00945891
0.00959456
0.00970192
0.0097862
0.00985178
0.00990234
0.00994095
0.00997016
0.00999205
0.0100083
0.0100202
0.010029
0.0100353
0.0100398
0.010043
0.0100452
0.0100468
0.0100479
0.0100487
0.0100492
0.0100495
0.0100498
0.0100499
0.0100501
0.0100501
0.0100502
0.0100502
0.0100502
0.0100502
0.0100502
0.0100502
0.0100503
0.0100503
0.0100503
0.0100503
)
;
    }
    rightWall
    {
        type            kqRWallFunction;
        value           nonuniform List<scalar> 
50
(
0.00139235
0.00268471
0.00366086
0.00446531
0.00513298
0.00569936
0.00618903
0.00661841
0.00721359
0.00784964
0.00835855
0.00876922
0.00910168
0.00937078
0.00958801
0.00976259
0.00990208
0.0100128
0.0100999
0.010168
0.0102206
0.010261
0.0102917
0.0103149
0.0103321
0.0103449
0.0103543
0.0103611
0.010366
0.0103695
0.010372
0.0103737
0.0103749
0.0103758
0.0103764
0.0103768
0.010377
0.0103772
0.0103773
0.0103774
0.0103775
0.0103775
0.0103775
0.0103776
0.0103776
0.0103776
0.0103776
0.0103776
0.0103776
0.0103776
)
;
    }
    lowerWall
    {
        type            kqRWallFunction;
        value           nonuniform List<scalar> 
62
(
0.00128563
0.00281966
0.00396531
0.00479893
0.00544179
0.00595098
0.00635874
0.00668543
0.00694487
0.00714667
0.00729752
0.00740173
0.00746137
0.00747614
0.00744277
0.00735388
0.00719578
0.00694453
0.00655873
0.00596689
0.00504646
0.00358646
0.00116316
0.00116316
0.00304549
0.00441457
0.00561316
0.0067555
0.00803421
0.00996256
0.0143189
0.0165802
0.0140895
0.0140623
0.0164484
0.00122891
0.00319258
0.00458203
0.00581125
0.00699574
0.00834681
0.0104075
0.014861
0.00122891
0.00379794
0.00527291
0.0061557
0.0066902
0.00701102
0.00719141
0.00727061
0.00726903
0.00719611
0.0070543
0.0068408
0.00654807
0.00616314
0.00566533
0.00502091
0.00416948
0.00298238
0.00139235
)
;
    }
    atmosphere
    {
        type            inletOutlet;
        inletValue      uniform 0.1;
        value           nonuniform List<scalar> 
46
(
0.0100503
0.0224772
0.0287133
0.0330726
0.0364908
0.0392977
0.0416541
0.0436547
0.0453628
0.0468244
0.0480748
0.0491426
0.0500514
0.0508212
0.0514689
0.0520095
0.0524554
0.0528177
0.0531054
0.0533262
0.0534862
0.0535897
0.0536399
0.0536386
0.0536261
0.0536019
0.0535658
0.053485
0.053302
0.053043
0.0526995
0.0522604
0.0517122
0.0510388
0.050221
0.0492363
0.048058
0.0466538
0.0449841
0.0429979
0.0406263
0.0377679
0.0342537
0.0297427
0.0232748
0.0103776
)
;
    }
    defaultFaces
    {
        type            empty;
    }
}


// ************************************************************************* //
