/*--------------------------------*- C++ -*----------------------------------*\
| =========                 |                                                 |
| \\      /  F ield         | OpenFOAM: The Open Source CFD Toolbox           |
|  \\    /   O peration     | Version:  2406                                  |
|   \\  /    A nd           | Website:  www.openfoam.com                      |
|    \\/     M anipulation  |                                                 |
\*---------------------------------------------------------------------------*/
FoamFile
{
    version     2.0;
    format      ascii;
    arch        "LSB;label=32;scalar=64";
    class       volScalarField;
    location    "0.85";
    object      k;
}
// * * * * * * * * * * * * * * * * * * * * * * * * * * * * * * * * * * * * * //

dimensions      [0 2 -2 0 0 0 0];

internalField   nonuniform List<scalar> 
2268
(
0.1
0.1
0.1
0.1
0.1
0.1
0.1
0.1
0.1
0.1
0.1
0.1
0.1
0.00723132
0.00229661
0.00312615
0.00367599
0.00397393
0.00406071
0.00392142
0.00349076
0.00262796
0.000986932
0.1
0.1
0.1
0.1
0.1
0.1
0.1
0.1
0.1
0.1
0.1
0.1
0.1
0.00557498
0.0051777
0.00708701
0.00825544
0.0089029
0.00909405
0.00879421
0.00786927
0.00604073
0.00240211
0.1
0.1
0.1
0.1
0.1
0.1
0.1
0.1
0.1
0.1
0.1
0.1
0.1
0.0059759
0.00695775
0.0092934
0.0107347
0.01155
0.0118044
0.0114527
0.0103314
0.00808167
0.00334366
0.1
0.1
0.1
0.1
0.1
0.1
0.1
0.1
0.1
0.1
0.1
0.1
0.1
0.00664846
0.00835978
0.0109733
0.0125947
0.0135297
0.0138454
0.0134915
0.0122844
0.00977846
0.00414802
0.1
0.1
0.1
0.1
0.1
0.1
0.1
0.1
0.1
0.1
0.1
0.1
0.1
0.00733502
0.00955178
0.0123945
0.0141644
0.0152045
0.0155903
0.015273
0.0140555
0.0113964
0.00492351
0.1
0.1
0.1
0.1
0.1
0.1
0.1
0.1
0.1
0.1
0.1
0.1
0.1
0.00801581
0.0106086
0.0136529
0.0155568
0.0166982
0.0171664
0.0169215
0.0157667
0.0130798
0.00582786
0.1
0.1
0.1
0.1
0.1
0.1
0.1
0.1
0.1
0.1
0.1
0.1
0.1
0.00869341
0.0115722
0.014795
0.0168234
0.0180653
0.018628
0.0184889
0.0174737
0.0149511
0.00725576
0.1
0.1
0.1
0.1
0.1
0.1
0.1
0.1
0.1
0.1
0.1
0.1
0.1
0.00937163
0.0124666
0.0158455
0.0179891
0.019331
0.0199981
0.0199916
0.0191865
0.0170939
0.0104886
0.00111804
0.00320381
0.00436327
0.00505617
0.0054809
0.0057421
0.00589525
0.00596948
0.00597964
0.00593236
0.00582897
0.00566689
0.00543985
0.00513743
0.00474309
0.00422959
0.00354721
0.00258759
0.00130456
0.0028043
0.00738126
0.0098377
0.0113272
0.0122482
0.0128172
0.0131512
0.0133129
0.0133344
0.0132303
0.0130035
0.012648
0.0121496
0.0114849
0.0106172
0.00948687
0.00798952
0.00590836
0.00243187
0.00394724
0.00988613
0.0129071
0.0147317
0.0158655
0.0165688
0.0169818
0.0171799
0.0172024
0.0170668
0.0167764
0.0163234
0.0156896
0.0148452
0.0137439
0.012312
0.0104229
0.00781027
0.00325173
0.00495292
0.0119711
0.0153272
0.0173235
0.0185671
0.0193421
0.0197973
0.0200129
0.0200308
0.0198696
0.0195323
0.0190094
0.0182802
0.0173102
0.0160469
0.0144078
0.0122519
0.00927083
0.00392305
0.00593404
0.0139445
0.0174966
0.0195648
0.0208564
0.0216657
0.0221411
0.0223623
0.022371
0.0221854
0.0218076
0.021227
0.02042
0.0193491
0.0179569
0.016154
0.013787
0.0105046
0.00448693
0.0070716
0.0159511
0.0195497
0.0216063
0.022899
0.0237149
0.0241942
0.0244117
0.024407
0.0241968
0.0237821
0.0231503
0.0222762
0.0211192
0.0196182
0.0176779
0.0151329
0.0115882
0.00497826
0.00880834
0.0180954
0.0215388
0.0235075
0.0247636
0.0255647
0.0260348
0.0262413
0.0262195
0.0259842
0.0255344
0.0248562
0.0239223
0.0226898
0.0210944
0.0190357
0.0163366
0.0125592
0.0054199
0.0124714
0.0204276
0.0234688
0.0252885
0.0264804
0.0272502
0.0277011
0.0278905
0.0278487
0.0275876
0.0271042
0.026383
0.025395
0.0240953
0.0224169
0.020255
0.0174213
0.0134378
0.00582562
0.1
0.1
0.1
0.1
0.1
0.1
0.1
0.1
0.1
0.1
0.1
0.1
0.1
0.0104377
0.013773
0.0173609
0.01967
0.0211657
0.0220053
0.0222316
0.021813
0.0206052
0.0181087
0.1
0.1
0.1
0.1
0.1
0.1
0.1
0.1
0.1
0.1
0.1
0.1
0.1
0.011798
0.0152722
0.0190855
0.0215959
0.0232947
0.0243747
0.0249253
0.0249987
0.0246403
0.0239245
0.1
0.1
0.1
0.1
0.1
0.1
0.1
0.1
0.1
0.1
0.1
0.1
0.1
0.0130709
0.0165482
0.0205457
0.0232391
0.0251284
0.0264306
0.0272637
0.0277181
0.0278947
0.0279443
0.1
0.1
0.1
0.1
0.1
0.1
0.1
0.1
0.1
0.1
0.1
0.1
0.1
0.0142597
0.0176485
0.0217931
0.0246477
0.0267068
0.0282007
0.0292611
0.0299903
0.0304928
0.0308975
0.1
0.1
0.1
0.1
0.1
0.1
0.1
0.1
0.1
0.1
0.1
0.1
0.1
0.0153635
0.0186033
0.0228615
0.0258536
0.028058
0.0297106
0.030948
0.031873
0.0325818
0.0331781
0.1
0.1
0.1
0.1
0.1
0.1
0.1
0.1
0.1
0.1
0.1
0.1
0.1
0.0163799
0.0194323
0.0237752
0.0268815
0.029207
0.0309881
0.0323619
0.0334284
0.0342751
0.0349887
0.1
0.1
0.1
0.1
0.1
0.1
0.1
0.1
0.1
0.1
0.1
0.1
0.1
0.017307
0.0201505
0.0245542
0.0277535
0.0301782
0.0320622
0.0335414
0.0347121
0.0356553
0.0364477
0.1
0.1
0.1
0.1
0.1
0.1
0.1
0.1
0.1
0.1
0.1
0.1
0.1
0.0181449
0.0207706
0.0252161
0.0284905
0.0309957
0.0329618
0.0345226
0.0357714
0.0367847
0.037633
0.1
0.1
0.1
0.1
0.1
0.1
0.1
0.1
0.1
0.1
0.1
0.1
0.1
0.0188958
0.0213055
0.0257787
0.0291133
0.0316835
0.0337147
0.0353387
0.0366465
0.0377116
0.0386006
0.1
0.1
0.1
0.1
0.1
0.1
0.1
0.1
0.1
0.1
0.1
0.1
0.1
0.0195645
0.0217687
0.0262598
0.0296428
0.0322651
0.0343477
0.0360202
0.0373723
0.0384754
0.0393939
0.1
0.1
0.1
0.1
0.1
0.1
0.1
0.1
0.1
0.1
0.1
0.1
0.1
0.0201581
0.0221755
0.0266787
0.0301009
0.0327646
0.0348865
0.0365953
0.0379794
0.0391093
0.0400481
0.1
0.1
0.1
0.1
0.1
0.1
0.1
0.1
0.1
0.1
0.1
0.1
0.1
0.0206867
0.0225438
0.027057
0.030511
0.0332063
0.0353568
0.0370904
0.0384956
0.0396422
0.0405929
0.1
0.1
0.1
0.1
0.1
0.1
0.1
0.1
0.1
0.1
0.1
0.1
0.1
0.0211639
0.0228956
0.0274198
0.030899
0.0336162
0.0357839
0.0375309
0.0389461
0.0400997
0.041054
0.1
0.1
0.1
0.1
0.1
0.1
0.1
0.1
0.1
0.1
0.1
0.1
0.1
0.0216092
0.0232605
0.0277987
0.0312952
0.0340222
0.0361938
0.037941
0.0393543
0.0405044
0.0414538
0.1
0.1
0.1
0.1
0.1
0.1
0.1
0.1
0.1
0.1
0.1
0.1
0.1
0.022054
0.0236822
0.0282353
0.0317356
0.0344548
0.0366125
0.038344
0.0397416
0.0408767
0.0418117
0.1
0.1
0.1
0.1
0.1
0.1
0.1
0.1
0.1
0.1
0.1
0.1
0.1
0.0225548
0.024231
0.0287877
0.0322639
0.0349465
0.0370657
0.0387612
0.0401269
0.041234
0.0421444
0.1
0.1
0.1
0.1
0.1
0.1
0.1
0.1
0.1
0.1
0.1
0.1
0.1
0.0232312
0.0250297
0.029536
0.0329291
0.0355291
0.037576
0.0392107
0.0405258
0.0415907
0.0424655
0.1
0.1
0.1
0.1
0.1
0.1
0.1
0.1
0.1
0.1
0.1
0.1
0.1
0.0243731
0.0262876
0.0305756
0.0337752
0.0362262
0.038159
0.0397049
0.0409495
0.0419576
0.0427858
0.1
0.1
0.1
0.1
0.1
0.1
0.1
0.1
0.1
0.1
0.1
0.1
0.1
0.0265558
0.0282353
0.0319552
0.0348116
0.0370412
0.0388184
0.0402486
0.041404
0.0423416
0.0431129
0.1
0.1
0.1
0.1
0.1
0.1
0.1
0.1
0.1
0.1
0.1
0.1
0.030789
0.0268355
0.0304172
0.0335255
0.0359826
0.0379511
0.0395447
0.040839
0.0418902
0.042746
0.0434517
0.01834
0.0182478
0.0190664
0.0198091
0.0203973
0.0208708
0.021279
0.021677
0.0221411
0.0228081
0.0239855
0.026271
0.0267211
0.0297467
0.0326959
0.0351787
0.0372307
0.0389247
0.0403211
0.0414678
0.0424052
0.0431714
0.0438052
0.00547054
0.0108664
0.0139971
0.0162492
0.0179831
0.0193823
0.0205684
0.0216441
0.0227205
0.0239503
0.0255647
0.0278035
0.0302012
0.0326171
0.0348458
0.0368079
0.0384955
0.039927
0.0411276
0.0421243
0.0429444
0.0436172
0.0441758
0.00521423
0.0122647
0.0160577
0.0188028
0.0209489
0.0227008
0.0241908
0.0255253
0.0268064
0.0281452
0.0296579
0.0314036
0.0332375
0.0350607
0.0367832
0.0383484
0.0397317
0.0409287
0.0419466
0.0427989
0.0435036
0.0440834
0.0445661
0.00602116
0.0139014
0.0180672
0.0210883
0.0234768
0.0254437
0.0271194
0.0286036
0.0299834
0.031339
0.0327351
0.0341951
0.0356739
0.0371265
0.0385064
0.0397768
0.0409154
0.0419121
0.0427668
0.0434859
0.0440817
0.044572
0.044981
0.00668693
0.0152695
0.0197367
0.0229643
0.0255283
0.0276497
0.0294561
0.0310402
0.0324768
0.0338279
0.0351388
0.0364291
0.0376897
0.0389026
0.0400453
0.0410969
0.0420422
0.0428725
0.043586
0.0441863
0.0446825
0.0450894
0.0454286
0.0072058
0.016379
0.0211107
0.0245155
0.027224
0.0294689
0.0313773
0.0330365
0.0345131
0.0358595
0.0371139
0.0382977
0.0394164
0.040467
0.0414412
0.0423294
0.0431232
0.0438176
0.0444117
0.0449085
0.045316
0.0456473
0.0459223
0.00761893
0.0172857
0.0222538
0.0258205
0.028659
0.0310126
0.0330089
0.034732
0.0362438
0.037592
0.0388119
0.0399271
0.0409508
0.0418885
0.0427409
0.0435061
0.0441817
0.0447664
0.0452611
0.0456697
0.0459998
0.046264
0.0464813
0.00795827
0.0180464
0.0232312
0.0269523
0.0299157
0.0323726
0.0344519
0.0362357
0.0377836
0.0391411
0.040343
0.0414148
0.0423741
0.0432321
0.0439954
0.0446677
0.0452512
0.0457479
0.046161
0.0464955
0.0467595
0.0469654
0.0471319
0.00825063
0.0187162
0.024109
0.0279848
0.0310748
0.0336361
0.0357988
0.0376443
0.0392315
0.0406053
0.0418011
0.0428464
0.043762
0.044563
0.0452605
0.0458623
0.046374
0.0468006
0.0471473
0.0474205
0.047629
0.0477854
0.0479081
0.008522
0.0193521
0.0249583
0.0289978
0.0322223
0.0348938
0.0371435
0.0390534
0.0406828
0.0420778
0.0432752
0.0443048
0.0451902
0.0459497
0.0465977
0.0471451
0.0476006
0.0479715
0.0482647
0.0484878
0.0486505
0.0487657
0.0488518
0.00880101
0.0200186
0.0258608
0.0300828
0.0334556
0.0362459
0.038587
0.040563
0.0422355
0.043653
0.0448551
0.0458742
0.0467368
0.0474641
0.0480732
0.0485777
0.0489884
0.0493147
0.0495649
0.0497479
0.0498737
0.0499556
0.0500119
0.00912205
0.0207936
0.0269144
0.0313482
0.0348877
0.0378058
0.0402404
0.0422805
0.0439923
0.0454286
0.046633
0.0476412
0.0484829
0.049182
0.049758
0.0502265
0.0506004
0.0508904
0.0511062
0.0512572
0.0513541
0.0514102
0.0514434
0.00952854
0.0217744
0.0282394
0.0329241
0.0366501
0.0397017
0.0422261
0.0443211
0.046061
0.0475054
0.0487031
0.0496941
0.0505113
0.0511812
0.0517254
0.0521614
0.0525032
0.0527627
0.0529504
0.0530764
0.0531515
0.0531887
0.0532051
0.0100761
0.0230832
0.0299835
0.0349652
0.0388941
0.0420757
0.0446749
0.0468047
0.0485517
0.0499849
0.0511597
0.0521209
0.0529047
0.05354
0.05405
0.0544533
0.054765
0.0549976
0.0551621
0.0552686
0.0553279
0.0553523
0.0553578
0.0108356
0.0248745
0.0323274
0.0376533
0.0417893
0.0450803
0.047722
0.0498514
0.0515723
0.0529654
0.0540937
0.0550069
0.0557439
0.0563354
0.0568055
0.0571735
0.0574549
0.0576623
0.0578066
0.0578979
0.0579463
0.0579632
0.0579631
0.0118986
0.0273469
0.035495
0.0412013
0.0455222
0.0488734
0.051501
0.0535762
0.0552244
0.0565393
0.0575913
0.0584337
0.0591071
0.059643
0.0600656
0.0603939
0.0606431
0.0608254
0.0609513
0.0610301
0.0610713
0.0610851
0.0610835
0.0133898
0.0307723
0.0397743
0.0458597
0.0502931
0.0536117
0.0561369
0.0580835
0.0596
0.0607914
0.0617329
0.0624794
0.0630713
0.063539
0.0639055
0.0641888
0.0644029
0.0645592
0.0646672
0.0647354
0.0647719
0.0647852
0.0647853
0.0155016
0.0355604
0.0455538
0.0519224
0.0563065
0.0594384
0.0617372
0.0634621
0.0647795
0.0657992
0.0665961
0.0672225
0.0677158
0.0681035
0.0684061
0.0686393
0.0688155
0.0689443
0.0690342
0.0690922
0.0691251
0.0691396
0.069143
0.0185849
0.0424054
0.0533695
0.0597108
0.0637416
0.06646
0.0683783
0.0697802
0.0708319
0.0716362
0.0722594
0.0727462
0.0731278
0.0734268
0.0736597
0.0738391
0.073975
0.0740751
0.074146
0.0741935
0.0742226
0.0742384
0.0742455
0.0234654
0.0526087
0.0639029
0.0694836
0.0726804
0.0747081
0.0760906
0.077082
0.077818
0.0783775
0.0788095
0.0791461
0.0794096
0.0796158
0.0797766
0.0799008
0.0799953
0.0800658
0.0801169
0.0801528
0.080177
0.0801927
0.0802024
0.0334918
0.0684676
0.077608
0.0811583
0.0829821
0.0840962
0.0848509
0.0853941
0.0857999
0.08611
0.0863503
0.0865382
0.0866857
0.0868014
0.0868919
0.0869621
0.0870161
0.0870571
0.0870877
0.0871105
0.0871275
0.0871405
0.0871503
0.0624023
0.0906442
0.0931801
0.0938454
0.0941907
0.09443
0.0946109
0.094751
0.0948605
0.0949467
0.0950148
0.0950686
0.0951113
0.095145
0.0951716
0.0951925
0.0952088
0.0952216
0.0952316
0.0952398
0.0952466
0.0952528
0.0952584
0.0125139
0.0108725
0.0110925
0.0133424
0.0233056
0.0231928
0.0235274
0.0243136
0.0280807
0.0282706
0.0286019
0.0290689
0.0312462
0.0315161
0.031844
0.0322259
0.0336196
0.0339229
0.0342523
0.0346052
0.0354835
0.0358067
0.03614
0.0364814
0.0369781
0.0373153
0.0376533
0.0379902
0.0381889
0.0385368
0.0388792
0.0392147
0.0391753
0.0395313
0.0398776
0.0402128
0.0399822
0.0403441
0.0406932
0.0410283
0.0406454
0.041011
0.0413617
0.0416963
0.0411948
0.0415618
0.0419125
0.0422457
0.0416559
0.042022
0.0423707
0.042701
0.0420506
0.0424131
0.0427577
0.0430834
0.0423981
0.0427538
0.0430917
0.0434107
0.0427145
0.0430602
0.0433885
0.0436983
0.0430132
0.0433453
0.043661
0.0439592
0.0433047
0.0436199
0.0439199
0.0442039
0.0435973
0.0438922
0.0441737
0.044441
0.0438967
0.0441685
0.0444291
0.0446775
0.0442072
0.0444538
0.0446916
0.0449195
0.0445325
0.0447526
0.0449664
0.0451729
0.0448769
0.0450701
0.0452596
0.0454442
0.0452466
0.0454134
0.0455788
0.0457418
0.0456513
0.0457927
0.0459349
0.0460771
0.0461049
0.0462226
0.0463432
0.0464658
0.0466275
0.0467235
0.0468242
0.0469287
0.0472457
0.0473224
0.0474052
0.0474934
0.0479937
0.0480534
0.0481205
0.0481942
0.0489134
0.0489586
0.0490119
0.0490729
0.0500538
0.0500867
0.0501284
0.0501782
0.0514696
0.0514926
0.0515244
0.0515645
0.0532195
0.0532347
0.0532584
0.0532901
0.055364
0.0553734
0.0553905
0.0554148
0.0579643
0.0579697
0.0579814
0.0579992
0.0610825
0.0610853
0.0610929
0.061105
0.0647842
0.0647856
0.06479
0.0647974
0.0691432
0.0691441
0.0691463
0.0691496
0.0742476
0.0742485
0.0742492
0.0742496
0.0802062
0.0802075
0.0802073
0.0802057
0.0871548
0.0871563
0.0871559
0.0871535
0.0952615
0.0952626
0.0952623
0.0952607
0.0204294
0.0240763
0.0263401
0.0278847
0.0289502
0.0296535
0.0300625
0.0302179
0.030141
0.0298387
0.0293048
0.0285209
0.0274558
0.0260619
0.0242688
0.0219656
0.0189484
0.0146813
0.00641304
0.0260633
0.0280982
0.029687
0.0308932
0.0317704
0.0323598
0.0326921
0.0327873
0.0326551
0.0322948
0.0316956
0.0308358
0.0296811
0.0281814
0.0262624
0.0238065
0.0205914
0.0160164
0.0070379
0.0299941
0.0313342
0.0325067
0.0334534
0.0341626
0.0346385
0.0348884
0.0349177
0.0347263
0.0343074
0.0336455
0.0327157
0.0314814
0.0298897
0.0278633
0.0252784
0.0218968
0.0170662
0.00751975
0.0329278
0.0339465
0.0348657
0.0356244
0.0361957
0.0365687
0.0367389
0.036702
0.0364511
0.0359743
0.0352524
0.0342577
0.0329512
0.0312779
0.0291575
0.0264607
0.0229364
0.0178927
0.00789368
0.0352207
0.0360727
0.0368334
0.0374575
0.0379194
0.038204
0.0383011
0.0382013
0.0378931
0.0373606
0.036582
0.0355271
0.0341548
0.0324082
0.0302046
0.0274101
0.0237637
0.0185431
0.00818475
0.0370566
0.0378139
0.0384716
0.0389989
0.0393751
0.0395855
0.039618
0.0394604
0.0390985
0.0385138
0.0376823
0.0365718
0.0351397
0.0333275
0.0310502
0.0281706
0.02442
0.0190537
0.0084111
0.0385447
0.0392444
0.0398328
0.0402894
0.0405986
0.0407476
0.0407241
0.0405148
0.0401037
0.0394709
0.0385906
0.0374294
0.0359433
0.0340725
0.0317303
0.028777
0.0249382
0.0194528
0.00858637
0.0397579
0.0404205
0.0409608
0.0413649
0.0416216
0.04172
0.0416486
0.0413937
0.0409385
0.040262
0.0393375
0.0381305
0.036596
0.0346732
0.0322743
0.0292576
0.025345
0.0197627
0.00872121
0.0407493
0.041387
0.0418926
0.0422571
0.0424722
0.0425291
0.0424169
0.0421222
0.0416279
0.0409124
0.0399483
0.0387003
0.037123
0.0351546
0.0327066
0.0296361
0.025662
0.0200016
0.0088241
0.0415603
0.0421799
0.0426598
0.0429935
0.0431754
0.043198
0.0430513
0.0427223
0.0421937
0.0414438
0.0404446
0.0391606
0.0375456
0.0355376
0.0330476
0.0299317
0.025907
0.0201842
0.00890187
0.0422242
0.0428298
0.0432893
0.0435987
0.0437536
0.0437477
0.0435718
0.0432132
0.0426549
0.0418749
0.040845
0.0395295
0.037882
0.0358401
0.0333144
0.0301607
0.0260948
0.0203224
0.00896007
0.042769
0.0433622
0.0438049
0.0440941
0.0442265
0.0441967
0.0439961
0.0436123
0.0430283
0.0422222
0.0411658
0.0398231
0.0381477
0.036077
0.0335215
0.0303366
0.0262373
0.020426
0.00900317
0.0432183
0.0437993
0.0442268
0.0444986
0.0446118
0.0445617
0.04434
0.0439345
0.0433285
0.0425
0.0414208
0.040055
0.038356
0.0362611
0.0336808
0.0304704
0.0263445
0.020503
0.00903476
0.0435923
0.0441602
0.0445731
0.0448289
0.0449253
0.0448575
0.0446175
0.0441934
0.0435685
0.0427208
0.0416223
0.0402369
0.038518
0.036403
0.0338024
0.0305715
0.0264245
0.0205597
0.00905769
0.0439086
0.0444613
0.0448591
0.0450997
0.0451806
0.0450971
0.0448411
0.0444009
0.0437597
0.0428958
0.0417808
0.0403789
0.0386434
0.0365119
0.0338947
0.0306473
0.0264837
0.020601
0.00907418
0.0441818
0.0447168
0.0450985
0.0453238
0.0453899
0.045292
0.0450218
0.0445675
0.0439122
0.0430343
0.0419054
0.0404896
0.0387403
0.0365951
0.0339645
0.0307039
0.0265273
0.020631
0.00908597
0.0444247
0.0449389
0.0453027
0.0455123
0.045564
0.0454524
0.0451693
0.0447023
0.0440348
0.0431447
0.0420039
0.0405764
0.0388156
0.0366591
0.0340176
0.0307464
0.0265595
0.0206528
0.0090944
0.0446478
0.0451379
0.0454821
0.045675
0.0457121
0.0455875
0.0452922
0.0448138
0.0441353
0.0432345
0.0420834
0.0406458
0.0388751
0.0367091
0.0340585
0.0307787
0.0265837
0.0206689
0.00910049
0.0448598
0.0453227
0.0456453
0.0458207
0.0458429
0.0457054
0.0453985
0.0449093
0.0442208
0.0433105
0.04215
0.0407035
0.0389242
0.03675
0.0340915
0.0308044
0.0266025
0.0206811
0.00910505
0.0450682
0.0455011
0.0458005
0.0459573
0.0459643
0.0458138
0.0454956
0.0449962
0.0442982
0.0433789
0.0422098
0.040755
0.0389677
0.0367859
0.0341202
0.0308264
0.0266184
0.0206913
0.00910873
0.0452798
0.0456805
0.0459552
0.0460926
0.0460841
0.0459206
0.0455911
0.0450817
0.0443743
0.0434463
0.0422688
0.0408058
0.0390106
0.0368212
0.0341483
0.0308478
0.0266337
0.0207009
0.00911214
0.0455012
0.0458683
0.0461174
0.0462349
0.0462105
0.0460338
0.045693
0.0451735
0.0444568
0.0435197
0.0423336
0.0408619
0.0390583
0.0368606
0.0341798
0.0308718
0.0266508
0.0207115
0.00911589
0.0457399
0.0460728
0.046296
0.0463934
0.0463529
0.0461629
0.0458106
0.0452807
0.0445542
0.0436077
0.0424119
0.0409307
0.0391173
0.0369098
0.0342194
0.0309022
0.0266726
0.0207252
0.00912069
0.0460053
0.0463042
0.0465016
0.046579
0.0465225
0.0463192
0.0459552
0.0454145
0.0446775
0.0437204
0.0425138
0.0410212
0.039196
0.0369764
0.0342737
0.0309445
0.0267032
0.0207445
0.00912755
0.0463095
0.0465756
0.0467479
0.0468058
0.0467334
0.0465167
0.0461408
0.0455887
0.0448403
0.0438713
0.042652
0.0411457
0.0393058
0.0370705
0.0343515
0.0310057
0.0267482
0.0207734
0.00913787
0.0466688
0.0469037
0.0470522
0.0470912
0.0470035
0.0467735
0.0463854
0.0458213
0.0450604
0.0440779
0.0428436
0.0413206
0.039462
0.0372062
0.0344653
0.0310967
0.0268159
0.0208174
0.00915381
0.0471047
0.0473106
0.0474366
0.0474579
0.0473554
0.0471124
0.046712
0.0461354
0.045361
0.0443633
0.0431114
0.041568
0.0396859
0.0374035
0.034633
0.0312326
0.0269187
0.0208851
0.00917863
0.0476447
0.047824
0.0479293
0.0479339
0.0478175
0.047562
0.0471495
0.0465602
0.0457716
0.0447572
0.0434853
0.0419176
0.0400065
0.0376898
0.0348802
0.031436
0.0270747
0.0209895
0.00921739
0.0483234
0.0484784
0.0485647
0.0485541
0.0484248
0.0481578
0.0477339
0.0471324
0.0463297
0.0452978
0.0440041
0.0424087
0.0404628
0.0381034
0.0352425
0.0317391
0.0273111
0.0211501
0.00927785
0.0491824
0.0493155
0.0493843
0.0493598
0.049219
0.0489419
0.0485083
0.0478963
0.0470808
0.0460325
0.0447167
0.0430916
0.0411061
0.0386953
0.0357697
0.0321875
0.0276668
0.0213961
0.00937182
0.0502703
0.0503832
0.050436
0.0503989
0.0502484
0.0499635
0.049523
0.0489038
0.0480792
0.0470179
0.0456827
0.0440288
0.0420016
0.0395323
0.036528
0.0328444
0.0281979
0.0217701
0.00951705
0.0516409
0.051735
0.051773
0.0517249
0.0515669
0.0512774
0.0508343
0.0502134
0.0493863
0.0483192
0.0469718
0.045295
0.0432288
0.0406981
0.0376034
0.0337941
0.0289811
0.022333
0.00973961
0.0533522
0.0534284
0.0534523
0.0533948
0.0532321
0.0529424
0.052503
0.0518886
0.051069
0.0500081
0.0486616
0.0469748
0.0448804
0.0422934
0.0391027
0.0351454
0.0301191
0.0231684
0.0100765
0.0554637
0.0555225
0.0555332
0.0554681
0.0553042
0.0550198
0.0545921
0.053995
0.0531971
0.0521596
0.0508341
0.0491596
0.0470589
0.0444332
0.0411528
0.0370325
0.0317439
0.0243877
0.0105784
0.0580359
0.0580778
0.0580762
0.0580056
0.0578445
0.0575721
0.0571657
0.0565993
0.0558406
0.0548489
0.0535722
0.0519428
0.0498719
0.0472427
0.0438985
0.0396167
0.034021
0.0261351
0.0113117
0.0611304
0.0611561
0.0611433
0.06107
0.0609164
0.0606632
0.0602889
0.0597679
0.0590686
0.0581495
0.0569561
0.0554151
0.0534265
0.0508523
0.0474996
0.0430887
0.0371592
0.0286005
0.0123631
0.0648124
0.0648233
0.0648014
0.0647284
0.0645874
0.0643609
0.0640294
0.0635692
0.0629502
0.0621325
0.0610616
0.0596616
0.057824
0.0553909
0.0521273
0.0476732
0.0414294
0.0320481
0.0138522
0.0691559
0.0691541
0.0691258
0.0690569
0.0689334
0.0687407
0.0684619
0.0680764
0.0675573
0.0668687
0.0659599
0.0647579
0.0631531
0.0609758
0.0579531
0.0536301
0.0471971
0.0368821
0.0159657
0.0742489
0.0742376
0.0742066
0.0741457
0.0740445
0.0738915
0.0736732
0.073373
0.0729693
0.0724323
0.0717199
0.070769
0.0694811
0.0676934
0.065121
0.0612318
0.0549533
0.0437838
0.0190541
0.0802004
0.080184
0.0801546
0.080106
0.0800311
0.0799219
0.0797686
0.0795595
0.0792792
0.0789068
0.0784121
0.0777494
0.0768454
0.0755724
0.0736876
0.0706745
0.0652868
0.0539947
0.0240362
0.0871466
0.0871306
0.087108
0.0870758
0.0870301
0.0869661
0.0868783
0.0867598
0.0866021
0.0863936
0.0861181
0.0857512
0.0852543
0.0845601
0.0835345
0.0818587
0.07857
0.0697783
0.035388
0.0952561
0.0952475
0.0952377
0.0952259
0.0952107
0.0951907
0.0951642
0.0951292
0.0950832
0.0950233
0.0949454
0.0948441
0.0947124
0.0945411
0.0943205
0.0940454
0.0937245
0.093205
0.0865073
)
;

boundaryField
{
    leftWall
    {
        type            kqRWallFunction;
        value           nonuniform List<scalar> 
50
(
0.1
0.1
0.1
0.1
0.1
0.1
0.1
0.1
0.1
0.1
0.1
0.1
0.1
0.1
0.1
0.1
0.1
0.1
0.1
0.1
0.1
0.1
0.1
0.1
0.1
0.1
0.1
0.1
0.01834
0.00547054
0.00521423
0.00602116
0.00668693
0.0072058
0.00761893
0.00795827
0.00825063
0.008522
0.00880101
0.00912205
0.00952854
0.0100761
0.0108356
0.0118986
0.0133898
0.0155016
0.0185849
0.0234654
0.0334918
0.0624023
)
;
    }
    rightWall
    {
        type            kqRWallFunction;
        value           nonuniform List<scalar> 
50
(
0.00130456
0.00243187
0.00325173
0.00392305
0.00448693
0.00497826
0.0054199
0.00582562
0.00641304
0.0070379
0.00751975
0.00789368
0.00818475
0.0084111
0.00858637
0.00872121
0.0088241
0.00890187
0.00896007
0.00900317
0.00903476
0.00905769
0.00907418
0.00908597
0.0090944
0.00910049
0.00910505
0.00910873
0.00911214
0.00911589
0.00912069
0.00912755
0.00913787
0.00915381
0.00917863
0.00921739
0.00927785
0.00937182
0.00951705
0.00973961
0.0100765
0.0105784
0.0113117
0.0123631
0.0138522
0.0159657
0.0190541
0.0240362
0.035388
0.0865073
)
;
    }
    lowerWall
    {
        type            kqRWallFunction;
        value           nonuniform List<scalar> 
62
(
0.1
0.1
0.1
0.1
0.1
0.1
0.1
0.1
0.1
0.1
0.1
0.1
0.1
0.00723132
0.00229661
0.00312615
0.00367599
0.00397393
0.00406071
0.00392142
0.00349076
0.00262796
0.000986932
0.000986932
0.00240211
0.00334366
0.00414802
0.00492351
0.00582786
0.00725576
0.0104886
0.0125139
0.0108725
0.0110925
0.0133424
0.00111804
0.0028043
0.00394724
0.00495292
0.00593404
0.0070716
0.00880834
0.0124714
0.00111804
0.00320381
0.00436327
0.00505617
0.0054809
0.0057421
0.00589525
0.00596948
0.00597964
0.00593236
0.00582897
0.00566689
0.00543985
0.00513743
0.00474309
0.00422959
0.00354721
0.00258759
0.00130456
)
;
    }
    atmosphere
    {
        type            inletOutlet;
        inletValue      uniform 0.1;
        value           nonuniform List<scalar> 
46
(
0.0624023
0.1
0.1
0.1
0.1
0.1
0.1
0.1
0.1
0.1
0.1
0.1
0.1
0.1
0.1
0.1
0.1
0.1
0.1
0.1
0.1
0.1
0.1
0.1
0.1
0.1
0.1
0.1
0.1
0.1
0.1
0.1
0.1
0.1
0.1
0.1
0.1
0.1
0.1
0.1
0.1
0.1
0.1
0.1
0.1
0.1
)
;
    }
    defaultFaces
    {
        type            empty;
    }
}


// ************************************************************************* //
