/*--------------------------------*- C++ -*----------------------------------*\
| =========                 |                                                 |
| \\      /  F ield         | OpenFOAM: The Open Source CFD Toolbox           |
|  \\    /   O peration     | Version:  2406                                  |
|   \\  /    A nd           | Website:  www.openfoam.com                      |
|    \\/     M anipulation  |                                                 |
\*---------------------------------------------------------------------------*/
FoamFile
{
    version     2.0;
    format      ascii;
    arch        "LSB;label=32;scalar=64";
    class       volScalarField;
    location    "0.85";
    object      nut;
}
// * * * * * * * * * * * * * * * * * * * * * * * * * * * * * * * * * * * * * //

dimensions      [0 2 -1 0 0 0 0];

internalField   nonuniform List<scalar> 
2268
(
0.000289337
0.000213038
0.000213038
0.000213038
0.000213038
0.000213038
0.000213038
0.000213038
0.000213038
0.000213038
0.000213038
0.000213038
0.000213038
5.71506e-05
3.01654e-05
3.53365e-05
3.84635e-05
4.00743e-05
4.05638e-05
3.98978e-05
3.76605e-05
3.26723e-05
2.00171e-05
0.000450785
0.000254306
0.000232321
0.000225511
0.000222385
0.000220634
0.000219545
0.000218827
0.000218345
0.000218025
0.00021783
0.000217737
0.000217737
3.10916e-05
0.000151822
0.000264163
0.000309162
0.000330984
0.000338253
0.000331072
0.00030377
0.000239183
6.59832e-05
0.000450785
0.000288167
0.000251962
0.000238672
0.000232268
0.000228639
0.000226375
0.000224885
0.000223885
0.000223223
0.000222819
0.000222626
0.000222626
3.42478e-05
0.000227772
0.000438093
0.00053589
0.000584237
0.000601072
0.000586666
0.000528557
0.000391555
7.79503e-05
0.000450785
0.000314823
0.000270613
0.00025196
0.000242449
0.000236938
0.000233468
0.000231176
0.000229635
0.000228616
0.000227992
0.000227696
0.000227696
3.99092e-05
0.000281913
0.000559386
0.000702068
0.000775044
0.000801531
0.000781509
0.000696452
0.000497618
8.69203e-05
0.000450785
0.000335499
0.000287638
0.000264953
0.000252709
0.000245413
0.000240757
0.00023766
0.000235569
0.000234184
0.000233336
0.000232932
0.000232932
4.59439e-05
0.000325346
0.000652518
0.000832928
0.000928554
0.000965057
0.000941747
0.000834549
0.000582924
9.47995e-05
0.000450785
0.000351572
0.000302834
0.000277373
0.000262866
0.000253958
0.000248176
0.000244294
0.000241659
0.000239907
0.000238832
0.00023832
0.00023832
5.2177e-05
0.0003627
0.000730417
0.000944141
0.00106143
0.00110894
0.00108526
0.000961058
0.000662392
0.00010326
0.000450785
0.000364209
0.000316232
0.000289057
0.00027278
0.000262475
0.000255662
0.000251035
0.000247873
0.000245762
0.000244464
0.000243844
0.000243844
5.86175e-05
0.00039643
0.000800393
0.00104549
0.00118452
0.00124466
0.00122425
0.00108955
0.000748833
0.000115377
0.000450785
0.00037429
0.000327979
0.000299933
0.000282353
0.000270886
0.000263157
0.000257843
0.000254182
0.000251726
0.00025021
0.000249486
0.000249486
6.52921e-05
0.000428074
0.00086712
0.00114363
0.00130543
0.00138033
0.00136762
0.00123245
0.000864068
0.000138893
2.14281e-05
3.64168e-05
4.25343e-05
4.57976e-05
4.76807e-05
4.87953e-05
4.94289e-05
4.97223e-05
4.97435e-05
4.95208e-05
4.90575e-05
4.83369e-05
4.73222e-05
4.59494e-05
4.41105e-05
4.16117e-05
3.80602e-05
3.24497e-05
3.21639e-05
7.9808e-05
0.000286946
0.00036736
0.000408074
0.000430729
0.000443788
0.000451014
0.000454156
0.000454019
0.000450927
0.000444917
0.000435804
0.000423182
0.000406327
0.00038398
0.000353772
0.000310562
0.000239755
7.36577e-05
9.48711e-05
0.000486334
0.000664141
0.00075451
0.000804133
0.000832328
0.000847684
0.000854116
0.000853395
0.000846223
0.000832701
0.00081249
0.000784803
0.000748218
0.000700197
0.000635859
0.000544434
0.000395911
8.53471e-05
0.000106417
0.000629693
0.000895679
0.00103267
0.00110764
0.00114994
0.00117278
0.00118211
0.00118063
0.00116941
0.00114863
0.00111783
0.00107591
0.00102088
0.000949101
0.000853558
0.000718814
0.000503526
9.38887e-05
0.000116593
0.000745739
0.00108994
0.00126835
0.0013657
0.00142045
0.00144979
0.0014615
0.00145907
0.0014439
0.00141623
0.00137551
0.00132038
0.00124832
0.00115478
0.00103089
0.000857405
0.000584882
0.000100529
0.000127373
0.000852316
0.00126756
0.00148156
0.00159793
0.00166326
0.00169808
0.00171161
0.00170797
0.00168884
0.00165452
0.00160436
0.00153673
0.00144865
0.00133468
0.00118431
0.000975103
0.00065153
0.00010599
0.000142231
0.000964808
0.00144424
0.00168659
0.00181823
0.00189229
0.00193158
0.00194634
0.0019412
0.00191802
0.00187712
0.00181774
0.00173798
0.00163439
0.00150066
0.00132473
0.00108125
0.000709827
0.000110678
0.000169257
0.00110863
0.00163401
0.00189407
0.0020369
0.00211789
0.00216071
0.00217616
0.00216919
0.00214178
0.00209423
0.00202564
0.00193382
0.00181479
0.00166136
0.00145987
0.0011822
0.000763691
0.000114819
0.000450785
0.000387195
0.000344345
0.000315956
0.000296959
0.000284001
0.000275003
0.000268692
0.000264289
0.000261311
0.000259463
0.000258578
0.000258578
7.62321e-05
0.000475988
0.000971298
0.0012993
0.00149962
0.0016016
0.00160861
0.00149773
0.00121505
0.000708223
0.000450785
0.000399213
0.00036127
0.000333993
0.000314483
0.000300478
0.000290378
0.0002831
0.000277922
0.000274373
0.000272153
0.000271084
0.000271084
9.09751e-05
0.00052871
0.00108229
0.00146809
0.00171694
0.00186057
0.00191047
0.00186219
0.00170228
0.0014296
0.000450785
0.000408009
0.000374622
0.000349176
0.000330021
0.000315682
0.000304996
0.000297099
0.000291375
0.0002874
0.000284891
0.000283677
0.000283677
0.000105553
0.000572067
0.00117075
0.00160445
0.00189728
0.00208278
0.00217884
0.00219305
0.0021311
0.00201137
0.000450785
0.000414731
0.000385375
0.000362019
0.000343726
0.000329558
0.000318697
0.00031049
0.000304441
0.000300186
0.000297478
0.000296161
0.000296161
0.00011984
0.000608759
0.00124411
0.00171852
0.00205056
0.00227472
0.00241269
0.00247782
0.00248172
0.00244185
0.000450785
0.000420035
0.000394195
0.000372953
0.000355792
0.000342125
0.0003314
0.000323137
0.000316952
0.000312552
0.000309729
0.00030835
0.00030835
0.000133685
0.000640195
0.00130593
0.00181519
0.00218152
0.00243956
0.00261282
0.00271677
0.00276364
0.00276639
0.000450785
0.000424321
0.000401532
0.000382317
0.000366405
0.000353445
0.000343071
0.000334945
0.00032878
0.000324351
0.000321488
0.000320084
0.000320084
0.000146928
0.000667218
0.00135824
0.00189727
0.00229315
0.00258007
0.0027822
0.00291545
0.00299128
0.00301916
0.000450785
0.000427843
0.0004077
0.000390371
0.000375734
0.00036359
0.000353708
0.000345857
0.000339833
0.000335465
0.000332625
0.000331226
0.000331226
0.000159424
0.00069042
0.00140243
0.00196679
0.00238785
0.00269904
0.0029246
0.0030803
0.00317669
0.00322113
0.000450785
0.000430772
0.000412923
0.000397315
0.000383919
0.000372636
0.000363327
0.000355844
0.000350044
0.000345807
0.000343037
0.000341668
0.000341668
0.000171063
0.000710296
0.00143966
0.00202545
0.00246782
0.00279928
0.00304386
0.00321708
0.00332877
0.00338511
0.000450785
0.000433224
0.000417361
0.000403305
0.000391082
0.000380657
0.000371958
0.000364894
0.000359375
0.000355315
0.000352648
0.000351326
0.000351326
0.000181776
0.000727325
0.00147103
0.00207489
0.00253521
0.00288354
0.00314362
0.00333068
0.00345412
0.00351946
0.000450785
0.000435286
0.000421136
0.000408462
0.000397321
0.000387721
0.000379634
0.000373013
0.000367802
0.000363948
0.000361406
0.000360143
0.000360143
0.00019154
0.000742007
0.00149763
0.00211675
0.00259219
0.00295453
0.00322723
0.00342531
0.00355788
0.00363012
0.000450785
0.000437019
0.000424341
0.000412884
0.000402723
0.000393893
0.000386396
0.000380215
0.000375321
0.000371685
0.000369278
0.00036808
0.000368081
0.00020038
0.000754898
0.00152063
0.00215276
0.00264098
0.00301497
0.00329791
0.00350469
0.00364429
0.00372175
0.000450785
0.000438471
0.000427048
0.000416649
0.000407359
0.000399229
0.000392282
0.000386521
0.000381938
0.000378519
0.000376249
0.000375118
0.000375118
0.000208373
0.00076664
0.00154129
0.00218475
0.00268391
0.00306759
0.00335877
0.00357229
0.00371712
0.0037983
0.000450785
0.000439677
0.000429314
0.000419821
0.000411291
0.000403783
0.000397333
0.000391959
0.000387666
0.000384453
0.000382315
0.000381248
0.000381248
0.000215662
0.000778025
0.00156108
0.0022148
0.00272352
0.00311529
0.00341294
0.0036314
0.00377979
0.00386328
0.000450785
0.000440668
0.000431182
0.000422452
0.000414569
0.000407598
0.000401584
0.000396554
0.000392523
0.000389498
0.000387481
0.000386473
0.000386473
0.000222486
0.0007901
0.00158187
0.00224544
0.00276277
0.0031612
0.00346363
0.00368528
0.00383555
0.00391987
0.000450785
0.000441463
0.00043269
0.000424584
0.000417237
0.000410716
0.000405071
0.000400335
0.00039653
0.000393668
0.000391757
0.000390801
0.000390801
0.000229255
0.000804416
0.00160627
0.00228006
0.00280532
0.00320894
0.00351426
0.00373711
0.00388742
0.00397099
0.000450785
0.000442081
0.000433865
0.000426251
0.00041933
0.000413169
0.000407822
0.000403326
0.000399706
0.000396979
0.000395157
0.000394244
0.000394244
0.000236749
0.000823632
0.00163863
0.00232376
0.00285606
0.00326278
0.00356849
0.0037901
0.00393826
0.00401925
0.000450785
0.000442534
0.000434729
0.00042748
0.000420875
0.000414986
0.000409864
0.000405549
0.000402071
0.000399447
0.000397692
0.000396813
0.000396813
0.000246668
0.000853341
0.00168747
0.00238506
0.00292188
0.00332789
0.00363021
0.00384729
0.00399064
0.00406694
0.000450785
0.000442831
0.000435296
0.000428288
0.000421894
0.000416185
0.000411214
0.000407022
0.000403638
0.000401085
0.000399376
0.000398519
0.000398519
0.000263626
0.00090892
0.00177188
0.00247865
0.00301222
0.00341011
0.00370318
0.00391138
0.00404669
0.00411592
0.000450785
0.000442978
0.000435577
0.000428689
0.0004224
0.000416781
0.000411886
0.000407755
0.000404419
0.000401901
0.000400215
0.00039937
0.00039937
0.000307422
0.00104605
0.00193592
0.0026274
0.00313776
0.00351459
0.00379026
0.00398425
0.00410792
0.00416756
0.000450785
0.000442978
0.000435577
0.000428689
0.000422401
0.000416781
0.000411886
0.000407755
0.00040442
0.000401901
0.000400215
0.00039937
0.000280145
0.000715605
0.00150711
0.00225637
0.00285132
0.0033036
0.00364279
0.00389205
0.00406644
0.00417498
0.00422264
0.000192598
0.000182683
0.000193086
0.000202652
0.000210186
0.000216226
0.000221453
0.000226641
0.000232859
0.00024206
0.000259116
0.000304203
0.000713749
0.00136162
0.00203643
0.00263093
0.00311583
0.00349705
0.00378941
0.00400623
0.00415701
0.00424769
0.00428149
0.000101539
0.000313452
0.000431906
0.000516085
0.000581354
0.000634703
0.000680503
0.000722331
0.000764187
0.000812624
0.000883733
0.00103353
0.00150168
0.00203558
0.00255031
0.00300707
0.0033914
0.00370288
0.00394672
0.0041289
0.00425412
0.00432538
0.00434413
9.73956e-05
0.000571959
0.000842371
0.00102061
0.00115399
0.00126142
0.00135294
0.00143552
0.0015161
0.00160479
0.00172165
0.00191093
0.00224811
0.00263297
0.00301252
0.00335923
0.0036598
0.00390947
0.00410788
0.00425624
0.00435583
0.0044073
0.00441056
0.000104928
0.000728547
0.00113912
0.0014118
0.00161348
0.00177423
0.00190994
0.00203104
0.00214656
0.00226731
0.00240928
0.00259586
0.00284699
0.00312906
0.00341237
0.00367722
0.00391183
0.00410987
0.00426826
0.00438554
0.00446081
0.00449309
0.00448111
0.000110864
0.000824334
0.00133882
0.00169128
0.00195413
0.00216359
0.00233959
0.00249488
0.00263945
0.00278315
0.00293711
0.00311299
0.00331644
0.00353531
0.00375424
0.00396047
0.00414485
0.00430127
0.00442576
0.00451563
0.00456875
0.00458312
0.0045567
0.000115324
0.000890894
0.00148173
0.00189789
0.00221242
0.00246427
0.00267555
0.00286022
0.00302845
0.00318887
0.0033494
0.00351653
0.00369253
0.00387262
0.00404899
0.00421381
0.00436055
0.00448412
0.00458064
0.00464701
0.00468055
0.00467873
0.00463903
0.000118807
0.000941508
0.00159133
0.00205892
0.00241686
0.00270524
0.00294716
0.00315707
0.003345
0.00351863
0.00368411
0.00384583
0.00400544
0.00416118
0.00430912
0.00444467
0.00456338
0.00466134
0.00473514
0.00478178
0.00479843
0.00478233
0.00473072
0.000121651
0.000982844
0.00168118
0.00219206
0.00258743
0.00290786
0.00317683
0.00340893
0.00361394
0.00379895
0.00396922
0.00412837
0.00427813
0.00441823
0.00454691
0.0046616
0.00475943
0.00483754
0.00489313
0.00492347
0.00492582
0.00489741
0.00483542
0.000124117
0.00101919
0.00176043
0.00230997
0.00273916
0.00308877
0.00338241
0.00363465
0.00385512
0.00405058
0.00422593
0.00438458
0.00452854
0.00465846
0.00477387
0.00487356
0.00495579
0.00501856
0.00505968
0.00507675
0.00506726
0.00502849
0.0049577
0.000126436
0.00105403
0.00183645
0.0024231
0.00288473
0.0032622
0.00357922
0.00385039
0.00408529
0.00429064
0.00447129
0.00463077
0.00477144
0.00489461
0.00500071
0.00508945
0.00515995
0.00521091
0.00524062
0.00524709
0.005228
0.00518081
0.00510288
0.000128849
0.00109069
0.00191619
0.00254122
0.00303593
0.00344135
0.00378134
0.0040707
0.00431924
0.00453388
0.00471974
0.00488063
0.00501937
0.00513784
0.00523716
0.00531771
0.00537928
0.00542111
0.00544195
0.00544012
0.00541355
0.00535987
0.00527658
0.000131625
0.00113268
0.00200672
0.00267408
0.00320436
0.00363889
0.00400198
0.00430895
0.00457018
0.00479315
0.00498352
0.00514563
0.00528283
0.00539757
0.00549152
0.00556565
0.00562024
0.005655
0.00566905
0.00566097
0.00562894
0.00557076
0.00548406
0.000135077
0.00118363
0.00211521
0.00283138
0.00340126
0.00386682
0.00425327
0.00457697
0.00484939
0.00507903
0.00527243
0.00543469
0.00556982
0.00568085
0.00576997
0.00583862
0.00588753
0.00591675
0.0059257
0.00591325
0.00587774
0.00581715
0.00572927
0.000139563
0.00124712
0.00224842
0.00302214
0.00363689
0.00413572
0.00454543
0.00488424
0.00516542
0.00539907
0.00559304
0.00575346
0.0058851
0.00599161
0.00607569
0.00613917
0.00618312
0.0062079
0.00621319
0.00619806
0.00616106
0.00610032
0.00601375
0.000145471
0.00132623
0.00241218
0.0032542
0.00391998
0.0044541
0.004886
0.00523696
0.00552311
0.00575688
0.00594788
0.00610352
0.00622945
0.00632994
0.00640814
0.00646622
0.00650552
0.00652662
0.00652943
0.00651321
0.00647669
0.00641816
0.00633565
0.000153214
0.00142364
0.00261172
0.0035348
0.00425812
0.00482841
0.00527952
0.00563762
0.0059231
0.00615159
0.00633494
0.00648199
0.00659933
0.00669177
0.00676282
0.00681489
0.00684951
0.00686745
0.00686875
0.00685287
0.00681871
0.00676474
0.00668915
0.000163273
0.00154267
0.00285422
0.00387354
0.00466012
0.00526446
0.00572816
0.00608516
0.00636185
0.00657799
0.0067479
0.00688189
0.00698729
0.00706934
0.00713173
0.00717698
0.00720671
0.00722175
0.00722231
0.00720797
0.00717785
0.00713061
0.00706463
0.000176334
0.00169017
0.00315533
0.00428881
0.00514033
0.00576972
0.00623284
0.00657561
0.00683233
0.00702727
0.00717709
0.00729314
0.00738317
0.00745247
0.00750468
0.00754226
0.00756677
0.00757906
0.00757939
0.00756752
0.00754272
0.00750393
0.00744974
0.000193664
0.00188344
0.00355296
0.00481876
0.00572394
0.00635482
0.00679339
0.00710231
0.00732457
0.00748814
0.00761092
0.00770435
0.00777587
0.00783039
0.00787116
0.00790036
0.00791935
0.00792891
0.00792931
0.00792041
0.00790172
0.00787239
0.00783135
0.000218669
0.00216741
0.00413706
0.00553806
0.00645024
0.00703136
0.00740591
0.00765461
0.00782583
0.0079479
0.00803749
0.00810459
0.00815539
0.00819382
0.00822241
0.00824283
0.00825614
0.00826293
0.00826346
0.00825765
0.00824519
0.00822553
0.00819788
0.000267675
0.00264326
0.0051041
0.00657126
0.0073621
0.00779958
0.00805565
0.00821514
0.00832047
0.00839357
0.00844628
0.00848532
0.00851466
0.00853675
0.00855315
0.00856487
0.00857255
0.00857656
0.00857707
0.00857406
0.00856737
0.00855669
0.00854156
0.000242313
0.00348285
0.00676749
0.00801855
0.00844256
0.00861752
0.00870607
0.00875774
0.00879088
0.00881356
0.00882982
0.00884182
0.00885082
0.0088576
0.00886264
0.00886626
0.00886865
0.00886994
0.00887017
0.00886937
0.00886747
0.00886438
0.00885992
0.000152932
0.000142789
0.000144362
0.000158392
0.00117907
0.0011409
0.00115734
0.00122951
0.00192122
0.00189996
0.00192921
0.0020069
0.00240352
0.0023983
0.00243461
0.00250829
0.00274909
0.00275214
0.00279329
0.00286746
0.00301287
0.00302086
0.00306588
0.00314235
0.00322201
0.00323355
0.00328182
0.0033609
0.00339132
0.00340571
0.00345671
0.00353823
0.00352986
0.00354656
0.00359985
0.00368346
0.00364381
0.00366237
0.0037175
0.00380285
0.00373792
0.00375789
0.00381444
0.00390114
0.00381616
0.0038371
0.00389463
0.00398229
0.00388202
0.00390345
0.00396153
0.00404974
0.00393864
0.00396006
0.00401821
0.00410652
0.00398883
0.00400969
0.00406739
0.00415535
0.0040351
0.00405477
0.00411147
0.00419858
0.00407959
0.00409741
0.00415251
0.00423824
0.00412407
0.00413931
0.00419219
0.004276
0.00416987
0.0041818
0.00423185
0.00431323
0.00421788
0.00422585
0.00427252
0.004351
0.00426867
0.00427214
0.00431498
0.00439019
0.00432257
0.00432119
0.00435991
0.0044316
0.00438
0.00437361
0.00440807
0.00447613
0.00444163
0.00443026
0.0044605
0.00452494
0.00450867
0.00449253
0.00451869
0.00457966
0.00458305
0.00456246
0.00458482
0.00464254
0.00466758
0.00464296
0.00466186
0.0047166
0.00476599
0.00473783
0.00475365
0.00480571
0.00488297
0.00485179
0.00486492
0.00491459
0.00502392
0.00499031
0.00500114
0.00504864
0.00519462
0.0051592
0.00516809
0.00521356
0.00540051
0.005364
0.00537128
0.00541472
0.0056458
0.00560902
0.00561497
0.00565621
0.00593234
0.00589622
0.00590109
0.00593977
0.00625856
0.00622416
0.00622812
0.00626371
0.00661877
0.00658723
0.00659042
0.00662223
0.0070033
0.00697569
0.00697821
0.00700554
0.0073994
0.00737664
0.00737856
0.00740081
0.00779324
0.00777592
0.00777731
0.0077941
0.00817227
0.00816057
0.00816148
0.0081728
0.00852766
0.00852126
0.00852176
0.00852799
0.00885585
0.00885404
0.00885421
0.00885611
0.0008263
0.00152165
0.00197315
0.00223641
0.00239066
0.00248032
0.00252761
0.00254349
0.00253312
0.00249861
0.00244017
0.00235661
0.00224522
0.00210107
0.00191545
0.00167211
0.00133862
0.000844294
0.000120566
0.00160532
0.00207433
0.00242115
0.00265326
0.00280174
0.00289171
0.00293887
0.00295197
0.00293546
0.0028911
0.0028188
0.00271695
0.00258219
0.00240859
0.00218578
0.00189491
0.00149956
0.000924901
0.00012645
0.00223066
0.00255709
0.00282407
0.00302009
0.00315378
0.00323717
0.00327971
0.00328739
0.00326342
0.00320891
0.00312337
0.00300476
0.00284919
0.00264996
0.00239554
0.00206532
0.00162048
0.000984381
0.000130859
0.00269534
0.0029554
0.00317329
0.00334031
0.00345804
0.00353195
0.00356731
0.00356783
0.00353548
0.0034707
0.00337251
0.00323849
0.00306434
0.00284278
0.00256146
0.0021986
0.00171391
0.00102984
0.000134222
0.00304789
0.00327984
0.00347015
0.00361677
0.00372059
0.00378455
0.00381168
0.00380417
0.00376302
0.00368807
0.00357792
0.00342983
0.00323914
0.00299819
0.00269406
0.00230419
0.00178729
0.00106526
0.000136815
0.00332422
0.00354506
0.00372039
0.00385337
0.00394603
0.00400075
0.00401959
0.00400386
0.00395393
0.00386917
0.00374787
0.00358703
0.00338174
0.00312403
0.00280062
0.00238842
0.00184542
0.00109312
0.000138825
0.0035462
0.00376323
0.00393049
0.00405441
0.00413838
0.00418498
0.004196
0.00417233
0.00411397
0.00401999
0.00388847
0.0037162
0.0034981
0.00322601
0.00288639
0.00245576
0.00189162
0.00111512
0.000140385
0.00372714
0.00394343
0.00410628
0.00422409
0.00430132
0.00434099
0.0043449
0.00431385
0.00424765
0.00414521
0.00400446
0.00382206
0.00359283
0.00330848
0.00295529
0.00250954
0.00192829
0.00113247
0.000141591
0.00387562
0.0040924
0.00425279
0.00436634
0.0044383
0.0044721
0.00446974
0.00443201
0.0043587
0.00424863
0.00409967
0.00390841
0.0036696
0.00337488
0.00301042
0.00255229
0.00195729
0.00114609
0.000142519
0.00399772
0.00421539
0.00437432
0.00448478
0.00455254
0.00458141
0.00457357
0.00452994
0.0044503
0.00433348
0.00417733
0.0039784
0.00373144
0.00342803
0.00305426
0.00258608
0.00198007
0.00115672
0.000143228
0.00409816
0.00431668
0.00447464
0.00458274
0.00464709
0.0046718
0.00465925
0.00461045
0.00452528
0.00440259
0.00424021
0.00403474
0.00378089
0.00347025
0.00308886
0.00261258
0.00199782
0.00116495
0.000143766
0.00418086
0.00439998
0.00455714
0.00466329
0.00472481
0.00474598
0.00472938
0.00467614
0.00458618
0.00445843
0.00429075
0.00407974
0.00382014
0.00350354
0.00311595
0.00263319
0.00201153
0.00117126
0.000144169
0.00424922
0.00446853
0.00462484
0.00472927
0.00478834
0.00480648
0.00478641
0.00472933
0.00463529
0.00450322
0.00433106
0.00411542
0.00385106
0.00352957
0.00313699
0.00264908
0.00202202
0.00117605
0.00014447
0.00430626
0.00452522
0.00468049
0.00478326
0.00484012
0.00485561
0.00483253
0.00477218
0.00467465
0.00453894
0.004363
0.00414351
0.00387523
0.00354979
0.0031532
0.00266122
0.00202999
0.00117966
0.000144691
0.00435462
0.00457261
0.00472655
0.00482759
0.00488237
0.00489548
0.00486977
0.00480659
0.00470608
0.0045673
0.00438821
0.00416553
0.00389405
0.0035654
0.00316562
0.00267044
0.00203598
0.00118235
0.000144853
0.00439662
0.00461297
0.00476517
0.00486434
0.00491708
0.00492798
0.00489992
0.00483428
0.00473122
0.00458982
0.0044081
0.00418278
0.00390867
0.00357743
0.0031751
0.00267742
0.00204047
0.00118434
0.000144971
0.00443427
0.00464824
0.00479826
0.00489534
0.004946
0.00495481
0.00492459
0.00485677
0.00475149
0.00460786
0.00442391
0.00419638
0.0039201
0.00358675
0.00318238
0.00268272
0.00204384
0.00118582
0.000145057
0.00446924
0.00468008
0.00482747
0.00492222
0.00497072
0.00497746
0.00494524
0.00487542
0.00476818
0.00462261
0.00443674
0.00420732
0.00392922
0.00359411
0.00318806
0.00268682
0.00204642
0.00118694
0.00014512
0.00450293
0.00470995
0.00485425
0.00494641
0.00499265
0.00499733
0.00496317
0.0048915
0.00478247
0.00463514
0.00444757
0.0042165
0.00393681
0.00360018
0.0031927
0.00269012
0.00204847
0.00118782
0.000145169
0.00453649
0.00473907
0.0048799
0.00496924
0.0050131
0.00501569
0.00497963
0.00490619
0.00479546
0.00464651
0.00445735
0.00422476
0.00394359
0.00360558
0.00319679
0.00269299
0.00205023
0.00118856
0.000145209
0.00457094
0.0047686
0.00490563
0.00499197
0.00503335
0.00503382
0.00499587
0.00492068
0.0048083
0.00465775
0.00446704
0.00423294
0.00395032
0.00361092
0.00320082
0.00269582
0.00205195
0.00118928
0.000145247
0.00460726
0.00479967
0.00493271
0.00501592
0.00505476
0.00505307
0.00501321
0.00493625
0.00482219
0.00467
0.00447768
0.00424199
0.00395782
0.00361689
0.00320536
0.002699
0.00205388
0.00119008
0.000145289
0.00464654
0.00483356
0.00496253
0.00504256
0.00507883
0.00507495
0.00503313
0.00495436
0.00483853
0.00468459
0.0044905
0.00425302
0.00396704
0.00362433
0.00321105
0.00270302
0.00205635
0.00119112
0.000145344
0.00469013
0.0048718
0.00499673
0.00507362
0.00510732
0.00510124
0.00505743
0.00497674
0.00485901
0.00470311
0.004507
0.0042674
0.00397924
0.00363429
0.00321877
0.00270855
0.00205977
0.00119256
0.00014542
0.00473981
0.00491633
0.00503737
0.00511121
0.00514241
0.00513413
0.00508827
0.00500555
0.00488573
0.00472761
0.00452911
0.00428694
0.00399603
0.0036482
0.0032297
0.00271648
0.00206473
0.00119468
0.000145534
0.00479795
0.00496963
0.00508701
0.00515797
0.00518675
0.0051763
0.00512834
0.00504347
0.00492133
0.00476066
0.00455932
0.00431399
0.0040196
0.00366798
0.00324547
0.00272807
0.00207209
0.00119786
0.000145708
0.00486765
0.00503485
0.00514885
0.00521712
0.00524361
0.00523103
0.00518094
0.0050938
0.00496911
0.00480554
0.00460084
0.00435163
0.00405282
0.00369626
0.00326832
0.00274511
0.00208306
0.00120266
0.000145975
0.00495275
0.00511585
0.00522674
0.00529253
0.00531685
0.00530223
0.00525002
0.00516053
0.00503313
0.00486631
0.00465771
0.00440384
0.00409951
0.00373655
0.00330135
0.00277011
0.00209939
0.00120991
0.000146386
0.00505791
0.00521716
0.00532515
0.00538862
0.00541093
0.00539439
0.00534015
0.00524834
0.00511814
0.00494785
0.00473489
0.00447558
0.00416454
0.00379348
0.00334873
0.00280652
0.00212352
0.00122079
0.000147015
0.00518835
0.0053438
0.00544896
0.0055102
0.00553064
0.00551234
0.00545628
0.00536235
0.00522949
0.00505573
0.00483817
0.0045728
0.0042539
0.00387286
0.00341581
0.00285889
0.00215881
0.00123695
0.000147975
0.00534949
0.00550087
0.00560303
0.005662
0.00568067
0.00566087
0.00560336
0.00550777
0.00537273
0.00519589
0.0049739
0.0047022
0.00437451
0.00398164
0.0035092
0.00293301
0.00220957
0.00126059
0.000149424
0.00554631
0.00569289
0.00579155
0.00584803
0.00586498
0.00584401
0.00578562
0.00568917
0.00555288
0.00537392
0.0051483
0.00487066
0.00453378
0.00412749
0.00363644
0.00303563
0.00228103
0.00129448
0.00015158
0.00578242
0.00592291
0.00601718
0.00607072
0.00608592
0.00606419
0.00600576
0.00590964
0.00577362
0.00559422
0.00536661
0.00508432
0.00473872
0.00431804
0.00380527
0.00317393
0.00237887
0.00134169
0.000154726
0.00605902
0.00619151
0.00628011
0.00632999
0.00634336
0.00632136
0.00626396
0.0061698
0.00603616
0.00585884
0.00563193
0.00534747
0.00499484
0.00455982
0.00402274
0.00335462
0.0025084
0.00140523
0.000159201
0.00637391
0.00649599
0.00657726
0.0066226
0.00663395
0.00661225
0.00655716
0.00646698
0.00633847
0.00616661
0.00594426
0.00566156
0.00530522
0.00485746
0.00429446
0.00358324
0.00267396
0.00148754
0.000165382
0.00672098
0.00682991
0.00690205
0.00694184
0.00695101
0.00693022
0.00687889
0.006795
0.00667486
0.00651267
0.00629997
0.00602472
0.00567019
0.00521366
0.00462502
0.00386491
0.00287937
0.0015906
0.000173678
0.0070904
0.00718354
0.00724482
0.00727816
0.007285
0.0072658
0.00721975
0.00714463
0.00703644
0.0068888
0.00669207
0.00643199
0.00608783
0.00563037
0.00502017
0.00420722
0.00313064
0.00171714
0.000184581
0.00746975
0.007545
0.00759411
0.00762037
0.00762492
0.007608
0.00756871
0.00750479
0.0074122
0.00728437
0.00711099
0.00687604
0.00655487
0.00611051
0.00549031
0.00462607
0.00344208
0.00187339
0.00019882
0.00784592
0.00790218
0.00793855
0.00795756
0.00796007
0.00794614
0.00791489
0.00786425
0.00779054
0.00768761
0.00754543
0.00734751
0.0070667
0.00665866
0.0060539
0.00515385
0.00384745
0.00207433
0.000217764
0.00820748
0.00824496
0.00826891
0.00828108
0.00828202
0.00827171
0.0082494
0.00821348
0.00816101
0.00808703
0.00798312
0.0078346
0.00761537
0.00727805
0.00673747
0.00585031
0.0044232
0.0023572
0.000245056
0.00854681
0.0085671
0.00857989
0.00858615
0.00858619
0.00857993
0.00856691
0.00854612
0.00851574
0.00847267
0.00841141
0.00832197
0.00818503
0.00796118
0.00756571
0.00681435
0.0053506
0.00283384
0.000297747
0.00886159
0.00886742
0.00887105
0.00887274
0.00887258
0.00887055
0.00886647
0.00886005
0.00885069
0.00883744
0.00881853
0.00879067
0.00874712
0.00867235
0.00852488
0.00817221
0.00713365
0.00405856
0.000465819
)
;

boundaryField
{
    leftWall
    {
        type            nutkWallFunction;
        blending        stepwise;
        value           nonuniform List<scalar> 
50
(
0
0
0
0
0
0
0
0
0
0
0
0
0
0
0
0
0
0
0
0
0
0
0
0
0
0
0
5.36008e-05
1.88189e-05
5.72282e-06
5.33029e-06
6.53179e-06
7.45517e-06
8.13885e-06
8.66327e-06
9.08198e-06
9.43459e-06
9.75556e-06
1.00795e-05
1.04451e-05
1.08976e-05
1.14899e-05
1.2282e-05
1.3339e-05
1.47347e-05
1.65673e-05
1.90035e-05
2.24286e-05
2.83675e-05
4.12382e-05
)
;
    }
    rightWall
    {
        type            nutkWallFunction;
        blending        stepwise;
        value           nonuniform List<scalar> 
50
(
0
1.34569e-06
3.32567e-06
4.74093e-06
5.82535e-06
6.70802e-06
7.4597e-06
8.11988e-06
9.03065e-06
9.94849e-06
1.06249e-05
1.11328e-05
1.15188e-05
1.18136e-05
1.20387e-05
1.22102e-05
1.234e-05
1.24375e-05
1.25102e-05
1.25638e-05
1.2603e-05
1.26315e-05
1.26519e-05
1.26665e-05
1.26769e-05
1.26844e-05
1.269e-05
1.26946e-05
1.26988e-05
1.27034e-05
1.27093e-05
1.27178e-05
1.27305e-05
1.27502e-05
1.27807e-05
1.28283e-05
1.29023e-05
1.30168e-05
1.31924e-05
1.34587e-05
1.38552e-05
1.44321e-05
1.52476e-05
1.6366e-05
1.78608e-05
1.98332e-05
2.24647e-05
2.62415e-05
3.34393e-05
5.55327e-05
)
;
    }
    lowerWall
    {
        type            nutkWallFunction;
        blending        stepwise;
        value           nonuniform List<scalar> 
62
(
0
0
0
0
0
0
0
0
0
0
0
0
2.16739e-05
0
0
0
0
0
0
0
0
0
0
0
0
2.05222e-06
3.56539e-06
4.87142e-06
6.25283e-06
8.20317e-06
1.19242e-05
1.40493e-05
1.24354e-05
1.26594e-05
1.48181e-05
0
2.28632e-06
4.78922e-06
6.66376e-06
8.29182e-06
9.99664e-06
1.23201e-05
1.6478e-05
0
0
0
0
0
0
0
0
0
0
0
0
0
0
0
0
0
0
0
)
;
    }
    atmosphere
    {
        type            calculated;
        value           nonuniform List<scalar> 
46
(
0.000242313
0.009
0.009
0.009
0.009
0.009
0.009
0.009
0.009
0.009
0.009
0.009
0.009
0.009
0.009
0.009
0.009
0.009
0.009
0.009
0.009
0.009
0.009
0.009
0.009
0.009
0.009
0.009
0.009
0.009
0.009
0.009
0.009
0.009
0.009
0.009
0.009
0.009
0.009
0.009
0.009
0.009
0.009
0.009
0.009
0.009
)
;
    }
    defaultFaces
    {
        type            empty;
    }
}


// ************************************************************************* //
