/*--------------------------------*- C++ -*----------------------------------*\
| =========                 |                                                 |
| \\      /  F ield         | OpenFOAM: The Open Source CFD Toolbox           |
|  \\    /   O peration     | Version:  2406                                  |
|   \\  /    A nd           | Website:  www.openfoam.com                      |
|    \\/     M anipulation  |                                                 |
\*---------------------------------------------------------------------------*/
FoamFile
{
    version     2.0;
    format      ascii;
    arch        "LSB;label=32;scalar=64";
    class       volScalarField;
    location    "0.85";
    object      nut;
}
// * * * * * * * * * * * * * * * * * * * * * * * * * * * * * * * * * * * * * //

dimensions      [0 2 -1 0 0 0 0];

internalField   nonuniform List<scalar> 
2268
(
3.10703e-05
3.40621e-05
4.04663e-05
4.45799e-05
4.75311e-05
4.97618e-05
5.14926e-05
5.28502e-05
5.3914e-05
5.4736e-05
5.53506e-05
5.57797e-05
5.60345e-05
5.61155e-05
5.60111e-05
5.56921e-05
5.51023e-05
5.41393e-05
5.26162e-05
5.01808e-05
4.61307e-05
3.88494e-05
2.20224e-05
6.81072e-05
0.000261105
0.000347905
0.000401562
0.00043956
0.000468215
0.00049051
0.000508097
0.000521981
0.000532811
0.000541013
0.000546854
0.000550473
0.000551879
0.000550926
0.000547242
0.000540093
0.000528095
0.000508629
0.000476579
0.000421346
0.000317608
7.55097e-05
8.02064e-05
0.000439471
0.000634429
0.000757918
0.000846104
0.000913024
0.00096542
0.00100702
0.00104008
0.00106606
0.00108589
0.00110017
0.00110919
0.00111297
0.00111112
0.00110273
0.00108596
0.00105732
0.00101014
0.000931436
0.000795499
0.000548494
9.10984e-05
8.89004e-05
0.000564
0.000857802
0.00105007
0.00118918
0.00129554
0.00137928
0.00144609
0.00149943
0.00154153
0.00157383
0.00159723
0.00161217
0.00161863
0.00161598
0.00160267
0.00157564
0.00152904
0.00145181
0.00132277
0.00110194
0.000716357
0.000102864
9.55095e-05
0.000656921
0.00103646
0.00129246
0.00148024
0.00162491
0.00173942
0.00183116
0.00190468
0.00196291
0.00200776
0.00204042
0.00206145
0.00207079
0.00206754
0.00204953
0.00201251
0.00194837
0.00184188
0.00166429
0.00136283
0.000850873
0.000112969
0.000100788
0.000730091
0.0011835
0.00149748
0.0017308
0.00191193
0.00205602
0.00217192
0.00226511
0.00233916
0.00239641
0.00243829
0.0024655
0.00247793
0.00247444
0.00245231
0.00240621
0.00232613
0.00219333
0.00197268
0.00159951
0.000971982
0.000123326
0.000105155
0.00078997
0.00130737
0.00167376
0.00194932
0.0021648
0.00233706
0.00247614
0.00258833
0.00267777
0.00274715
0.00279818
0.00283165
0.00284744
0.0028442
0.00281879
0.00276505
0.00267156
0.00251716
0.00226222
0.0018317
0.00109889
0.000137489
0.000108855
0.000840325
0.00141364
0.00182736
0.00214193
0.0023896
0.00258854
0.00274975
0.00288021
0.00298453
0.00306578
0.00312585
0.00316568
0.00318515
0.00318279
0.00315516
0.0030956
0.00299191
0.00282191
0.00254464
0.00208078
0.00126864
0.000165021
2.26182e-05
3.99636e-05
4.71279e-05
5.09298e-05
5.30898e-05
5.4334e-05
5.50082e-05
5.52845e-05
5.52475e-05
5.49336e-05
5.43486e-05
5.34742e-05
5.22678e-05
5.0655e-05
4.85102e-05
4.56099e-05
4.15031e-05
3.5036e-05
3.33831e-05
8.58157e-05
0.000333774
0.000434857
0.000486137
0.000514172
0.000529777
0.000537903
0.000540922
0.000539965
0.000535507
0.000527624
0.000516093
0.000500382
0.000479555
0.000451996
0.000414733
0.000361446
0.000274616
7.78178e-05
0.000103027
0.000585576
0.000828625
0.00095491
0.0010234
0.00106087
0.00107993
0.00108664
0.00108384
0.00107276
0.00105363
0.00102598
0.000988648
0.000939531
0.000875001
0.000788341
0.000665389
0.000468939
9.10675e-05
0.000116196
0.000771903
0.00115528
0.00136126
0.00147351
0.00153462
0.00156539
0.00157592
0.00157101
0.00155272
0.0015215
0.0014767
0.00141653
0.00133781
0.00123497
0.00109786
0.000905603
0.000607036
0.000100728
0.000127636
0.000922091
0.00143492
0.00171698
0.00187154
0.00195562
0.00199772
0.00201179
0.00200452
0.00197882
0.0019354
0.00187341
0.00179055
0.00168262
0.00154238
0.00135673
0.00109956
0.000711007
0.000108116
0.000139572
0.001057
0.00168788
0.00203741
0.00222949
0.00233414
0.00238632
0.00240325
0.00239327
0.00236003
0.00230448
0.00222561
0.00212063
0.00198448
0.00180844
0.00157702
0.00126026
0.000793224
0.000114028
0.000156041
0.00119673
0.00193268
0.00233557
0.00255748
0.00267887
0.00273919
0.00275798
0.00274479
0.00270387
0.00263632
0.00254099
0.00241465
0.00225146
0.0020415
0.00176736
0.00139625
0.000860634
0.000118919
0.000186691
0.00137773
0.00218811
0.00262192
0.00286341
0.00299669
0.00306269
0.00308204
0.00306502
0.00301622
0.0029368
0.00282547
0.00267858
0.00248964
0.00224769
0.00193384
0.00151331
0.000917369
0.000123064
0.000113807
0.000907811
0.00155846
0.00203979
0.00241144
0.00270705
0.00294624
0.00314114
0.00329964
0.00342701
0.00352678
0.00360119
0.00365135
0.00367723
0.00367728
0.00364785
0.00358201
0.00346742
0.00328275
0.00299184
0.00253682
0.00184717
0.000945682
0.000118923
0.000977338
0.00171023
0.00226571
0.0027016
0.00305232
0.00333858
0.00357353
0.00376588
0.00392157
0.00404466
0.0041378
0.00420245
0.00423888
0.00424588
0.00422034
0.0041564
0.00404421
0.00386827
0.00360606
0.00322967
0.0027187
0.00209793
0.000122906
0.00103197
0.00183114
0.00244784
0.00293795
0.00333613
0.00366369
0.00393437
0.00415745
0.00433936
0.0044846
0.00459621
0.00467608
0.00472494
0.00474225
0.00472598
0.00467214
0.00457445
0.00442407
0.00421067
0.0039265
0.00357729
0.0032041
0.000126063
0.00107584
0.00192934
0.00259705
0.00313312
0.00357219
0.00393588
0.00423836
0.00448926
0.00469539
0.0048616
0.00499135
0.00508696
0.00514973
0.00517997
0.00517688
0.00513857
0.00506208
0.00494398
0.00478199
0.00457872
0.00434847
0.00412742
0.000128591
0.00111152
0.00201
0.00272048
0.00329558
0.00376988
0.00416518
0.00449587
0.00477189
0.0050003
0.0051863
0.00533368
0.00544522
0.00552283
0.00556762
0.00558004
0.00555997
0.00550706
0.00542145
0.00530526
0.005165
0.00501509
0.00488114
0.000130626
0.00114073
0.00207662
0.00282306
0.00343137
0.003936
0.00435887
0.00471455
0.00501316
0.005262
0.00546651
0.00563083
0.00575814
0.00585089
0.00591095
0.00593978
0.00593862
0.00590888
0.00585277
0.00577431
0.00568073
0.00558381
0.00550042
0.000132267
0.00116471
0.00213175
0.00290844
0.00354495
0.00407565
0.00452253
0.00490026
0.00521911
0.00548655
0.00570824
0.0058886
0.00603117
0.00613885
0.00621413
0.00625921
0.0062763
0.00626786
0.00623713
0.00618869
0.00612913
0.00606746
0.00601462
0.000133588
0.00118439
0.00217734
0.0029794
0.00363983
0.00419287
0.00466057
0.00505768
0.00539456
0.00567882
0.0059163
0.00611163
0.00626865
0.00639063
0.0064805
0.00654101
0.00657495
0.00658537
0.00657588
0.00655098
0.00651631
0.0064786
0.00644511
0.000134649
0.0012005
0.00221491
0.00303818
0.0037188
0.00429091
0.00477659
0.00519063
0.00554348
0.00584284
0.00609467
0.00630379
0.00647425
0.0066096
0.00671307
0.00678778
0.00683685
0.00686357
0.00687163
0.00686518
0.00684894
0.00682801
0.00680735
0.000135496
0.00121361
0.00224571
0.00308663
0.0037842
0.00437251
0.00487363
0.00530239
0.00566928
0.00598207
0.00624681
0.00646846
0.00665121
0.0067988
0.00691469
0.00700218
0.00706455
0.0071052
0.00712768
0.00713576
0.0071334
0.00712454
0.00711275
0.000136169
0.00122423
0.00227082
0.00312632
0.00383804
0.00444003
0.00495432
0.00539578
0.00577492
0.00609955
0.00637578
0.00660866
0.00680248
0.00696111
0.00708812
0.00718692
0.00726087
0.00731331
0.00734763
0.00736723
0.0073755
0.00737557
0.00737012
0.000136699
0.00123277
0.00229112
0.00315858
0.00388205
0.00449549
0.00502096
0.0054733
0.00586303
0.006198
0.00648435
0.00672717
0.00693083
0.00709926
0.00723609
0.00734479
0.00742868
0.00749105
0.0075351
0.00756392
0.00758044
0.00758727
0.0075865
0.000137113
0.00123957
0.00230741
0.00318461
0.00391774
0.00454072
0.00507558
0.00553716
0.00593598
0.00627989
0.00657506
0.00682658
0.00703888
0.0072159
0.0073613
0.00747854
0.00757092
0.00764162
0.00769366
0.0077299
0.00775292
0.00776495
0.00776771
0.000137435
0.00124494
0.00232037
0.00320542
0.00394644
0.00457729
0.00511999
0.00558936
0.00599591
0.00634747
0.00665023
0.00690929
0.00712907
0.00731353
0.00746632
0.00759088
0.00769045
0.00776811
0.00782673
0.00786896
0.00789715
0.00791324
0.00791871
0.000137682
0.00124915
0.00233057
0.00322192
0.00396932
0.00460662
0.00515579
0.00563167
0.00604472
0.00640278
0.00671201
0.00697752
0.00720371
0.00739454
0.00755365
0.00768441
0.00779003
0.00787347
0.0079375
0.00798459
0.00801691
0.00803621
0.00804378
0.000137871
0.00125241
0.00233853
0.00323487
0.0039874
0.00462992
0.00518441
0.00566566
0.00608414
0.00644765
0.00676234
0.00703331
0.00726494
0.00746117
0.00762561
0.0077616
0.00787226
0.0079605
0.00802895
0.00807999
0.00811562
0.00813747
0.00814668
0.000138013
0.00125491
0.00234469
0.00324494
0.00400154
0.00464827
0.00520708
0.00569274
0.00611569
0.00648373
0.00680298
0.00707852
0.00731472
0.00751548
0.00768438
0.00782472
0.00793957
0.00803176
0.00810383
0.00815806
0.00819636
0.00822023
0.00823075
0.000138119
0.00125681
0.0023494
0.0032527
0.00401252
0.00466259
0.00522487
0.00571411
0.00614072
0.00651249
0.00683551
0.00711484
0.00735482
0.00755935
0.00773194
0.00787588
0.00799418
0.00808959
0.00816462
0.00822143
0.00826186
0.00828735
0.00829889
0.000138198
0.00125825
0.00235297
0.00325863
0.00402095
0.00467367
0.00523872
0.00573083
0.0061604
0.0065352
0.0068613
0.00714374
0.00738684
0.00759445
0.00777009
0.00791698
0.00803808
0.00813613
0.00821353
0.00827243
0.00831457
0.00834134
0.0083537
0.000138256
0.00125931
0.00235565
0.00326311
0.00402737
0.00468216
0.00524939
0.00574379
0.00617574
0.00655298
0.00688158
0.00716654
0.00741217
0.0076223
0.0078004
0.00794968
0.00807307
0.00817323
0.00825256
0.00831312
0.00835662
0.00838442
0.00839741
0.000138298
0.0012601
0.00235764
0.00326646
0.00403221
0.0046886
0.00525755
0.00575375
0.00618758
0.00656677
0.00689737
0.00718436
0.00743202
0.00764418
0.00782428
0.00797548
0.0081007
0.00820256
0.00828342
0.0083453
0.00838989
0.00841849
0.00843199
0.000138329
0.00126068
0.00235911
0.00326896
0.00403583
0.00469346
0.00526373
0.00576134
0.00619665
0.00657738
0.00690956
0.00719816
0.00744745
0.00766123
0.00784291
0.00799565
0.00812233
0.00822554
0.00830761
0.00837054
0.00841599
0.00844522
0.00845911
0.000138351
0.0012611
0.00236019
0.00327079
0.00403852
0.00469708
0.00526837
0.00576706
0.00620353
0.00658546
0.00691889
0.00720876
0.00745933
0.00767438
0.00785733
0.00801128
0.00813911
0.00824338
0.00832641
0.00839017
0.00843628
0.00846601
0.0084802
0.000138366
0.0012614
0.00236097
0.00327213
0.0040405
0.00469976
0.00527182
0.00577135
0.00620871
0.00659157
0.00692596
0.00721682
0.0074684
0.00768445
0.00786838
0.00802329
0.00815201
0.00825712
0.00834089
0.00840529
0.00845192
0.00848204
0.00849646
0.000138377
0.00126162
0.00236153
0.0032731
0.00404194
0.00470173
0.00527437
0.00577454
0.00621257
0.00659615
0.00693128
0.00722291
0.00747527
0.00769209
0.00787678
0.00803243
0.00816185
0.0082676
0.00835195
0.00841685
0.00846388
0.00849429
0.0085089
0.000138385
0.00126177
0.00236193
0.0032738
0.00404298
0.00470316
0.00527624
0.00577688
0.00621543
0.00659955
0.00693525
0.00722747
0.00748042
0.00769784
0.00788311
0.00803933
0.00816929
0.00827554
0.00836033
0.00842561
0.00847295
0.00850358
0.00851833
0.00013839
0.00126187
0.00236221
0.0032743
0.00404373
0.0047042
0.0052776
0.00577859
0.00621752
0.00660206
0.00693819
0.00723085
0.00748425
0.00770213
0.00788785
0.00804449
0.00817486
0.00828149
0.00836662
0.00843219
0.00847976
0.00851057
0.00852542
0.000138394
0.00126195
0.00236241
0.00327465
0.00404426
0.00470494
0.00527858
0.00577984
0.00621905
0.00660389
0.00694034
0.00723334
0.00748708
0.0077053
0.00789136
0.00804833
0.00817901
0.00828592
0.00837131
0.00843709
0.00848485
0.00851578
0.00853071
0.000138396
0.001262
0.00236255
0.0032749
0.00404464
0.00470547
0.00527928
0.00578073
0.00622015
0.00660522
0.00694191
0.00723515
0.00748915
0.00770763
0.00789394
0.00805115
0.00818207
0.0082892
0.00837477
0.00844072
0.00848861
0.00851964
0.00853462
0.000138398
0.00126204
0.00236264
0.00327507
0.0040449
0.00470584
0.00527977
0.00578137
0.00622095
0.00660618
0.00694305
0.00723647
0.00749066
0.00770932
0.00789582
0.00805322
0.0081843
0.00829159
0.00837731
0.00844338
0.00849136
0.00852247
0.00853749
0.000138399
0.00126206
0.00236271
0.00327519
0.00404509
0.0047061
0.00528013
0.00578182
0.00622151
0.00660686
0.00694386
0.00723742
0.00749174
0.00771055
0.00789718
0.00805472
0.00818593
0.00829333
0.00837916
0.00844532
0.00849337
0.00852453
0.00853958
0.0001384
0.00126208
0.00236276
0.00327527
0.00404521
0.00470629
0.00528037
0.00578214
0.00622191
0.00660735
0.00694444
0.0072381
0.00749252
0.00771143
0.00789816
0.00805579
0.0081871
0.00829459
0.00838049
0.00844672
0.00849482
0.00852602
0.0085411
0.000138401
0.00126209
0.00236279
0.00327533
0.0040453
0.00470641
0.00528054
0.00578236
0.00622219
0.00660769
0.00694485
0.00723857
0.00749307
0.00771205
0.00789886
0.00805656
0.00818794
0.00829549
0.00838145
0.00844772
0.00849586
0.00852709
0.00854218
0.000138401
0.0012621
0.00236281
0.00327537
0.00404536
0.0047065
0.00528066
0.00578251
0.00622238
0.00660793
0.00694513
0.00723891
0.00749346
0.00771249
0.00789936
0.00805711
0.00818853
0.00829613
0.00838213
0.00844843
0.00849661
0.00852785
0.00854296
0.000138401
0.0012621
0.00236282
0.00327539
0.0040454
0.00470656
0.00528074
0.00578262
0.00622252
0.00660809
0.00694533
0.00723915
0.00749373
0.0077128
0.00789971
0.0080575
0.00818895
0.00829658
0.00838261
0.00844894
0.00849713
0.00852838
0.0085435
0.000138401
0.0012621
0.00236283
0.00327541
0.00404543
0.0047066
0.0052808
0.00578269
0.00622261
0.00660821
0.00694547
0.00723931
0.00749392
0.00771302
0.00789995
0.00805776
0.00818924
0.0082969
0.00838294
0.00844929
0.0084975
0.00852876
0.00854388
0.000138401
0.00126211
0.00236284
0.00327542
0.00404545
0.00470663
0.00528083
0.00578274
0.00622267
0.00660829
0.00694557
0.00723942
0.00749405
0.00771317
0.00790012
0.00805795
0.00818945
0.00829712
0.00838318
0.00844953
0.00849775
0.00852902
0.00854415
0.000138402
0.00126211
0.00236284
0.00327543
0.00404546
0.00470664
0.00528086
0.00578277
0.00622271
0.00660834
0.00694563
0.0072395
0.00749414
0.00771327
0.00790023
0.00805808
0.00818958
0.00829727
0.00838334
0.0084497
0.00849792
0.0085292
0.00854433
0.000138402
0.00126211
0.00236284
0.00327543
0.00404547
0.00470666
0.00528088
0.0057828
0.00622274
0.00660837
0.00694567
0.00723955
0.0074942
0.00771334
0.00790031
0.00805816
0.00818968
0.00829737
0.00838344
0.00844981
0.00849804
0.00852932
0.00854445
0.000138402
0.00126211
0.00236284
0.00327544
0.00404547
0.00470666
0.00528089
0.00578281
0.00622276
0.0066084
0.0069457
0.00723958
0.00749424
0.00771338
0.00790036
0.00805822
0.00818974
0.00829743
0.00838351
0.00844988
0.00849811
0.00852939
0.00854452
0.000138402
0.00126211
0.00236284
0.00327544
0.00404548
0.00470667
0.00528089
0.00578282
0.00622277
0.00660841
0.00694572
0.0072396
0.00749426
0.00771341
0.00790039
0.00805825
0.00818977
0.00829747
0.00838355
0.00844993
0.00849816
0.00852944
0.00854457
0.000138402
0.00126211
0.00236285
0.00327544
0.00404548
0.00470667
0.0052809
0.00578282
0.00622278
0.00660842
0.00694573
0.00723961
0.00749427
0.00771342
0.0079004
0.00805826
0.00818979
0.00829749
0.00838357
0.00844995
0.00849818
0.00852946
0.00854459
0.00017876
0.000164867
0.000164696
0.000178009
0.00162232
0.00154622
0.00154532
0.00161893
0.00299136
0.00292665
0.00292464
0.00298512
0.00402009
0.00398299
0.00398018
0.00401157
0.00482055
0.00479861
0.00479519
0.00481022
0.00546316
0.00544888
0.00544497
0.00545137
0.00599017
0.00597999
0.00597566
0.00597714
0.00642828
0.00642044
0.00641574
0.00641413
0.00679531
0.00678888
0.00678384
0.00678015
0.00710389
0.00709835
0.007093
0.00708781
0.00736345
0.00735848
0.00735285
0.00734652
0.00758138
0.00757679
0.00757091
0.00756369
0.00776372
0.00775939
0.00775328
0.00774535
0.00791556
0.0079114
0.00790509
0.00789659
0.00804126
0.00803722
0.00803073
0.00802176
0.00814465
0.00814069
0.00813405
0.00812469
0.00822909
0.00822518
0.00821841
0.00820873
0.00829752
0.00829365
0.00828676
0.00827683
0.00835254
0.00834869
0.00834172
0.00833157
0.00839643
0.00839259
0.00838554
0.00837522
0.00843113
0.00842731
0.00842019
0.00840973
0.00845835
0.00845454
0.00844736
0.00843679
0.00847952
0.00847571
0.00846849
0.00845783
0.00849584
0.00849203
0.00848478
0.00847405
0.00850832
0.00850451
0.00849723
0.00848645
0.00851778
0.00851397
0.00850667
0.00849584
0.0085249
0.00852108
0.00851377
0.00850291
0.0085302
0.00852639
0.00851906
0.00850818
0.00853413
0.00853032
0.00852298
0.00851207
0.00853701
0.0085332
0.00852585
0.00851493
0.00853911
0.0085353
0.00852794
0.00851702
0.00854063
0.00853681
0.00852946
0.00851852
0.00854172
0.0085379
0.00853054
0.0085196
0.00854249
0.00853868
0.00853131
0.00852037
0.00854304
0.00853922
0.00853186
0.00852091
0.00854342
0.00853961
0.00853224
0.00852129
0.00854369
0.00853987
0.00853251
0.00852155
0.00854387
0.00854005
0.00853268
0.00852173
0.00854399
0.00854017
0.0085328
0.00852185
0.00854406
0.00854025
0.00853288
0.00852192
0.00854411
0.00854029
0.00853292
0.00852197
0.00854413
0.00854031
0.00853294
0.00852199
0.000989884
0.00194174
0.00263673
0.00306656
0.00332104
0.00346509
0.00353604
0.00355417
0.00352998
0.00346823
0.00337005
0.00323383
0.00305538
0.00282732
0.00253739
0.00216498
0.00167331
0.000993446
0.00012861
0.00212233
0.00278049
0.00329944
0.00365841
0.00388808
0.00402264
0.00408679
0.00409582
0.00405822
0.00397779
0.00385503
0.00368773
0.00347099
0.00319648
0.00285078
0.00241181
0.00184145
0.00107184
0.000134336
0.00320663
0.00360481
0.00396131
0.00423256
0.00441715
0.00452688
0.0045741
0.00456786
0.00451344
0.00441297
0.00426592
0.00406933
0.0038176
0.00350166
0.00310729
0.00261157
0.00197576
0.00113349
0.000138792
0.00411713
0.00434963
0.0045822
0.00477285
0.00490747
0.00498518
0.00500938
0.0049836
0.00490989
0.00478846
0.00461757
0.00439343
0.00410976
0.00375693
0.0033201
0.00277583
0.00208512
0.00118306
0.000142324
0.00486349
0.00499762
0.00514311
0.00526804
0.005356
0.00540029
0.00539892
0.0053514
0.00525706
0.00511434
0.00492033
0.00467039
0.00435766
0.00397198
0.0034981
0.00291222
0.0021752
0.00122345
0.000145155
0.00547798
0.00555313
0.00563892
0.00571303
0.00576073
0.00577351
0.00574654
0.00567675
0.00556151
0.0053978
0.00518166
0.00490776
0.00456867
0.00415382
0.00364764
0.00302604
0.00224984
0.00125661
0.000147435
0.00598861
0.00602698
0.00607163
0.00610715
0.00612149
0.00610611
0.006055
0.00596365
0.00582807
0.00564419
0.00540724
0.00511126
0.0047484
0.00430773
0.00377342
0.00312119
0.00231184
0.0012839
0.000149276
0.00641619
0.00643051
0.00644621
0.00645246
0.00643961
0.00639983
0.00632681
0.00621532
0.00606057
0.00585775
0.00560151
0.00528541
0.00490123
0.00443781
0.0038791
0.00320067
0.0023633
0.00130638
0.000150761
0.00677593
0.00677374
0.00676851
0.00675235
0.00671748
0.0066569
0.00656447
0.00643466
0.00626228
0.00604203
0.00576815
0.0054339
0.00503077
0.0045474
0.00396761
0.00326685
0.00240591
0.00132484
0.000151956
0.00707914
0.00706512
0.00704437
0.00701081
0.00695807
0.00687994
0.00677058
0.00662444
0.00643612
0.0062001
0.00591035
0.00555988
0.00514004
0.00463931
0.0040414
0.0033217
0.00244101
0.00133994
0.000152912
0.00733456
0.00731177
0.00727919
0.00723196
0.00716468
0.00707181
0.00694784
0.00678734
0.00658487
0.00633478
0.00603091
0.00566613
0.00523167
0.00471593
0.00410255
0.0033669
0.00246976
0.00135222
0.000153674
0.00754921
0.00751972
0.00747796
0.00741984
0.00734069
0.00723546
0.007099
0.00692603
0.00671115
0.00644868
0.00613239
0.00575511
0.00530798
0.00477937
0.00415289
0.00340387
0.00249314
0.00136214
0.000154277
0.00772889
0.00769417
0.00764516
0.0075783
0.00748941
0.00737387
0.0072268
0.0070431
0.00681746
0.00654422
0.00621716
0.00582905
0.00537105
0.00483151
0.00419401
0.00343389
0.002512
0.00137008
0.00015475
0.00787854
0.00783968
0.00778488
0.00771095
0.00761407
0.00748994
0.00733391
0.00714107
0.00690619
0.0066237
0.00628737
0.00589001
0.00542277
0.004874
0.00422732
0.00345806
0.00252709
0.00137639
0.000155119
0.00800245
0.00796026
0.0079008
0.00782114
0.00771769
0.00758643
0.00742289
0.00722232
0.00697961
0.00668923
0.00634502
0.00593983
0.00546481
0.00490835
0.00425407
0.00347734
0.00253905
0.00138135
0.000155403
0.00810434
0.00805948
0.00799627
0.00791193
0.00780311
0.00766594
0.00749615
0.00728911
0.0070398
0.00674279
0.00639195
0.00598019
0.00549868
0.00493586
0.00427537
0.00349258
0.00254844
0.00138522
0.000155621
0.00818754
0.00814052
0.00807427
0.00798614
0.00787292
0.0077309
0.00755594
0.00734351
0.00708871
0.00678616
0.00642981
0.00601259
0.00552573
0.0049577
0.00429216
0.00350453
0.00255574
0.00138821
0.000155786
0.00825496
0.0082062
0.00813748
0.00804627
0.00792948
0.00778349
0.00760428
0.00738742
0.00712808
0.00682096
0.00646006
0.00603836
0.00554714
0.00497488
0.00430529
0.00351379
0.00256137
0.00139049
0.000155911
0.00830915
0.00825898
0.00818828
0.0080946
0.0079749
0.00782569
0.00764302
0.00742254
0.00715949
0.00684863
0.00648402
0.00605868
0.00556392
0.00498827
0.00431545
0.00352092
0.00256566
0.00139222
0.000156003
0.00835235
0.00830106
0.00822877
0.00813309
0.00801107
0.00785925
0.00767378
0.00745036
0.00718431
0.00687043
0.00650282
0.00607455
0.00557696
0.00499861
0.00432325
0.00352634
0.00256891
0.00139352
0.000156072
0.00838651
0.00833432
0.00826076
0.00816349
0.0080396
0.0078857
0.00769798
0.00747222
0.00720376
0.00688745
0.00651744
0.00608683
0.005587
0.00500652
0.00432917
0.00353044
0.00257134
0.00139448
0.000156122
0.00841328
0.00836038
0.00828582
0.00818729
0.00806192
0.00790637
0.00771686
0.00748922
0.00721885
0.00690061
0.00652871
0.00609625
0.00559466
0.00501252
0.00433364
0.0035335
0.00257314
0.00139519
0.000156158
0.0084341
0.00838063
0.00830528
0.00820576
0.00807922
0.00792237
0.00773145
0.00750234
0.00723045
0.00691071
0.00653731
0.00610342
0.00560045
0.00501703
0.00433697
0.00353577
0.00257447
0.00139571
0.000156185
0.00845014
0.00839623
0.00832027
0.00821997
0.00809252
0.00793465
0.00774263
0.00751237
0.0072393
0.00691838
0.00654383
0.00610882
0.0056048
0.0050204
0.00433944
0.00353744
0.00257544
0.00139608
0.000156203
0.0084624
0.00840815
0.00833171
0.00823081
0.00810265
0.00794399
0.00775113
0.00751997
0.00724599
0.00692416
0.00654871
0.00611285
0.00560803
0.00502288
0.00434125
0.00353866
0.00257614
0.00139635
0.000156217
0.00847169
0.00841718
0.00834037
0.008239
0.00811031
0.00795104
0.00775752
0.00752568
0.007251
0.00692847
0.00655235
0.00611584
0.00561041
0.0050247
0.00434257
0.00353954
0.00257664
0.00139654
0.000156226
0.00847867
0.00842396
0.00834687
0.00824515
0.00811604
0.00795631
0.0077623
0.00752993
0.00725473
0.00693167
0.00655504
0.00611803
0.00561215
0.00502603
0.00434353
0.00354017
0.002577
0.00139668
0.000156233
0.00848388
0.00842902
0.00835171
0.00824973
0.00812031
0.00796022
0.00776583
0.00753308
0.00725747
0.00693402
0.006557
0.00611963
0.00561341
0.00502698
0.00434421
0.00354062
0.00257725
0.00139677
0.000156237
0.00848773
0.00843275
0.00835529
0.0082531
0.00812345
0.00796311
0.00776843
0.00753538
0.00725948
0.00693573
0.00655843
0.00612079
0.00561432
0.00502767
0.0043447
0.00354094
0.00257743
0.00139684
0.00015624
0.00849055
0.00843549
0.00835791
0.00825558
0.00812575
0.00796521
0.00777033
0.00753706
0.00726094
0.00693697
0.00655946
0.00612162
0.00561497
0.00502815
0.00434504
0.00354116
0.00257755
0.00139689
0.000156242
0.00849261
0.00843748
0.00835981
0.00825737
0.00812741
0.00796673
0.0077717
0.00753827
0.00726199
0.00693786
0.00656019
0.00612222
0.00561543
0.0050285
0.00434528
0.00354131
0.00257763
0.00139692
0.000156244
0.0084941
0.00843892
0.00836119
0.00825867
0.00812861
0.00796783
0.00777268
0.00753914
0.00726274
0.00693849
0.00656072
0.00612263
0.00561575
0.00502874
0.00434545
0.00354142
0.00257769
0.00139694
0.000156245
0.00849516
0.00843996
0.00836217
0.00825959
0.00812947
0.00796861
0.00777338
0.00753976
0.00726327
0.00693894
0.00656109
0.00612293
0.00561598
0.0050289
0.00434556
0.00354149
0.00257773
0.00139695
0.000156245
0.00849592
0.00844069
0.00836288
0.00826025
0.00813008
0.00796916
0.00777388
0.00754019
0.00726364
0.00693926
0.00656134
0.00612313
0.00561613
0.00502902
0.00434564
0.00354154
0.00257776
0.00139696
0.000156246
0.00849646
0.00844121
0.00836337
0.00826072
0.00813051
0.00796955
0.00777423
0.0075405
0.0072639
0.00693948
0.00656152
0.00612327
0.00561624
0.0050291
0.0043457
0.00354158
0.00257778
0.00139697
0.000156246
0.00849683
0.00844157
0.00836371
0.00826104
0.00813081
0.00796983
0.00777447
0.00754071
0.00726409
0.00693963
0.00656165
0.00612337
0.00561632
0.00502915
0.00434574
0.0035416
0.00257779
0.00139697
0.000156246
0.00849709
0.00844182
0.00836395
0.00826126
0.00813102
0.00797001
0.00777464
0.00754085
0.00726421
0.00693973
0.00656173
0.00612344
0.00561637
0.00502919
0.00434576
0.00354162
0.0025778
0.00139698
0.000156247
0.00849727
0.00844199
0.00836412
0.00826142
0.00813116
0.00797014
0.00777475
0.00754095
0.00726429
0.0069398
0.00656179
0.00612348
0.0056164
0.00502921
0.00434578
0.00354163
0.0025778
0.00139698
0.000156247
0.00849738
0.0084421
0.00836422
0.00826152
0.00813125
0.00797023
0.00777483
0.00754102
0.00726435
0.00693985
0.00656182
0.00612351
0.00561642
0.00502923
0.00434579
0.00354163
0.00257781
0.00139698
0.000156247
0.00849746
0.00844218
0.00836429
0.00826158
0.00813131
0.00797028
0.00777487
0.00754106
0.00726439
0.00693988
0.00656185
0.00612353
0.00561644
0.00502924
0.00434579
0.00354164
0.00257781
0.00139698
0.000156247
0.0084975
0.00844222
0.00836434
0.00826162
0.00813135
0.00797032
0.0077749
0.00754109
0.00726441
0.0069399
0.00656186
0.00612354
0.00561645
0.00502924
0.0043458
0.00354164
0.00257781
0.00139698
0.000156247
0.00849752
0.00844224
0.00836435
0.00826164
0.00813136
0.00797033
0.00777492
0.0075411
0.00726442
0.00693991
0.00656187
0.00612355
0.00561645
0.00502925
0.0043458
0.00354164
0.00257781
0.00139698
0.000156247
)
;

boundaryField
{
    leftWall
    {
        type            nutkWallFunction;
        blending        stepwise;
        value           nonuniform List<scalar> 
50
(
0
3.01446e-07
2.36477e-06
3.81452e-06
4.90013e-06
5.75715e-06
6.45909e-06
7.0488e-06
7.83114e-06
8.62767e-06
9.23894e-06
9.71688e-06
1.00944e-05
1.0394e-05
1.06321e-05
1.08208e-05
1.097e-05
1.10872e-05
1.11787e-05
1.12496e-05
1.1304e-05
1.13455e-05
1.13768e-05
1.14002e-05
1.14176e-05
1.14304e-05
1.14397e-05
1.14464e-05
1.14512e-05
1.14547e-05
1.14571e-05
1.14588e-05
1.14599e-05
1.14607e-05
1.14613e-05
1.14617e-05
1.14619e-05
1.14621e-05
1.14622e-05
1.14623e-05
1.14623e-05
1.14624e-05
1.14624e-05
1.14624e-05
1.14624e-05
1.14624e-05
1.14624e-05
1.14624e-05
1.14624e-05
1.14624e-05
)
;
    }
    rightWall
    {
        type            nutkWallFunction;
        blending        stepwise;
        value           nonuniform List<scalar> 
50
(
0
1.99258e-06
4.20614e-06
5.78525e-06
6.97555e-06
7.91734e-06
8.68922e-06
9.33775e-06
1.01981e-05
1.10737e-05
1.17456e-05
1.22708e-05
1.26859e-05
1.30155e-05
1.32777e-05
1.3486e-05
1.36509e-05
1.37807e-05
1.38824e-05
1.39615e-05
1.40225e-05
1.40691e-05
1.41045e-05
1.41312e-05
1.4151e-05
1.41657e-05
1.41764e-05
1.41842e-05
1.41898e-05
1.41939e-05
1.41967e-05
1.41987e-05
1.42001e-05
1.42011e-05
1.42018e-05
1.42022e-05
1.42025e-05
1.42028e-05
1.42029e-05
1.4203e-05
1.42031e-05
1.42031e-05
1.42031e-05
1.42031e-05
1.42032e-05
1.42032e-05
1.42032e-05
1.42032e-05
1.42032e-05
1.42032e-05
)
;
    }
    lowerWall
    {
        type            nutkWallFunction;
        blending        stepwise;
        value           nonuniform List<scalar> 
62
(
0
0
0
0
0
0
0
0
0
0
0
0
0
0
0
0
0
0
0
0
0
0
0
0
1.43833e-06
4.029e-06
5.93668e-06
7.54722e-06
9.17427e-06
1.13687e-05
1.55599e-05
1.75872e-05
1.54884e-05
1.54643e-05
1.74809e-05
0
3.19319e-06
6.00037e-06
8.09697e-06
9.88806e-06
1.17303e-05
1.42374e-05
1.88221e-05
0
0
0
0
0
0
0
0
0
0
0
0
0
0
0
0
0
0
0
)
;
    }
    atmosphere
    {
        type            calculated;
        value           nonuniform List<scalar> 
46
(
0.000138402
0.00126211
0.00236285
0.00327544
0.00404548
0.00470667
0.0052809
0.00578282
0.00622278
0.00660842
0.00694573
0.00723961
0.00749427
0.00771342
0.0079004
0.00805826
0.00818979
0.00829749
0.00838357
0.00844995
0.00849818
0.00852946
0.00854459
0.00854413
0.00854031
0.00853294
0.00852199
0.00849752
0.00844224
0.00836435
0.00826164
0.00813136
0.00797033
0.00777492
0.0075411
0.00726442
0.00693991
0.00656187
0.00612355
0.00561645
0.00502925
0.0043458
0.00354164
0.00257781
0.00139698
0.000156247
)
;
    }
    defaultFaces
    {
        type            empty;
    }
}


// ************************************************************************* //
