/*--------------------------------*- C++ -*----------------------------------*\
| =========                 |                                                 |
| \\      /  F ield         | OpenFOAM: The Open Source CFD Toolbox           |
|  \\    /   O peration     | Version:  2406                                  |
|   \\  /    A nd           | Website:  www.openfoam.com                      |
|    \\/     M anipulation  |                                                 |
\*---------------------------------------------------------------------------*/
FoamFile
{
    version     2.0;
    format      ascii;
    arch        "LSB;label=32;scalar=64";
    class       surfaceScalarField;
    location    "0.85";
    object      phi;
}
// * * * * * * * * * * * * * * * * * * * * * * * * * * * * * * * * * * * * * //

dimensions      [0 3 -1 0 0 0 0];

oriented        oriented;

internalField   nonuniform List<scalar> 
4432
(
-4.53496e-304
-2.37048e-304
-8.91159e-304
-1.08792e-303
-1.33469e-303
-1.43157e-303
-1.78656e-303
-1.39869e-303
-2.25139e-303
-9.44921e-304
-2.7247e-303
5.04663e-305
-3.18824e-303
1.77871e-303
-3.5971e-303
4.52781e-303
-3.84087e-303
8.74001e-303
-3.5786e-303
1.51402e-302
-1.48265e-303
2.49904e-302
9.50988e-303
3.99176e-302
1.44235e-302
6.08493e-302
-2.05441e-303
2.52915e-302
-7.98553e-303
6.0343e-303
-5.87859e-303
-7.15859e-304
-3.84633e-303
-1.97663e-303
-2.45834e-303
-1.76614e-303
-1.5478e-303
-1.18956e-303
-9.45853e-304
-6.21189e-304
-5.34792e-304
-1.65673e-304
-2.27089e-304
1.38319e-304
2.03383e-304
-1.39923e-303
-4.38025e-304
-2.72319e-303
-1.95899e-303
-4.04859e-303
-2.63001e-303
-5.39958e-303
-2.56399e-303
-6.78514e-303
-1.65646e-303
-8.18931e-303
3.29107e-304
-9.55567e-303
3.76332e-303
-1.07515e-302
9.19511e-303
-1.14779e-302
1.74512e-302
-1.10168e-302
2.98301e-302
-7.26209e-303
4.85141e-302
5.2595e-304
7.75454e-302
1.02624e-302
1.19822e-301
-6.58604e-303
4.6903e-302
-1.09351e-302
8.28593e-303
-7.96105e-303
1.25659e-304
-5.48603e-303
-1.63219e-303
-3.68652e-303
-1.64768e-303
-2.43904e-303
-1.15138e-303
-1.57758e-303
-5.83022e-304
-9.66703e-304
-8.23579e-305
-4.80339e-304
2.95728e-304
4.18516e-304
-2.35361e-303
-6.77714e-304
-4.60403e-303
-2.79668e-303
-6.861e-303
-3.7905e-303
-9.16685e-303
-3.70299e-303
-1.15403e-302
-2.35728e-303
-1.39625e-302
5.98453e-304
-1.6355e-302
5.70322e-303
-1.8533e-302
1.3747e-302
-2.01031e-302
2.58996e-302
-2.02415e-302
4.39662e-302
-1.68811e-302
7.09349e-302
-1.36536e-302
1.12443e-301
2.15835e-303
1.71897e-301
-1.18991e-302
6.35553e-302
-1.29385e-302
1.03545e-302
-9.44953e-303
1.0487e-303
-6.70411e-303
-1.11774e-303
-4.65065e-303
-1.36907e-303
-3.17784e-303
-9.96349e-304
-2.13173e-303
-4.74688e-304
-1.37192e-303
3.26585e-305
-7.45553e-304
4.61523e-304
6.48836e-304
-3.34875e-303
-9.36468e-304
-6.58178e-303
-3.64482e-303
-9.83368e-303
-4.97511e-303
-1.31653e-302
-4.88976e-303
-1.66097e-302
-3.13054e-303
-2.01543e-302
7.6735e-304
-2.37163e-302
7.50217e-303
-2.70942e-302
1.80826e-302
-2.9878e-302
3.3983e-302
-3.1294e-302
5.74404e-302
-2.95604e-302
9.20759e-302
-3.16298e-302
1.44356e-301
-7.95836e-303
2.16443e-301
-1.73191e-302
7.60712e-302
-1.50595e-302
1.25275e-302
-1.09941e-302
1.95855e-303
-7.92889e-303
-6.00938e-304
-5.62333e-303
-1.06933e-303
-3.93882e-303
-8.21548e-304
-2.72172e-303
-3.58335e-304
-1.82509e-303
1.41606e-304
-1.06592e-303
6.13222e-304
8.8177e-304
-4.41179e-303
-1.21745e-303
-8.70081e-303
-4.54795e-303
-1.30265e-302
-6.24997e-303
-1.74698e-302
-6.20467e-303
-2.20825e-302
-4.06831e-303
-2.68673e-302
7.35817e-304
-3.17529e-302
9.05456e-303
-3.65508e-302
2.20952e-302
-4.08846e-302
4.15957e-302
-4.40959e-302
7.01479e-302
-4.46683e-302
1.11825e-301
-5.23002e-302
1.73417e-301
-1.95504e-302
2.55507e-301
-2.30882e-302
8.67779e-302
-1.75449e-302
1.4725e-302
-1.27441e-302
2.82978e-303
-9.27441e-303
-1.21852e-304
-6.6817e-303
-7.90456e-304
-4.77248e-303
-6.6098e-304
-3.38117e-303
-2.60655e-304
-2.35133e-303
2.18953e-304
-1.46148e-303
7.17131e-304
1.06379e-303
-5.56646e-303
-1.52992e-303
-1.10031e-302
-5.54609e-303
-1.64976e-302
-7.67747e-303
-2.21532e-302
-7.72736e-303
-2.80448e-302
-5.2631e-303
-3.41977e-302
4.01513e-304
-4.05656e-302
1.02533e-302
-4.69938e-302
2.56762e-302
-5.31681e-302
4.86324e-302
-5.85597e-302
8.19875e-302
-6.18276e-302
1.30107e-301
-7.5092e-302
1.99875e-301
-3.24482e-302
2.90855e-301
-2.93517e-302
9.65953e-302
-2.04333e-302
1.69099e-302
-1.47417e-302
3.66593e-303
-1.07822e-302
3.14231e-304
-7.85691e-303
-5.4508e-304
-5.6991e-303
-5.28428e-304
-4.12238e-303
-1.95837e-304
-2.96091e-303
2.4439e-304
-1.95199e-303
7.30945e-304
1.0876e-303
-6.83448e-303
-1.88786e-303
-1.3529e-302
-6.67739e-303
-2.03043e-302
-9.32024e-303
-2.72878e-302
-9.53995e-303
-3.45809e-302
-6.81272e-303
-4.22382e-302
-3.43764e-304
-5.02478e-302
1.09841e-302
-5.85025e-302
2.87125e-302
-6.67641e-302
5.49866e-302
-7.46307e-302
9.28696e-302
-8.08695e-302
1.46885e-301
-9.98128e-302
2.23906e-301
-4.66481e-302
3.23216e-301
-3.61672e-302
1.05731e-301
-2.37015e-302
1.90658e-302
-1.69916e-302
4.48019e-303
-1.24666e-302
7.1503e-304
-9.16213e-303
-3.33279e-304
-6.72619e-303
-4.27921e-304
-4.9459e-303
-1.70284e-304
-3.64982e-303
2.04535e-304
-2.55652e-303
6.05373e-304
7.7418e-304
-8.23608e-303
-2.30489e-303
-1.63179e-302
-7.96853e-303
-2.45034e-302
-1.1226e-302
-3.29453e-302
-1.17108e-302
-4.17747e-302
-8.80463e-303
-5.108e-302
-1.60499e-303
-6.089e-302
1.11267e-302
-7.1153e-302
3.1071e-302
-8.17123e-302
6.05173e-302
-9.2288e-302
1.02658e-301
-1.01628e-301
1.62054e-301
-1.26639e-301
2.45363e-301
-6.19359e-302
3.51074e-301
-4.35404e-302
1.13859e-301
-2.72918e-302
2.11882e-302
-1.94682e-302
5.29381e-303
-1.43171e-302
1.10023e-303
-1.05912e-302
-1.42299e-304
-7.84538e-303
-3.51651e-304
-5.83466e-303
-1.78558e-304
-4.38341e-303
1.04577e-304
-3.28659e-303
3.47777e-304
2.33601e-304
-7.94163e-307
-4.05263e-306
-1.10222e-306
-1.50846e-305
-8.94723e-307
-1.32268e-305
-9.17093e-307
-7.82971e-306
-8.81043e-307
-3.82283e-306
-7.23226e-307
-1.64731e-306
-5.19468e-307
-6.32798e-307
-3.37411e-307
-2.04683e-307
-2.02917e-307
-4.13035e-308
-1.14653e-307
1.15631e-308
-6.13595e-308
2.22315e-308
-3.12045e-308
1.91568e-308
-1.5066e-308
1.32717e-308
-6.86796e-309
8.17813e-309
-2.91925e-309
4.63122e-309
-1.12698e-309
2.43163e-309
-3.71176e-310
1.16872e-309
-8.50865e-311
4.72927e-310
9.72715e-311
-1.51418e-306
-1.05207e-305
-2.66839e-306
-2.7164e-305
-2.70087e-306
-2.16225e-305
-2.59994e-306
-1.23489e-305
-2.22726e-306
-5.90028e-306
-1.6962e-306
-2.46927e-306
-1.17208e-306
-8.895e-307
-7.49905e-307
-2.38485e-307
-4.50918e-307
-4.12943e-309
-2.57289e-307
5.97251e-308
-1.40067e-307
6.18556e-308
-7.28991e-308
4.67881e-308
-3.6231e-308
3.08157e-308
-1.71119e-308
1.86049e-308
-7.59863e-309
1.05036e-308
-3.10204e-309
5.57981e-309
-1.10311e-309
2.76626e-309
-2.80711e-310
1.2026e-309
2.9975e-310
-2.72733e-306
-2.29383e-305
-5.0858e-306
-4.41558e-305
-5.42322e-306
-3.1847e-305
-4.99237e-306
-1.7357e-305
-4.02969e-306
-8.05788e-306
-2.93484e-306
-3.2695e-306
-1.97283e-306
-1.10641e-306
-1.24434e-306
-2.35753e-307
-7.44684e-307
6.15519e-308
-4.25822e-307
1.28386e-307
-2.33539e-307
1.15424e-307
-1.22987e-307
8.3505e-308
-6.21038e-308
5.40744e-308
-2.99335e-308
3.25213e-308
-1.36406e-308
1.84559e-308
-5.76134e-309
9.94577e-309
-2.14969e-309
5.06883e-309
-5.89816e-310
2.32705e-309
6.65755e-310
-5.47048e-306
-4.74446e-305
-9.44819e-306
-6.97477e-305
-9.91316e-306
-4.54181e-305
-8.67918e-306
-2.34937e-305
-6.68128e-306
-1.05715e-305
-4.69864e-306
-4.16495e-306
-3.08788e-306
-1.3298e-306
-1.92315e-306
-2.11889e-307
-1.14502e-306
1.53041e-307
-6.55084e-307
2.19366e-307
-3.61062e-307
1.85778e-307
-1.91804e-307
1.31858e-307
-9.80375e-308
8.49555e-308
-4.80063e-308
5.12212e-308
-2.23251e-308
2.93121e-308
-9.68584e-309
1.60327e-308
-3.75384e-309
8.37621e-309
-1.09425e-309
4.02092e-309
1.28026e-309
-1.17769e-305
-9.57271e-305
-1.74376e-305
-1.07399e-304
-1.73429e-305
-6.30649e-305
-1.4363e-305
-3.0971e-305
-1.05971e-305
-1.35398e-305
-7.23682e-306
-5.2067e-306
-4.66832e-306
-1.58399e-306
-2.87757e-306
-1.76643e-307
-1.70623e-306
2.67797e-307
-9.76786e-307
3.33234e-307
-5.40749e-307
2.74507e-307
-2.89443e-307
1.935e-307
-1.49511e-307
1.24819e-307
-7.42156e-308
7.57048e-308
-3.51193e-308
4.37594e-308
-1.5589e-308
2.42935e-308
-6.23912e-309
1.29805e-308
-1.91387e-309
6.47065e-309
2.25461e-309
-2.62067e-305
-1.89344e-304
-3.18879e-305
-1.59608e-304
-2.93568e-305
-8.47938e-305
-2.29174e-305
-3.97611e-305
-1.62575e-305
-1.69947e-305
-1.08265e-305
-6.42806e-306
-6.87902e-306
-1.88908e-306
-4.20669e-306
-1.39245e-307
-2.48767e-306
4.02927e-307
-1.42603e-306
4.70134e-307
-7.93002e-307
3.82891e-307
-4.27522e-307
2.69901e-307
-2.2298e-307
1.74938e-307
-1.12053e-307
1.0694e-307
-5.3852e-308
6.24796e-308
-2.43908e-308
3.51853e-308
-1.00405e-308
1.91776e-308
-3.22127e-309
9.85957e-309
3.70132e-309
-5.8674e-305
-3.77428e-304
-5.75343e-305
-2.24647e-304
-4.81525e-305
-1.09366e-304
-3.53977e-305
-4.95815e-305
-2.42285e-305
-2.09159e-305
-1.57964e-305
-7.8529e-306
-9.91841e-306
-2.266e-306
-6.03167e-306
-1.11983e-307
-3.56301e-306
5.52525e-307
-2.04707e-306
6.27846e-307
-1.14396e-306
5.1053e-307
-6.21157e-307
3.6141e-307
-3.26983e-307
2.35863e-307
-1.6621e-307
1.45439e-307
-8.10171e-308
8.58703e-308
-3.73642e-308
4.89833e-308
-1.57677e-308
2.71371e-308
-5.26491e-309
1.42701e-308
5.65473e-309
-1.27934e-304
-5.68588e-304
-1.01701e-304
-2.85558e-304
-7.58768e-305
-1.33264e-304
-5.27038e-305
-5.95764e-305
-3.49812e-305
-2.504e-305
-2.2423e-305
-9.3874e-306
-1.39559e-305
-2.67974e-306
-8.45745e-306
-8.23128e-308
-4.99696e-306
7.20426e-307
-2.87933e-306
8.06997e-307
-1.6172e-306
6.5704e-307
-8.84172e-307
4.67452e-307
-4.69432e-307
3.07093e-307
-2.41093e-307
1.90827e-307
-1.18994e-307
1.13661e-307
-5.57452e-308
6.54887e-308
-2.40284e-308
3.66991e-308
-8.31888e-309
1.95553e-308
7.9548e-309
-2.25944e-302
-3.37615e-303
-4.4806e-302
-1.12129e-302
-6.73123e-302
-1.61378e-302
-9.0529e-302
-1.75746e-302
-1.14842e-301
-1.46999e-302
-1.40564e-301
-6.39749e-303
-1.67904e-301
8.79752e-303
-1.96948e-301
3.27906e-302
-2.27636e-301
6.8065e-302
-2.59758e-301
1.1789e-301
-2.88302e-301
1.86618e-301
-3.67179e-301
2.7994e-301
-1.84943e-301
3.93514e-301
-1.18456e-301
1.27015e-301
-7.07007e-302
2.52113e-302
-5.01398e-302
6.90244e-303
-3.69641e-302
1.85604e-303
-2.75343e-302
2.13939e-304
-2.05728e-302
-2.37295e-304
-1.54215e-302
-2.4885e-304
-1.16356e-302
-1.55922e-304
-8.83153e-303
-1.70267e-304
-5.07468e-304
-6.03991e-303
-2.99219e-302
-4.73149e-303
-5.9382e-302
-1.52838e-302
-8.92712e-302
-2.24717e-302
-1.20156e-301
-2.55107e-302
-1.52594e-301
-2.33791e-302
-1.87091e-301
-1.47686e-302
-2.24079e-301
1.96718e-303
-2.63908e-301
2.88809e-302
-3.0684e-301
6.85259e-302
-3.53054e-301
1.2407e-301
-3.96377e-301
1.99434e-301
-5.05683e-301
2.99218e-301
-2.65857e-301
4.17188e-301
-1.55881e-301
1.35e-301
-8.90252e-302
2.80825e-302
-6.2486e-302
8.06009e-303
-4.59622e-302
2.3732e-303
-3.42806e-302
4.22684e-304
-2.56429e-302
-2.17237e-304
-1.91492e-302
-3.67574e-304
-1.42057e-302
-3.85638e-304
-1.03196e-302
-4.5987e-304
-6.8564e-304
-6.95464e-303
-3.76541e-302
-6.488e-303
-7.47194e-302
-2.05622e-302
-1.12358e-301
-3.08402e-302
-1.51307e-301
-3.6337e-302
-1.92316e-301
-3.58397e-302
-2.36089e-301
-2.78618e-302
-2.83273e-301
-1.06056e-302
-3.34448e-301
1.80844e-302
-3.90121e-301
6.07692e-302
-4.50722e-301
1.20455e-301
-5.09153e-301
2.00616e-301
-6.47237e-301
3.04931e-301
-3.49792e-301
4.25926e-301
-1.9516e-301
1.3867e-301
-1.08463e-301
2.95358e-302
-7.53255e-302
8.51311e-303
-5.51313e-302
2.47472e-303
-4.10105e-302
3.7295e-304
-3.05881e-302
-3.48867e-304
-2.27058e-302
-5.48312e-304
-1.66376e-302
-5.83218e-304
-1.18494e-302
-6.14951e-304
-6.87114e-304
-7.93684e-303
-4.58082e-302
-8.77909e-303
-9.08298e-302
-2.74478e-302
-1.36558e-301
-4.18921e-302
-1.8392e-301
-5.09265e-302
-2.33866e-301
-5.3146e-302
-2.87303e-301
-4.6891e-302
-3.45077e-301
-3.02219e-302
-4.07959e-301
-8.96271e-304
-4.76636e-301
4.36475e-302
-5.51697e-301
1.06277e-301
-6.24989e-301
1.90123e-301
-7.91302e-301
2.98235e-301
-4.36017e-301
4.22407e-301
-2.36219e-301
1.38707e-301
-1.29015e-301
2.94986e-302
-8.87272e-302
8.12571e-303
-6.45667e-302
2.0449e-303
-4.78386e-302
-1.86479e-305
-3.55476e-302
-6.87781e-304
-2.62595e-302
-8.31252e-304
-1.9112e-302
-7.98309e-304
-1.35126e-302
-7.33154e-304
-6.69953e-304
-9.05217e-303
-5.43785e-302
-1.17511e-302
-1.07689e-301
-3.63716e-302
-1.61819e-301
-5.63313e-302
-2.17905e-301
-7.02313e-302
-2.7711e-301
-7.64645e-302
-3.40547e-301
-7.31889e-302
-4.09251e-301
-5.83187e-302
-4.8416e-301
-2.95128e-302
-5.66104e-301
1.58176e-302
-6.55779e-301
8.04739e-302
-7.43921e-301
1.67399e-301
-9.38337e-301
2.79316e-301
-5.24995e-301
4.07616e-301
-2.79161e-301
1.35214e-301
-1.50657e-301
2.78248e-302
-1.02713e-301
6.75109e-303
-7.43198e-302
9.63252e-304
-5.48352e-302
-8.44986e-304
-4.06011e-302
-1.30592e-303
-2.98865e-302
-1.27843e-303
-2.16744e-302
-1.09669e-303
-1.5286e-302
-8.91865e-304
-6.97836e-304
-1.02574e-302
-6.3339e-302
-1.55676e-302
-1.25235e-301
-4.78127e-302
-1.88044e-301
-7.49407e-302
-2.53132e-301
-9.5314e-302
-3.21899e-301
-1.07099e-301
-3.95672e-301
-1.08253e-301
-4.75677e-301
-9.65243e-302
-5.63011e-301
-6.94505e-302
-6.58624e-301
-2.43654e-302
-7.63305e-301
4.1556e-302
-8.6666e-301
1.31236e-301
-1.08954e-300
2.47337e-301
-6.17656e-301
3.81086e-301
-3.24205e-301
1.27751e-301
-1.73378e-301
2.42149e-302
-1.17282e-301
4.1758e-303
-8.44065e-302
-9.27168e-304
-6.20281e-302
-2.22314e-303
-4.57793e-302
-2.29341e-303
-3.36075e-302
-1.96404e-303
-2.43218e-302
-1.54435e-303
-1.71377e-302
-1.14835e-303
-8.03736e-304
-1.15176e-302
-7.26338e-302
-2.04154e-302
-1.43348e-301
-6.23145e-302
-2.15057e-301
-9.86095e-302
-2.89389e-301
-1.2738e-301
-3.68013e-301
-1.4653e-301
-4.52492e-301
-1.53787e-301
-5.44253e-301
-1.46713e-301
-6.44554e-301
-1.2269e-301
-7.54467e-301
-7.89289e-302
-8.74865e-301
-1.24868e-302
-9.94223e-301
7.9686e-302
-1.24644e-300
2.00431e-301
-7.15156e-301
3.40993e-301
-3.71646e-301
1.15335e-301
-1.9718e-301
1.8171e-302
-1.32418e-301
8.89827e-305
-9.4816e-302
-3.8371e-303
-6.94139e-302
-4.30132e-303
-5.10806e-302
-3.758e-303
-3.74155e-302
-2.96964e-303
-2.7037e-302
-2.20463e-303
-1.90415e-302
-1.54874e-303
-1.01196e-303
-1.28103e-302
-8.21588e-302
-2.65132e-302
-1.61811e-301
-8.05064e-302
-2.42547e-301
-1.28364e-301
-3.26306e-301
-1.67818e-301
-4.15067e-301
-1.96457e-301
-5.10663e-301
-2.11749e-301
-6.14744e-301
-2.11044e-301
-7.28741e-301
-1.91554e-301
-8.5385e-301
-1.50323e-301
-9.91033e-301
-8.4223e-302
-1.12763e-300
1.00504e-302
-1.41057e-300
1.35714e-301
-8.18664e-301
2.84197e-301
-4.2179e-301
9.63967e-302
-2.22061e-301
8.97061e-303
-1.48083e-301
-5.93037e-303
-1.05514e-301
-8.03532e-303
-7.69655e-302
-7.25778e-303
-5.64826e-302
-5.82124e-303
-4.12892e-302
-4.38033e-303
-2.97973e-302
-3.13756e-303
-2.09754e-302
-2.13301e-303
-1.34412e-303
-1.41192e-302
-9.17324e-302
-3.41226e-302
-1.80253e-301
-1.03132e-301
-2.69985e-301
-1.65413e-301
-3.63243e-301
-2.1825e-301
-4.62377e-301
-2.58851e-301
-5.69534e-301
-2.84389e-301
-6.86612e-301
-2.91999e-301
-8.15229e-301
-2.78721e-301
-9.5671e-301
-2.41428e-301
-1.11211e-300
-1.76767e-301
-1.26763e-300
-8.10979e-302
-1.58318e-300
4.93263e-302
-9.29165e-301
2.06274e-301
-4.74875e-301
6.87539e-302
-2.47976e-301
-4.34277e-303
-1.64209e-301
-1.4409e-302
-1.16439e-301
-1.38391e-302
-8.46346e-302
-1.12904e-302
-6.19473e-302
-8.60941e-303
-4.51974e-302
-6.27845e-303
-3.25767e-302
-4.39723e-303
-2.29184e-302
-2.93541e-303
-1.81944e-303
-1.54299e-302
-1.01056e-301
-4.35655e-302
-1.98071e-301
-1.31094e-301
-2.96509e-301
-2.11202e-301
-3.99158e-301
-2.80591e-301
-5.08812e-301
-3.36002e-301
-6.27979e-301
-3.74291e-301
-7.58829e-301
-3.92395e-301
-9.03173e-301
-3.87225e-301
-1.06247e-300
-3.55523e-301
-1.23785e-300
-2.93722e-301
-1.41441e-300
-1.97822e-301
-1.76492e-300
-6.34584e-302
-1.0472e-300
1.01619e-301
-5.30973e-301
2.96072e-302
-2.74805e-301
-2.29411e-302
-1.8068e-301
-2.59511e-302
-1.275e-301
-2.15869e-302
-9.23516e-302
-1.65942e-302
-6.7422e-302
-1.22372e-302
-4.90999e-302
-8.73303e-303
-3.53444e-302
-6.02592e-303
-2.48479e-302
-3.98157e-303
-2.45261e-303
-1.67271e-302
-1.09653e-301
-5.52535e-302
-2.14309e-301
-1.65516e-301
-3.20772e-301
-2.67511e-301
-4.32425e-301
-3.57148e-301
-5.52599e-301
-4.30603e-301
-6.842e-301
-4.84413e-301
-8.29677e-301
-5.15394e-301
-9.91022e-301
-5.20425e-301
-1.16981e-300
-4.96213e-301
-1.36723e-300
-4.39063e-301
-1.56727e-300
-3.44666e-301
-1.95546e-300
-2.08038e-301
-1.17264e-300
-3.63503e-302
-5.89871e-301
-2.43884e-302
-3.02309e-301
-4.81432e-302
-1.97319e-301
-4.11737e-302
-1.38567e-301
-3.15859e-302
-1.00022e-301
-2.33239e-302
-7.28377e-302
-1.67828e-302
-5.29453e-302
-1.17842e-302
-3.80622e-302
-8.04499e-303
-2.67362e-302
-5.2833e-303
-3.25034e-303
-1.79918e-302
-1.16782e-301
-6.97379e-302
-2.27494e-301
-2.07854e-301
-3.40722e-301
-3.36579e-301
-4.60612e-301
-4.50736e-301
-5.91113e-301
-5.45829e-301
-7.35536e-301
-6.18136e-301
-8.96569e-301
-6.64496e-301
-1.07633e-300
-6.81943e-301
-1.27647e-300
-6.67323e-301
-1.49822e-300
-6.16971e-301
-1.72441e-300
-5.26415e-301
-2.15323e-300
-3.90179e-301
-1.30434e-300
-2.14821e-301
-6.50941e-301
-9.69237e-302
-3.3009e-301
-8.12594e-302
-2.13866e-301
-6.05843e-302
-1.49464e-301
-4.40267e-302
-1.07522e-301
-3.1538e-302
-7.81035e-302
-2.22537e-302
-5.66663e-302
-1.54234e-302
-4.06802e-302
-1.04436e-302
-2.85471e-302
-6.83216e-303
-4.20742e-303
-1.91994e-302
-1.21278e-301
-8.78087e-302
-2.35359e-301
-2.60074e-301
-3.53287e-301
-4.21319e-301
-4.80173e-301
-5.64861e-301
-6.20619e-301
-6.85456e-301
-7.7826e-301
-7.79292e-301
-9.55895e-301
-8.43509e-301
-1.15565e-300
-8.75577e-301
-1.37914e-300
-8.72745e-301
-1.62759e-300
-8.31612e-301
-1.88269e-300
-7.47789e-301
-2.35512e-300
-6.15575e-301
-1.43996e-300
-4.41018e-301
-7.13001e-301
-1.91621e-301
-3.57548e-301
-1.23291e-301
-2.29963e-301
-8.43779e-302
-1.59954e-301
-5.88574e-302
-1.14684e-301
-4.11269e-302
-8.3096e-302
-2.85472e-302
-6.01706e-302
-1.95721e-302
-4.31299e-302
-1.31677e-302
-3.02311e-302
-8.59326e-303
-5.30314e-303
-2.03154e-302
-1.21279e-301
-1.10699e-301
-2.34364e-301
-3.24967e-301
-3.53869e-301
-5.25633e-301
-4.86033e-301
-7.03947e-301
-6.35989e-301
-8.53968e-301
-8.07419e-301
-9.72178e-301
-1.00295e-300
-1.05648e-300
-1.22447e-300
-1.10518e-300
-1.47344e-300
-1.11627e-300
-1.75096e-300
-1.08689e-300
-2.03756e-300
-1.01306e-300
-2.55632e-300
-8.89313e-301
-1.57571e-300
-7.2144e-301
-7.74143e-301
-3.11277e-301
-3.83808e-301
-1.74402e-301
-2.45113e-301
-1.12128e-301
-1.69707e-301
-7.56215e-302
-1.2127e-301
-5.17333e-302
-8.76398e-302
-3.54129e-302
-6.33273e-302
-2.40646e-302
-4.53146e-302
-1.61111e-302
-3.17187e-302
-1.05009e-302
-6.49864e-303
-2.12925e-302
-1.13623e-301
-1.40532e-301
-2.18802e-301
-4.06687e-301
-3.35518e-301
-6.54878e-301
-4.71016e-301
-8.73604e-301
-6.30399e-301
-1.05663e-300
-8.16746e-301
-1.20149e-300
-1.03197e-300
-1.30756e-300
-1.27739e-300
-1.3745e-300
-1.55406e-300
-1.40137e-300
-1.8629e-300
-1.38617e-300
-2.18323e-300
-1.32568e-300
-2.75051e-300
-1.21525e-300
-1.70622e-300
-1.06094e-300
-8.3143e-301
-4.56491e-301
-4.07575e-301
-2.33022e-301
-2.58582e-301
-1.42364e-301
-1.78231e-301
-9.32833e-302
-1.26929e-301
-6.26864e-302
-9.14763e-302
-4.24305e-302
-6.59472e-302
-2.86406e-302
-4.70982e-302
-1.91138e-302
-3.2915e-302
-1.24576e-302
-7.73614e-303
-2.2067e-302
-9.2456e-302
-1.81202e-301
-1.79016e-301
-5.11664e-301
-2.87566e-301
-8.1647e-301
-4.25091e-301
-1.08084e-300
-5.95089e-301
-1.29943e-300
-7.98745e-301
-1.47215e-300
-1.03644e-300
-1.60079e-300
-1.30845e-300
-1.68695e-300
-1.61523e-300
-1.73105e-300
-1.95742e-300
-1.7321e-300
-2.31312e-300
-1.68793e-300
-2.9302e-300
-1.59539e-300
-1.82422e-300
-1.4617e-300
-8.80089e-301
-6.22959e-301
-4.26749e-301
-2.94356e-301
-2.69196e-301
-1.72084e-301
-1.84751e-301
-1.10107e-301
-1.3112e-301
-7.2991e-302
-9.42253e-302
-4.90216e-302
-6.77643e-302
-3.29575e-302
-4.82977e-302
-2.19691e-302
-3.36967e-302
-1.43378e-302
-8.94054e-303
-2.25592e-302
-4.54636e-302
-2.39681e-301
-9.7733e-302
-6.4981e-301
-1.93448e-301
-1.02032e-300
-3.34588e-301
-1.33384e-300
-5.19431e-301
-1.5886e-300
-7.45158e-301
-1.78881e-300
-1.00964e-300
-1.93976e-300
-1.31179e-300
-2.04541e-300
-1.65137e-300
-2.10767e-300
-2.0287e-300
-2.12648e-300
-2.42064e-300
-2.10073e-300
-3.08765e-300
-2.02944e-300
-1.91916e-300
-1.92228e-300
-9.10977e-301
-7.94805e-301
-4.37585e-301
-3.48047e-301
-2.74981e-301
-1.96437e-301
-1.8804e-301
-1.23732e-301
-1.33045e-301
-8.14254e-302
-9.53607e-302
-5.45129e-302
-6.84334e-302
-3.66242e-302
-4.86883e-302
-2.44417e-302
-3.39196e-302
-1.59971e-302
-1.0024e-302
-2.26793e-302
5.759e-302
-2.9729e-301
5.7438e-302
-8.08974e-301
-2.7756e-302
-1.25221e-300
-1.81978e-301
-1.61486e-300
-3.91803e-301
-1.90358e-300
-6.48052e-301
-2.12904e-300
-9.45677e-301
-2.30088e-300
-1.28252e-300
-2.42569e-300
-1.65801e-300
-2.50663e-300
-2.07221e-300
-2.54411e-300
-2.50042e-300
-2.5375e-300
-3.21637e-300
-2.4835e-300
-1.97119e-300
-2.4359e-300
-9.02567e-301
-9.25114e-301
-4.33439e-301
-3.75496e-301
-2.72771e-301
-2.09189e-301
-1.86313e-301
-1.31659e-301
-1.31646e-301
-8.67927e-302
-9.42469e-302
-5.82531e-302
-6.75689e-302
-3.92572e-302
-4.80352e-302
-2.62951e-302
-3.34415e-302
-1.72872e-302
-1.08938e-302
-2.23429e-302
3.01187e-301
-6.40882e-301
3.47437e-301
-1.29071e-300
2.4479e-301
-1.80781e-300
5.12524e-302
-2.21608e-300
-2.02768e-301
-2.53506e-300
-5.02229e-301
-2.78307e-300
-8.41022e-301
-2.97433e-300
-1.21774e-300
-3.11789e-300
-1.63275e-300
-3.21787e-300
-2.08611e-300
-3.27461e-300
-2.54583e-300
-3.28717e-300
-3.31546e-300
-3.26083e-300
-1.93612e-300
-2.09757e-300
-8.03115e-301
-8.01378e-301
-4.05878e-301
-3.54328e-301
-2.58286e-301
-2.06076e-301
-1.77457e-301
-1.32346e-301
-1.25831e-301
-8.82846e-302
-9.03023e-302
-5.97537e-302
-6.48531e-302
-4.05454e-302
-4.61612e-302
-2.73271e-302
-3.21622e-302
-1.80756e-302
-1.14647e-302
-2.14942e-302
8.94242e-301
-9.82826e-302
8.29621e-301
-6.33145e-301
6.33828e-301
-1.02619e-300
3.59396e-301
-1.31999e-300
3.849e-302
-1.54272e-300
-3.15866e-301
-1.71248e-300
-7.01554e-301
-1.84132e-300
-1.12138e-300
-1.93612e-300
-1.57888e-300
-1.9988e-300
-2.07497e-300
-2.02547e-300
-2.60409e-300
-2.00188e-300
-2.21141e-300
-1.8937e-300
-1.11613e-300
-1.07967e-300
-5.45638e-301
-5.25007e-301
-3.3689e-301
-2.981e-301
-2.27102e-301
-1.88947e-301
-1.60062e-301
-1.25864e-301
-1.15093e-301
-8.56885e-302
-8.33303e-302
-5.87975e-302
-6.02076e-302
-4.03159e-302
-4.30358e-302
-2.74097e-302
-3.00714e-302
-1.82709e-302
-1.16739e-302
-2.01313e-302
5.67904e-301
-3.49772e-301
4.35224e-301
-5.74517e-301
2.98089e-301
-7.12729e-301
1.49939e-301
-8.10903e-301
-2.15834e-303
-8.83114e-301
-1.59857e-301
-9.35425e-301
-3.2633e-301
-9.7143e-301
-5.03722e-301
-9.92837e-301
-6.89476e-301
-9.98874e-301
-8.68248e-301
-9.84109e-301
-9.89283e-301
-9.31437e-301
-8.40059e-301
-7.97716e-301
-5.41538e-301
-5.35641e-301
-3.64519e-301
-3.5718e-301
-2.57997e-301
-2.39334e-301
-1.86537e-301
-1.63894e-301
-1.36587e-301
-1.13798e-301
-1.00508e-301
-7.94924e-302
-7.38782e-302
-5.55305e-302
-5.39367e-302
-3.85951e-302
-3.88378e-302
-2.6528e-302
-2.72772e-302
-1.78473e-302
-1.1496e-302
-1.832e-302
1.12604e-301
-2.66051e-301
5.98536e-302
-3.47873e-301
2.16579e-302
-3.86207e-301
-2.20191e-302
-4.19578e-301
-7.15715e-302
-4.47135e-301
-1.27126e-301
-4.67639e-301
-1.88311e-301
-4.8087e-301
-2.53441e-301
-4.86906e-301
-3.17824e-301
-4.85432e-301
-3.71193e-301
-4.74878e-301
-3.95037e-301
-4.51383e-301
-3.68206e-301
-4.09828e-301
-3.06682e-301
-3.34977e-301
-2.44226e-301
-2.54983e-301
-1.90313e-301
-1.8773e-301
-1.4626e-301
-1.36513e-301
-1.1141e-301
-9.86003e-302
-8.41947e-302
-7.079e-302
-6.30519e-302
-5.0459e-302
-4.66537e-302
-3.5622e-302
-3.39222e-302
-2.47939e-302
-2.39904e-302
-1.68546e-302
-1.0951e-302
-1.61853e-302
-3.35261e-302
-1.67076e-301
-3.53639e-302
-2.22016e-301
-4.14451e-302
-2.47894e-301
-5.49086e-302
-2.6837e-301
-7.45698e-302
-2.84753e-301
-9.92608e-302
-2.96745e-301
-1.27705e-301
-3.04235e-301
-1.57976e-301
-3.07288e-301
-1.86882e-301
-3.0584e-301
-2.09555e-301
-2.99285e-301
-2.19909e-301
-2.86033e-301
-2.14082e-301
-2.63351e-301
-1.94396e-301
-2.2775e-301
-1.67276e-301
-1.85561e-301
-1.38444e-301
-1.45027e-301
-1.11419e-301
-1.10417e-301
-8.78504e-302
-8.25606e-302
-6.81249e-302
-6.08582e-302
-5.20168e-302
-4.4281e-302
-3.90574e-302
-3.17786e-302
-2.87142e-302
-2.24169e-302
-2.04712e-302
-1.54071e-302
-1.00996e-302
-1.38846e-302
-5.44526e-302
-9.83562e-302
-5.29647e-302
-1.43326e-301
-5.26183e-302
-1.66515e-301
-5.68212e-302
-1.82793e-301
-6.54155e-302
-1.94831e-301
-7.75652e-302
-2.03292e-301
-9.21945e-302
-2.08448e-301
-1.07868e-301
-2.10483e-301
-1.22638e-301
-2.09427e-301
-1.3408e-301
-2.04974e-301
-1.39752e-301
-1.96309e-301
-1.38267e-301
-1.82162e-301
-1.29867e-301
-1.6155e-301
-1.16273e-301
-1.3658e-301
-9.99862e-302
-1.10948e-301
-8.32346e-302
-8.74225e-302
-6.75083e-302
-6.72793e-302
-5.35671e-302
-5.07866e-302
-4.16618e-302
-3.76832e-302
-3.17425e-302
-2.74854e-302
-2.36035e-302
-1.96509e-302
-1.69709e-302
-1.36561e-302
-9.0301e-303
-1.15754e-302
-4.77568e-302
-5.80837e-302
-4.87128e-302
-9.24851e-302
-4.82342e-302
-1.12447e-301
-4.97103e-302
-1.26254e-301
-5.37174e-302
-1.36089e-301
-5.99458e-302
-1.4283e-301
-6.77395e-302
-1.46925e-301
-7.61852e-302
-1.48633e-301
-8.41384e-302
-1.48045e-301
-9.03205e-302
-1.45015e-301
-9.35561e-302
-1.39122e-301
-9.31142e-302
-1.29786e-301
-8.88753e-302
-1.16748e-301
-8.13964e-302
-1.00956e-301
-7.17815e-302
-8.41832e-302
-6.12527e-302
-6.80632e-302
-5.08122e-302
-5.3625e-302
-4.11183e-302
-4.13234e-302
-3.25152e-302
-3.1213e-302
-2.51161e-302
-2.3116e-302
-1.88831e-302
-1.67417e-302
-1.36908e-302
-1.1759e-302
-7.83974e-303
-9.38963e-303
-3.64235e-302
-3.46757e-302
-3.88472e-302
-5.96472e-302
-3.91954e-302
-7.57038e-302
-4.00586e-302
-8.71655e-302
-4.2157e-302
-9.53612e-302
-4.54907e-302
-1.00985e-301
-4.97377e-302
-1.0446e-301
-5.43772e-302
-1.06046e-301
-5.87582e-302
-1.05858e-301
-6.21802e-302
-1.03849e-301
-6.40105e-302
-9.98192e-302
-6.38129e-302
-9.35253e-302
-6.14321e-302
-8.49402e-302
-5.70565e-302
-7.45719e-302
-5.11918e-302
-6.33492e-302
-4.44915e-302
-5.22318e-302
-3.75727e-302
-4.19409e-302
-3.0908e-302
-3.28922e-302
-2.47988e-302
-2.52399e-302
-1.93952e-302
-1.89541e-302
-1.4732e-302
-1.38929e-302
-1.07653e-302
-9.85556e-303
-6.61981e-303
-7.4205e-303
-2.61029e-302
-2.08985e-302
-2.88963e-302
-3.84418e-302
-2.98002e-302
-5.07053e-302
-3.05994e-302
-5.98563e-302
-3.18942e-302
-6.65623e-302
-3.37964e-302
-7.12516e-302
-3.61797e-302
-7.42349e-302
-3.87726e-302
-7.57236e-302
-4.12173e-302
-7.58281e-302
-4.31252e-302
-7.45543e-302
-4.4138e-302
-7.18256e-302
-4.39885e-302
-6.75588e-302
-4.25511e-302
-6.18005e-302
-3.9883e-302
-5.48556e-302
-3.62224e-302
-4.72474e-302
-3.19187e-302
-3.9552e-302
-2.73391e-302
-3.2252e-302
-2.27977e-302
-2.56709e-302
-1.85212e-302
-1.99711e-302
-1.46455e-302
-1.51847e-302
-1.12274e-302
-1.12515e-302
-8.26282e-303
-8.05392e-303
-5.44507e-303
-5.72051e-303
-1.80224e-302
-1.26818e-302
-2.05901e-302
-2.4744e-302
-2.16796e-302
-3.37644e-302
-2.24702e-302
-4.08032e-302
-2.33912e-302
-4.61297e-302
-2.45648e-302
-4.99576e-302
-2.59581e-302
-5.24773e-302
-2.74406e-302
-5.38361e-302
-2.88226e-302
-5.41233e-302
-2.98893e-302
-5.33672e-302
-3.04357e-302
-5.15528e-302
-3.02986e-302
-4.86695e-302
-2.93891e-302
-4.4782e-302
-2.77174e-302
-4.00866e-302
-2.53974e-302
-3.48964e-302
-2.2617e-302
-2.95658e-302
-1.95916e-302
-2.44136e-302
-1.65215e-302
-1.96751e-302
-1.35655e-302
-1.54889e-302
-1.08299e-302
-1.19057e-302
-8.37016e-303
-8.90732e-303
-6.19855e-303
-6.42698e-303
-4.36909e-303
-4.3067e-303
-1.21202e-302
-7.73309e-303
-1.42298e-302
-1.58944e-302
-1.52662e-302
-2.2342e-302
-1.5994e-302
-2.75848e-302
-1.66979e-302
-3.16872e-302
-1.74753e-302
-3.47257e-302
-1.83296e-302
-3.67969e-302
-1.92029e-302
-3.79899e-302
-1.99979e-302
-3.83677e-302
-2.05978e-302
-3.79621e-302
-2.08857e-302
-3.67846e-302
-2.07638e-302
-3.48535e-302
-2.01729e-302
-3.22309e-302
-1.91084e-302
-2.90491e-302
-1.7625e-302
-2.55036e-302
-1.58244e-302
-2.18184e-302
-1.38321e-302
-1.82033e-302
-1.17732e-302
-1.48243e-302
-9.75378e-303
-1.17891e-302
-7.8511e-303
-9.14804e-303
-6.11091e-303
-6.90213e-303
-4.54963e-303
-5.01466e-303
-3.42416e-303
-3.16955e-303
-7.98753e-303
-4.73183e-303
-9.60444e-303
-1.01798e-302
-1.04766e-302
-1.46828e-302
-1.10941e-302
-1.84819e-302
-1.16386e-302
-2.1552e-302
-1.21779e-302
-2.38957e-302
-1.27253e-302
-2.55486e-302
-1.32571e-302
-2.65558e-302
-1.37251e-302
-2.69562e-302
-1.40669e-302
-2.6776e-302
-1.42164e-302
-2.60343e-302
-1.41161e-302
-2.47576e-302
-1.37283e-302
-2.29982e-302
-1.30454e-302
-2.08472e-302
-1.20937e-302
-1.8431e-302
-1.09286e-302
-1.58939e-302
-9.62295e-303
-1.33747e-302
-8.25367e-303
-1.09883e-302
-6.88979e-303
-8.81441e-303
-5.58482e-303
-6.89575e-303
-4.37325e-303
-5.2408e-303
-3.27036e-303
-3.83e-303
-2.62408e-303
-2.2824e-303
-5.18056e-303
-2.90246e-303
-6.36065e-303
-6.49492e-303
-7.0392e-303
-9.57833e-303
-7.52793e-303
-1.22661e-302
-7.94067e-303
-1.45046e-302
-8.32152e-303
-1.62641e-302
-8.6831e-303
-1.75456e-302
-9.01703e-303
-1.83658e-302
-9.29989e-303
-1.87444e-302
-9.49865e-303
-1.86997e-302
-9.57666e-303
-1.82495e-302
-9.50038e-303
-1.74188e-302
-9.2466e-303
-1.62488e-302
-8.80851e-303
-1.48028e-302
-8.19872e-303
-1.31645e-302
-7.44756e-303
-1.14282e-302
-6.59735e-303
-9.68626e-303
-5.69489e-303
-8.01726e-303
-4.78423e-303
-6.47869e-303
-3.90123e-303
-5.10391e-303
-3.07049e-303
-3.9031e-303
-2.30433e-303
-2.86625e-303
-1.96837e-303
-1.60961e-303
-3.31891e-303
-1.78328e-303
-4.14832e-303
-4.12508e-303
-4.64684e-303
-6.19987e-303
-5.01189e-303
-8.06162e-303
-5.31431e-303
-9.65595e-303
-5.58176e-303
-1.09443e-302
-5.8238e-303
-1.19117e-302
-6.03809e-303
-1.25581e-302
-6.21338e-303
-1.28906e-302
-6.33228e-303
-1.29196e-302
-6.37448e-303
-1.26587e-302
-6.32061e-303
-1.2128e-302
-6.15656e-303
-1.13584e-302
-5.87723e-303
-1.0394e-302
-5.48862e-303
-9.29076e-303
-5.00738e-303
-8.11111e-303