/*--------------------------------*- C++ -*----------------------------------*\
| =========                 |                                                 |
| \\      /  F ield         | OpenFOAM: The Open Source CFD Toolbox           |
|  \\    /   O peration     | Version:  2406                                  |
|   \\  /    A nd           | Website:  www.openfoam.com                      |
|    \\/     M anipulation  |                                                 |
\*---------------------------------------------------------------------------*/
FoamFile
{
    version     2.0;
    format      ascii;
    arch        "LSB;label=32;scalar=64";
    class       volVectorField;
    location    "0.85";
    object      U;
}
// * * * * * * * * * * * * * * * * * * * * * * * * * * * * * * * * * * * * * //

dimensions      [0 1 -1 0 0 0 0];

internalField   nonuniform List<vector> 
2268
(
(-2.70095e-300 -8.14974e-301 0)
(-7.65306e-300 -3.44821e-300 0)
(-1.26935e-299 -4.40154e-300 0)
(-1.77796e-299 -4.32334e-300 0)
(-2.30103e-299 -3.11344e-300 0)
(-2.83923e-299 -4.37994e-301 0)
(-3.38167e-299 4.24216e-300 0)
(-3.89758e-299 1.1744e-299 0)
(-4.31515e-299 2.33678e-299 0)
(-4.45416e-299 4.13812e-299 0)
(-3.71633e-299 7.00337e-299 0)
(2.61183e-300 1.10526e-298 0)
(2.3613e-298 1.62103e-298 0)
(5.46712e-299 7.25975e-299 0)
(-1.01577e-298 2.57771e-299 0)
(-8.07455e-299 -5.92626e-300 0)
(-5.34718e-299 -1.1182e-299 0)
(-3.43459e-299 -9.48702e-300 0)
(-2.17818e-299 -6.26476e-300 0)
(-1.35567e-299 -3.29952e-300 0)
(-8.03854e-300 -1.04415e-300 0)
(-4.1716e-300 3.43361e-301 0)
(-1.0132e-300 5.3233e-301 0)
(-8.37887e-300 -1.74278e-300 0)
(-2.35678e-299 -8.29043e-300 0)
(-3.86069e-299 -1.10451e-299 0)
(-5.38287e-299 -1.07686e-299 0)
(-6.94521e-299 -7.08228e-300 0)
(-8.54632e-299 9.82527e-301 0)
(-1.01511e-298 1.49502e-299 0)
(-1.16659e-298 3.71112e-299 0)
(-1.28813e-298 7.09371e-299 0)
(-1.33245e-298 1.21982e-298 0)
(-1.18286e-298 1.99613e-298 0)
(-5.05194e-299 3.20185e-298 0)
(1.28278e-298 4.94462e-298 0)
(-7.74029e-300 2.00298e-298 0)
(-1.42629e-298 3.93331e-299 0)
(-1.07036e-298 -1.79787e-300 0)
(-7.47273e-299 -1.01458e-299 0)
(-5.05274e-299 -9.56969e-300 0)
(-3.36416e-299 -6.57062e-300 0)
(-2.20454e-299 -3.40313e-300 0)
(-1.39732e-299 -7.43467e-301 0)
(-8.09811e-300 1.1491e-300 0)
(-2.86878e-300 1.66218e-300 0)
(-1.39696e-299 -2.98352e-300 0)
(-3.9767e-299 -1.28471e-299 0)
(-6.53502e-299 -1.73328e-299 0)
(-9.12971e-299 -1.68969e-299 0)
(-1.17996e-298 -1.07909e-299 0)
(-1.45486e-298 2.56854e-300 0)
(-1.73299e-298 2.56561e-299 0)
(-2.00112e-298 6.21042e-299 0)
(-2.23025e-298 1.17361e-298 0)
(-2.3596e-298 1.99885e-298 0)
(-2.26185e-298 3.23855e-298 0)
(-1.64238e-298 5.16531e-298 0)
(-3.79106e-299 7.98418e-298 0)
(-1.01882e-298 3.05786e-298 0)
(-1.69792e-298 5.00722e-299 0)
(-1.25614e-298 3.15373e-300 0)
(-9.01336e-299 -7.46555e-300 0)
(-6.29315e-299 -8.20884e-300 0)
(-4.32501e-299 -5.85278e-300 0)
(-2.93049e-299 -2.8877e-300 0)
(-1.93657e-299 -1.45176e-301 0)
(-1.19574e-299 2.04181e-300 0)
(-5.06471e-300 2.85362e-300 0)
(-1.97285e-299 -4.32903e-300 0)
(-5.67287e-299 -1.73291e-299 0)
(-9.35435e-299 -2.35668e-299 0)
(-1.30975e-298 -2.30584e-299 0)
(-1.6961e-298 -1.46442e-299 0)
(-2.09615e-298 3.88877e-300 0)
(-2.5054e-298 3.58817e-299 0)
(-2.9094e-298 8.62267e-299 0)
(-3.27663e-298 1.62096e-298 0)
(-3.54498e-298 2.74511e-298 0)
(-3.59993e-298 4.41534e-298 0)
(-3.21919e-298 6.96731e-298 0)
(-2.46821e-298 1.05636e-297 0)
(-1.96934e-298 3.79976e-298 0)
(-1.98488e-298 6.16528e-299 0)
(-1.45343e-298 8.16173e-300 0)
(-1.05668e-298 -4.59483e-300 0)
(-7.53603e-299 -6.5634e-300 0)
(-5.30291e-299 -4.89784e-300 0)
(-3.69003e-299 -2.2342e-300 0)
(-2.52408e-299 4.97562e-301 0)
(-1.64288e-299 2.93803e-300 0)
(-7.90772e-300 4.14733e-300 0)
(-2.58582e-299 -5.77548e-300 0)
(-7.48697e-299 -2.19985e-299 0)
(-1.23783e-298 -3.01146e-299 0)
(-1.73631e-298 -2.97021e-299 0)
(-2.25231e-298 -1.91343e-299 0)
(-2.78946e-298 4.39094e-300 0)
(-3.34476e-298 4.50668e-299 0)
(-3.90492e-298 1.08885e-298 0)
(-4.44019e-298 2.04581e-298 0)
(-4.8944e-298 3.45272e-298 0)
(-5.17338e-298 5.51967e-298 0)
(-5.11512e-298 8.60868e-298 0)
(-4.85331e-298 1.27907e-297 0)
(-2.9466e-298 4.40833e-298 0)
(-2.3248e-298 7.35189e-299 0)
(-1.68097e-298 1.2971e-299 0)
(-1.22872e-298 -1.8893e-300 0)
(-8.88772e-299 -4.97467e-300 0)
(-6.36763e-299 -3.96667e-300 0)
(-4.52869e-299 -1.63225e-300 0)
(-3.19104e-299 1.03036e-300 0)
(-2.17742e-299 3.67864e-300 0)
(-1.15938e-299 5.36698e-300 0)
(-3.25196e-299 -7.36081e-300 0)
(-9.45714e-299 -2.70739e-299 0)
(-1.56646e-298 -3.73226e-299 0)
(-2.20019e-298 -3.72463e-299 0)
(-2.85773e-298 -2.47628e-299 0)
(-3.54532e-298 3.54853e-300 0)
(-4.26256e-298 5.26321e-299 0)
(-4.9992e-298 1.29523e-298 0)
(-5.73021e-298 2.44237e-298 0)
(-6.40888e-298 4.11625e-298 0)
(-6.96121e-298 6.54627e-298 0)
(-7.26504e-298 1.0103e-297 0)
(-7.46877e-298 1.47786e-297 0)
(-3.97928e-298 4.95501e-298 0)
(-2.72216e-298 8.53645e-299 0)
(-1.94308e-298 1.75623e-299 0)
(-1.42269e-298 5.74514e-301 0)
(-1.03906e-298 -3.55436e-300 0)
(-7.54795e-299 -3.16532e-300 0)
(-5.46399e-299 -1.18022e-300 0)
(-3.94805e-299 1.33214e-300 0)
(-2.81216e-299 4.05922e-300 0)
(-1.64454e-299 6.11131e-300 0)
(-3.98493e-299 -9.14707e-300 0)
(-1.16193e-298 -3.27685e-299 0)
(-1.92695e-298 -4.55175e-299 0)
(-2.70884e-298 -4.61321e-299 0)
(-3.52138e-298 -3.20261e-299 0)
(-4.37396e-298 7.83799e-301 0)
(-5.26968e-298 5.8001e-299 0)
(-6.20266e-298 1.47524e-298 0)
(-7.15436e-298 2.80508e-298 0)
(-8.08893e-298 4.73021e-298 0)
(-8.95041e-298 7.49227e-298 0)
(-9.64339e-298 1.14635e-297 0)
(-1.02962e-297 1.66047e-297 0)
(-5.08544e-298 5.46764e-298 0)
(-3.17208e-298 9.70936e-299 0)
(-2.23934e-298 2.19932e-299 0)
(-1.6401e-298 2.81605e-300 0)
(-1.20622e-298 -2.32705e-300 0)
(-8.85632e-299 -2.53643e-300 0)
(-6.50061e-299 -9.32862e-301 0)
(-4.79164e-299 1.30483e-300 0)
(-3.54147e-299 3.82769e-300 0)
(-2.29545e-299 5.62396e-300 0)
(-4.79631e-299 -1.12229e-299 0)
(-1.40079e-298 -3.92806e-299 0)
(-2.32484e-298 -5.5048e-299 0)
(-3.26966e-298 -5.68042e-299 0)
(-4.25225e-298 -4.14833e-299 0)
(-5.28555e-298 -4.49301e-300 0)
(-6.3768e-298 6.05182e-299 0)
(-7.52534e-298 1.62284e-298 0)
(-8.71999e-298 3.12798e-298 0)
(-9.9362e-298 5.29043e-298 0)
(-1.11346e-297 8.35663e-298 0)
(-1.22462e-297 1.2696e-297 0)
(-1.33526e-297 1.82703e-297 0)
(-6.27543e-298 5.94079e-298 0)
(-3.66551e-298 1.08627e-298 0)
(-2.56562e-298 2.63481e-299 0)
(-1.87928e-298 4.89914e-300 0)
(-1.38954e-298 -1.26903e-300 0)
(-1.0286e-298 -2.08085e-300 0)
(-7.6262e-299 -9.04502e-301 0)
(-5.69523e-299 9.02114e-301 0)
(-4.31276e-299 2.7043e-300 0)
(-3.19103e-299 2.72946e-300 0)
(-3.15413e-303 -8.49762e-303 0)
(-1.49778e-302 -4.75307e-302 0)
(-1.01876e-302 -4.48453e-302 0)
(-1.02404e-302 -2.70764e-302 0)
(-1.06983e-302 -1.33706e-302 0)
(-9.41728e-303 -5.87563e-303 0)
(-7.09508e-303 -2.36276e-303 0)
(-4.76517e-303 -8.55506e-304 0)
(-2.93845e-303 -2.54569e-304 0)
(-1.69445e-303 -3.7657e-305 0)
(-9.23264e-304 2.63138e-305 0)
(-4.77669e-304 3.49657e-305 0)
(-2.34777e-304 2.73562e-305 0)
(-1.09204e-304 1.77008e-305 0)
(-4.76021e-305 1.01867e-305 0)
(-1.90489e-305 5.31051e-306 0)
(-6.6818e-306 2.46495e-306 0)
(-1.79273e-306 9.02253e-307 0)
(-1.49922e-307 1.36185e-307 0)
(-4.22873e-303 -3.08603e-302 0)
(-3.03424e-302 -9.89665e-302 0)
(-3.05811e-302 -8.36098e-302 0)
(-3.1084e-302 -4.89633e-302 0)
(-2.82767e-302 -2.37556e-302 0)
(-2.25751e-302 -1.01226e-302 0)
(-1.61518e-302 -3.78278e-303 0)
(-1.06085e-302 -1.13231e-303 0)
(-6.51296e-303 -1.46559e-304 0)
(-3.78219e-303 1.49954e-304 0)
(-2.09211e-303 1.89592e-304 0)
(-1.10584e-303 1.5108e-304 0)
(-5.58555e-304 1.01535e-304 0)
(-2.68656e-304 6.17227e-305 0)
(-1.22034e-304 3.47904e-305 0)
(-5.14541e-305 1.83047e-305 0)
(-1.93702e-305 8.88527e-306 0)
(-5.81562e-306 3.69067e-306 0)
(-5.93452e-307 8.08485e-307 0)
(-8.37481e-303 -7.13134e-302 0)
(-5.38943e-302 -1.64842e-301 0)
(-6.22223e-302 -1.26381e-301 0)
(-6.15983e-302 -7.09654e-302 0)
(-5.23853e-302 -3.35462e-302 0)
(-3.96187e-302 -1.38582e-302 0)
(-2.73883e-302 -4.85577e-303 0)
(-1.76546e-302 -1.18378e-303 0)
(-1.07557e-302 1.06455e-304 0)
(-6.2466e-303 4.30078e-304 0)
(-3.47558e-303 4.11131e-304 0)
(-1.85647e-303 3.03312e-304 0)
(-9.51518e-304 1.97738e-304 0)
(-4.66408e-304 1.18962e-304 0)
(-2.17021e-304 6.72174e-305 0)
(-9.44149e-305 3.58847e-305 0)
(-3.71254e-305 1.79798e-305 0)
(-1.19553e-305 7.98865e-306 0)
(-1.51108e-306 2.1026e-306 0)
(-2.57607e-302 -1.51457e-301 0)
(-9.91388e-302 -2.63985e-301 0)
(-1.16578e-301 -1.82907e-301 0)
(-1.09755e-301 -9.76008e-302 0)
(-8.84045e-302 -4.47095e-302 0)
(-6.41395e-302 -1.78942e-302 0)
(-4.31377e-302 -5.8893e-303 0)
(-2.73633e-302 -1.10578e-303 0)
(-1.65452e-302 4.91319e-304 0)
(-9.59732e-303 8.16772e-304 0)
(-5.35925e-303 7.09829e-304 0)
(-2.88435e-303 5.07663e-304 0)
(-1.49482e-303 3.27417e-304 0)
(-7.43525e-304 1.96875e-304 0)
(-3.52533e-304 1.12021e-304 0)
(-1.57184e-304 6.07056e-305 0)
(-6.39588e-305 3.12472e-305 0)
(-2.17471e-305 1.4611e-305 0)
(-3.23633e-306 4.36302e-306 0)
(-8.10639e-302 -3.09311e-301 0)
(-1.87822e-301 -4.13383e-301 0)
(-2.10305e-301 -2.5818e-301 0)
(-1.85662e-301 -1.30563e-301 0)
(-1.42268e-301 -5.79574e-302 0)
(-9.96799e-302 -2.25546e-302 0)
(-6.55478e-302 -7.02528e-303 0)
(-4.10371e-302 -9.5203e-304 0)
(-2.46622e-302 9.94966e-304 0)
(-1.42938e-302 1.31364e-303 0)
(-8.00777e-303 1.09439e-303 0)
(-4.33836e-303 7.72906e-304 0)
(-2.27008e-303 4.97646e-304 0)
(-1.14348e-303 3.0057e-304 0)
(-5.50974e-304 1.72649e-304 0)
(-2.50854e-304 9.49992e-305 0)
(-1.05068e-304 5.01001e-305 0)
(-3.73812e-305 2.4439e-305 0)
(-6.31552e-306 8.07046e-306 0)
(-2.38279e-301 -6.20362e-301 0)
(-3.60061e-301 -6.2964e-301 0)
(-3.6799e-301 -3.54287e-301 0)
(-3.02272e-301 -1.70218e-301 0)
(-2.20967e-301 -7.35373e-302 0)
(-1.50216e-301 -2.80114e-302 0)
(-9.69696e-302 -8.35792e-303 0)
(-6.00892e-302 -7.63478e-304 0)
(-3.59561e-302 1.6058e-303 0)
(-2.08413e-302 1.92262e-303 0)
(-1.17171e-302 1.57154e-303 0)
(-6.38838e-303 1.10631e-303 0)
(-3.3726e-303 7.1456e-304 0)
(-1.71838e-303 4.34652e-304 0)
(-8.39974e-304 2.52329e-304 0)
(-3.8955e-304 1.40932e-304 0)
(-1.6733e-304 7.59626e-305 0)
(-6.19112e-305 3.8402e-305 0)
(-1.16355e-305 1.38256e-305 0)
(-6.49967e-301 -1.21849e-300 0)
(-6.89651e-301 -9.20426e-301 0)
(-6.23945e-301 -4.69205e-301 0)
(-4.7545e-301 -2.1593e-301 0)
(-3.32734e-301 -9.15101e-302 0)
(-2.20441e-301 -3.4416e-302 0)
(-1.40216e-301 -9.98825e-303 0)
(-8.62369e-302 -5.88825e-304 0)
(-5.14753e-302 2.30731e-303 0)
(-2.98737e-302 2.64318e-303 0)
(-1.68641e-302 2.14698e-303 0)
(-9.25425e-303 1.51489e-303 0)
(-4.92772e-303 9.84389e-304 0)
(-2.53781e-303 6.03914e-304 0)
(-1.25702e-303 3.54455e-304 0)
(-5.92729e-304 2.00777e-304 0)
(-2.60353e-304 1.10285e-304 0)
(-9.96466e-305 5.73512e-305 0)
(-2.05595e-305 2.21205e-305 0)
(-1.61242e-300 -2.44698e-300 0)
(-1.30852e-300 -1.26128e-300 0)
(-1.01347e-300 -5.92928e-301 0)
(-7.18911e-301 -2.65591e-301 0)
(-4.84398e-301 -1.11618e-301 0)
(-3.14277e-301 -4.1849e-302 0)
(-1.97675e-301 -1.20184e-302 0)
(-1.2096e-301 -4.98718e-304 0)
(-7.21362e-302 3.05865e-303 0)
(-4.19522e-302 3.45427e-303 0)
(-2.37872e-302 2.81113e-303 0)
(-1.3136e-302 1.99501e-303 0)
(-7.05101e-303 1.30624e-303 0)
(-3.66685e-303 8.08546e-304 0)
(-1.83767e-303 4.79492e-304 0)
(-8.79157e-304 2.74933e-304 0)
(-3.93592e-304 1.53262e-304 0)
(-1.55014e-304 8.12354e-305 0)
(-3.49186e-305 3.27966e-305 0)
(-6.17776e-299 -1.50127e-299 0)
(-1.80751e-298 -5.0881e-299 0)
(-3.00196e-298 -7.22975e-299 0)
(-4.22333e-298 -7.67409e-299 0)
(-5.49404e-298 -6.03011e-299 0)
(-6.83312e-298 -1.752e-299 0)
(-8.25495e-298 5.89881e-299 0)
(-9.76779e-298 1.78996e-298 0)
(-1.13726e-297 3.55618e-298 0)
(-1.30619e-297 6.0658e-298 0)
(-1.48205e-297 9.56434e-298 0)
(-1.662e-297 1.43888e-297 0)
(-1.85072e-297 2.03658e-297 0)
(-8.23254e-298 6.57216e-298 0)
(-4.4825e-298 1.26399e-298 0)
(-3.1065e-298 3.32653e-299 0)
(-2.2755e-298 8.14071e-300 0)
(-1.69222e-298 2.98633e-301 0)
(-1.2633e-298 -1.50645e-300 0)
(-9.44986e-299 -1.08844e-300 0)
(-7.1035e-299 -1.54574e-301 0)
(-5.3861e-299 1.14992e-301 0)
(-4.09365e-299 -1.86471e-300 0)
(-8.17407e-299 -2.14159e-299 0)
(-2.3944e-298 -7.01068e-299 0)
(-3.97965e-298 -1.0183e-298 0)
(-5.6027e-298 -1.1289e-298 0)
(-7.29478e-298 -9.83109e-299 0)
(-9.08464e-298 -5.1509e-299 0)
(-1.09976e-297 3.59373e-299 0)
(-1.30549e-297 1.74816e-298 0)
(-1.52729e-297 3.78805e-298 0)
(-1.76633e-297 6.65451e-298 0)
(-2.02335e-297 1.05718e-297 0)
(-2.29862e-297 1.58167e-297 0)
(-2.59396e-297 2.20944e-297 0)
(-1.10549e-297 7.13276e-298 0)
(-5.67734e-298 1.45631e-298 0)
(-3.87861e-298 4.12122e-299 0)
(-2.82863e-298 1.1886e-299 0)
(-2.10494e-298 2.00977e-300 0)
(-1.57474e-298 -1.05397e-300 0)
(-1.17777e-298 -1.59666e-300 0)
(-8.77708e-299 -1.52783e-300 0)
(-6.4713e-299 -1.95218e-300 0)
(-4.60578e-299 -3.61088e-300 0)
(-1.02917e-298 -2.9637e-299 0)
(-3.01261e-298 -9.48055e-299 0)
(-5.00775e-298 -1.4064e-298 0)
(-7.05268e-298 -1.62372e-298 0)
(-9.18856e-298 -1.5395e-298 0)
(-1.14546e-297 -1.07844e-298 0)
(-1.38871e-297 -1.47113e-299 0)
(-1.65193e-297 1.3681e-298 0)
(-1.93803e-297 3.60591e-298 0)
(-2.24952e-297 6.73261e-298 0)
(-2.58852e-297 1.09472e-297 0)
(-2.95678e-297 1.64689e-297 0)
(-3.35348e-297 2.29202e-297 0)
(-1.39942e-297 7.43374e-298 0)
(-6.95422e-298 1.57379e-298 0)
(-4.68816e-298 4.57563e-299 0)
(-3.39727e-298 1.37208e-299 0)
(-2.52051e-298 2.55099e-300 0)
(-1.88154e-298 -1.29002e-300 0)
(-1.40178e-298 -2.36947e-300 0)
(-1.03545e-298 -2.63321e-300 0)
(-7.50421e-299 -3.00982e-300 0)
(-5.21489e-299 -3.78719e-300 0)
(-1.25388e-298 -4.03686e-299 0)
(-3.66316e-298 -1.27061e-298 0)
(-6.0865e-298 -1.92127e-298 0)
(-8.57158e-298 -2.29705e-298 0)
(-1.11703e-297 -2.32761e-298 0)
(-1.39328e-297 -1.92785e-298 0)
(-1.69063e-297 -9.97231e-299 0)
(-2.01342e-297 5.83215e-299 0)
(-2.3656e-297 2.9511e-298 0)
(-2.7506e-297 6.26454e-298 0)
(-3.17131e-297 1.06993e-297 0)
(-3.63016e-297 1.64332e-297 0)
(-4.12471e-297 2.30373e-297 0)
(-1.70452e-297 7.52875e-298 0)
(-8.31052e-298 1.61313e-298 0)
(-5.53795e-298 4.61003e-299 0)
(-3.986e-298 1.29814e-299 0)
(-2.94457e-298 1.47315e-300 0)
(-2.19042e-298 -2.47427e-300 0)
(-1.62525e-298 -3.54682e-300 0)
(-1.19344e-298 -3.65972e-300 0)
(-8.58038e-299 -3.6255e-300 0)
(-5.92399e-299 -3.62679e-300 0)
(-1.49163e-298 -5.4358e-299 0)
(-4.34534e-298 -1.69101e-298 0)
(-7.21399e-298 -2.5989e-298 0)
(-1.01557e-297 -3.19793e-298 0)
(-1.32342e-297 -3.40686e-298 0)
(-1.65108e-297 -3.1317e-298 0)
(-2.00435e-297 -2.26372e-298 0)
(-2.38854e-297 -6.79923e-299 0)
(-2.80843e-297 1.75847e-298 0)
(-3.26812e-297 5.20273e-298 0)
(-3.771e-297 9.81495e-298 0)
(-4.31987e-297 1.57464e-297 0)
(-4.91151e-297 2.25405e-297 0)
(-2.02218e-297 7.43781e-298 0)
(-9.74327e-298 1.56978e-298 0)
(-6.42824e-298 4.15763e-299 0)
(-4.59699e-298 9.08313e-300 0)
(-3.38049e-298 -1.67436e-300 0)
(-2.50551e-298 -4.94691e-300 0)
(-1.8526e-298 -5.4224e-300 0)
(-1.35541e-298 -4.95404e-300 0)
(-9.7111e-299 -4.28525e-300 0)
(-6.69688e-299 -3.60202e-300 0)
(-1.74195e-298 -7.24369e-299 0)
(-5.05684e-298 -2.23349e-298 0)
(-8.38587e-298 -3.47925e-298 0)
(-1.17988e-297 -4.38004e-298 0)
(-1.53723e-297 -4.84367e-298 0)
(-1.91802e-297 -4.76539e-298 0)
(-2.32912e-297 -4.02888e-298 0)
(-2.77679e-297 -2.50452e-298 0)
(-3.26655e-297 -5.1745e-300 0)
(-3.8031e-297 3.48042e-298 0)
(-4.3902e-297 8.24747e-298 0)
(-5.03094e-297 1.43918e-297 0)
(-5.7217e-297 2.14414e-297 0)
(-2.35482e-297 7.15177e-298 0)
(-1.12519e-297 1.43252e-298 0)
(-7.35844e-298 3.12681e-299 0)
(-5.23063e-298 1.31038e-300 0)
(-3.82955e-298 -7.44305e-300 0)
(-2.82854e-298 -9.14401e-300 0)
(-2.0854e-298 -8.37192e-300 0)
(-1.52202e-298 -6.87921e-300 0)
(-1.08868e-298 -5.338e-300 0)
(-7.5088e-299 -3.92764e-300 0)
(-2.00363e-298 -9.55374e-299 0)
(-5.79286e-298 -2.92551e-298 0)
(-9.59407e-298 -4.60686e-298 0)
(-1.34901e-297 -5.90435e-298 0)
(-1.75729e-297 -6.71228e-298 0)
(-2.19296e-297 -6.91508e-298 0)
(-2.66409e-297 -6.38611e-298 0)
(-3.17791e-297 -4.98921e-298 0)
(-3.74072e-297 -2.57729e-298 0)
(-4.35771e-297 1.00348e-298 0)
(-5.03307e-297 5.91289e-298 0)
(-5.77011e-297 1.22959e-297 0)
(-6.56492e-297 1.96779e-297 0)
(-2.70547e-297 6.63263e-298 0)
(-1.28377e-297 1.18027e-298 0)
(-8.32759e-298 1.37889e-299 0)
(-5.88611e-298 -1.13145e-299 0)
(-4.29142e-298 -1.65446e-299 0)
(-3.15946e-298 -1.56019e-299 0)
(-2.32352e-298 -1.28201e-299 0)
(-1.69265e-298 -9.78435e-300 0)
(-1.20949e-298 -7.05269e-300 0)
(-8.34422e-299 -4.74469e-300 0)
(-2.27423e-298 -1.24745e-298 0)
(-6.54468e-298 -3.79824e-298 0)
(-1.0824e-297 -6.03312e-298 0)
(-1.52109e-297 -7.83997e-298 0)
(-1.98147e-297 -9.09828e-298 0)
(-2.47385e-297 -9.67856e-298 0)
(-3.0076e-297 -9.44422e-298 0)
(-3.59105e-297 -8.2491e-298 0)
(-4.23124e-297 -5.93916e-298 0)
(-4.93397e-297 -2.35081e-298 0)
(-5.70375e-297 2.68525e-298 0)
(-6.54423e-297 9.3307e-298 0)
(-7.45082e-297 1.71153e-297 0)
(-3.07727e-297 5.81205e-298 0)
(-1.45021e-297 7.80383e-299 0)
(-9.33382e-298 -1.28288e-299 0)
(-6.56136e-298 -3.00879e-299 0)
(-4.76446e-298 -2.98667e-299 0)
(-3.497e-298 -2.4947e-299 0)
(-2.56583e-298 -1.92224e-299 0)
(-1.86615e-298 -1.40037e-299 0)
(-1.33229e-298 -9.65827e-300 0)
(-9.19202e-299 -6.17437e-300 0)
(-2.54936e-298 -1.61333e-298 0)
(-7.29718e-298 -4.88842e-298 0)
(-1.20512e-297 -7.81741e-298 0)
(-1.6929e-297 -1.02677e-297 0)
(-2.20615e-297 -1.20995e-297 0)
(-2.757e-297 -1.31692e-297 0)
(-3.35637e-297 -1.33275e-297 0)
(-4.01371e-297 -1.24196e-297 0)
(-4.73694e-297 -1.02807e-297 0)
(-5.53237e-297 -6.73686e-298 0)
(-6.40496e-297 -1.60081e-298 0)
(-7.35859e-297 5.31284e-298 0)
(-8.38751e-297 1.35495e-297 0)
(-3.47287e-297 4.58918e-298 0)
(-1.62443e-297 1.87547e-299 0)
(-1.03734e-297 -5.116e-299 0)
(-7.25277e-298 -5.66133e-299 0)
(-5.24577e-298 -4.84449e-299 0)
(-3.8389e-298 -3.78642e-299 0)
(-2.81051e-298 -2.80414e-299 0)
(-2.04097e-298 -1.98506e-299 0)
(-1.45581e-298 -1.3357e-299 0)
(-1.00425e-298 -8.32866e-300 0)
(-2.82163e-298 -2.0685e-298 0)
(-8.0257e-298 -6.23959e-298 0)
(-1.32352e-297 -1.00307e-297 0)
(-1.85921e-297 -1.32815e-297 0)
(-2.42534e-297 -1.58305e-297 0)
(-3.03624e-297 -1.75164e-297 0)
(-3.70448e-297 -1.81793e-297 0)
(-4.44078e-297 -1.76544e-297 0)
(-5.25386e-297 -1.57694e-297 0)
(-6.15065e-297 -1.23363e-297 0)
(-7.13639e-297 -7.14967e-298 0)
(-8.21541e-297 9.47416e-301 0)
(-9.37963e-297 8.70746e-298 0)
(-3.89365e-297 2.82937e-298 0)
(-1.80581e-297 -6.56133e-299 0)
(-1.14394e-297 -1.04313e-298 0)
(-7.95475e-298 -9.27107e-299 0)
(-5.73106e-298 -7.33784e-299 0)
(-4.18194e-298 -5.50314e-299 0)
(-3.05513e-298 -3.97031e-299 0)
(-2.21525e-298 -2.75955e-299 0)
(-1.57861e-298 -1.83161e-299 0)
(-1.08855e-298 -1.13031e-299 0)
(-3.07919e-298 -2.63223e-298 0)
(-8.69097e-298 -7.90548e-298 0)
(-1.43129e-297 -1.27581e-297 0)
(-2.01187e-297 -1.69944e-297 0)
(-2.62978e-297 -2.04242e-297 0)
(-3.30181e-297 -2.28696e-297 0)
(-4.04238e-297 -2.41602e-297 0)
(-4.86335e-297 -2.41273e-297 0)
(-5.77425e-297 -2.25915e-297 0)
(-6.78241e-297 -1.93563e-297 0)
(-7.89343e-297 -1.41954e-297 0)
(-9.11197e-297 -6.85665e-298 0)
(-1.04266e-296 2.25728e-298 0)
(-4.33877e-297 3.65254e-299 0)
(-1.99289e-297 -1.81921e-298 0)
(-1.25209e-297 -1.757e-298 0)
(-8.65924e-298 -1.40212e-298 0)
(-6.21452e-298 -1.05673e-298 0)
(-4.52187e-298 -7.70087e-299 0)
(-3.29652e-298 -5.45264e-299 0)
(-2.38662e-298 -3.74242e-299 0)
(-1.69897e-298 -2.46451e-299 0)
(-1.17089e-298 -1.51606e-299 0)
(-3.30339e-298 -3.32964e-298 0)
(-9.23192e-298 -9.95372e-298 0)
(-1.51873e-297 -1.61063e-297 0)
(-2.13858e-297 -2.15419e-297 0)
(-2.80562e-297 -2.60379e-297 0)
(-3.53937e-297 -2.93987e-297 0)
(-4.35586e-297 -3.14509e-297 0)
(-5.2679e-297 -3.20267e-297 0)
(-6.28545e-297 -3.095e-297 0)
(-7.41615e-297 -2.80186e-297 0)
(-8.66568e-297 -2.29941e-297 0)
(-1.00393e-296 -1.55907e-297 0)
(-1.15204e-296 -6.17948e-298 0)
(-4.80413e-297 -2.99676e-298 0)
(-2.18306e-297 -3.37545e-298 0)
(-1.36012e-297 -2.68565e-298 0)
(-9.3551e-298 -2.00601e-298 0)
(-6.68836e-298 -1.45992e-298 0)
(-4.85307e-298 -1.04078e-298 0)
(-3.53054e-298 -7.26252e-299 0)
(-2.552e-298 -4.93813e-299 0)
(-1.8146e-298 -3.23618e-299 0)
(-1.24964e-298 -1.99106e-299 0)
(-3.46502e-298 -4.19509e-298 0)
(-9.55295e-298 -1.24738e-297 0)
(-1.57104e-297 -2.02105e-297 0)
(-2.22113e-297 -2.70925e-297 0)
(-2.93303e-297 -3.28571e-297 0)
(-3.72868e-297 -3.72984e-297 0)
(-4.62515e-297 -4.02484e-297 0)
(-5.63541e-297 -4.15551e-297 0)
(-6.76933e-297 -4.10543e-297 0)
(-8.03435e-297 -3.85526e-297 0)
(-9.43618e-297 -3.38062e-297 0)
(-1.09805e-296 -2.65096e-297 0)
(-1.26445e-296 -1.69997e-297 0)
(-5.28113e-297 -7.46132e-298 0)
(-2.37221e-297 -5.39245e-298 0)
(-1.46569e-297 -3.85141e-298 0)
(-1.00273e-297 -2.74448e-298 0)
(-7.14217e-298 -1.94304e-298 0)
(-5.16797e-298 -1.36039e-298 0)
(-3.75154e-298 -9.37931e-299 0)
(-2.70716e-298 -6.33058e-299 0)
(-1.92239e-298 -4.13573e-299 0)
(-1.3226e-298 -2.54876e-299 0)
(-3.51677e-298 -5.27949e-298 0)
(-9.50127e-298 -1.55883e-297 0)
(-1.56553e-297 -2.52498e-297 0)
(-2.23289e-297 -3.3856e-297 0)
(-2.98418e-297 -4.11037e-297 0)
(-3.84252e-297 -4.67874e-297 0)
(-4.82431e-297 -5.07664e-297 0)
(-5.94131e-297 -5.29198e-297 0)
(-7.20217e-297 -5.31151e-297 0)
(-8.61366e-297 -5.11784e-297 0)
(-1.01811e-296 -4.68804e-297 0)
(-1.19107e-296 -3.99111e-297 0)
(-1.37722e-296 -3.05862e-297 0)
(-5.7554e-297 -1.32146e-297 0)
(-2.55424e-297 -7.91069e-298 0)
(-1.56554e-297 -5.25298e-298 0)
(-1.0655e-297 -3.60624e-298 0)
(-7.56133e-298 -2.49457e-298 0)
(-5.45579e-298 -1.71985e-298 0)
(-3.95146e-298 -1.1739e-298 0)
(-2.84609e-298 -7.87738e-299 0)
(-2.01797e-298 -5.13641e-299 0)
(-1.38671e-298 -3.17334e-299 0)
(-3.37601e-298 -6.665e-298 0)
(-8.82027e-298 -1.94757e-297 0)
(-1.46659e-297 -3.14661e-297 0)
(-2.13485e-297 -4.20999e-297 0)
(-2.92102e-297 -5.10396e-297 0)
(-3.84566e-297 -5.81108e-297 0)
(-4.92127e-297 -6.32276e-297 0)
(-6.15589e-297 -6.63294e-297 0)
(-7.55562e-297 -6.73301e-297 0)
(-9.12563e-297 -6.60968e-297 0)
(-1.08707e-296 -6.24293e-297 0)
(-1.27976e-296 -5.6046e-297 0)
(-1.48679e-296 -4.72573e-297 0)
(-6.20454e-297 -2.03722e-297 0)
(-2.72001e-297 -1.09074e-297 0)
(-1.65489e-297 -6.84564e-298 0)
(-1.12072e-297 -4.55334e-298 0)
(-7.92399e-298 -3.08746e-298 0)
(-5.70053e-298 -2.1012e-298 0)
(-4.11852e-298 -1.42267e-298 0)
(-2.96024e-298 -9.50649e-299 0)
(-2.09527e-298 -6.19406e-299 0)
(-1.43782e-298 -3.8387e-299 0)
(-2.87515e-298 -8.49844e-298 0)
(-7.04905e-298 -2.44059e-297 0)
(-1.21665e-297 -3.91954e-297 0)
(-1.87008e-297 -5.21621e-297 0)
(-2.69284e-297 -6.29712e-297 0)
(-3.69483e-297 -7.15306e-297 0)
(-4.87888e-297 -7.78579e-297 0)
(-6.24623e-297 -8.1979e-297 0)
(-7.79866e-297 -8.38777e-297 0)
(-9.53922e-297 -8.34709e-297 0)
(-1.14717e-296 -8.06123e-297 0)
(-1.36037e-296 -7.50794e-297 0)
(-1.58888e-296 -6.7218e-297 0)
(-6.5922e-297 -2.88833e-297 0)
(-2.85466e-297 -1.42358e-297 0)
(-1.72605e-297 -8.51543e-298 0)
(-1.16349e-297 -5.51195e-298 0)
(-8.19617e-298 -3.67641e-298 0)
(-5.87825e-298 -2.47705e-298 0)
(-4.23588e-298 -1.66766e-298 0)
(-3.03793e-298 -1.11173e-298 0)
(-2.14634e-298 -7.24766e-299 0)
(-1.47065e-298 -4.5086e-299 0)
(-1.59068e-298 -1.10532e-297 0)
(-3.28938e-298 -3.08027e-297 0)
(-7.20126e-298 -4.89018e-297 0)
(-1.35634e-297 -6.44603e-297 0)
(-2.23512e-297 -7.72372e-297 0)
(-3.34044e-297 -8.73147e-297 0)
(-4.65806e-297 -9.48678e-297 0)
(-6.17938e-297 -1.00044e-296 0)
(-7.90131e-297 -1.02903e-296 0)
(-9.82447e-297 -1.03423e-296 0)
(-1.19516e-296 -1.01516e-296 0)
(-1.42906e-296 -9.7064e-297 0)
(-1.67902e-296 -9.05002e-297 0)
(-6.84722e-297 -3.83341e-297 0)
(-2.93119e-297 -1.75253e-297 0)
(-1.76584e-297 -1.00524e-297 0)
(-1.1858e-297 -6.36863e-298 0)
(-8.32614e-298 -4.19933e-298 0)
(-5.95487e-298 -2.81239e-298 0)
(-4.28113e-298 -1.88846e-298 0)
(-3.06449e-298 -1.25874e-298 0)
(-2.1617e-298 -8.2228e-299 0)
(-1.47923e-298 -5.13825e-299 0)
(1.84192e-298 -1.48084e-297 0)
(4.33978e-298 -3.93119e-297 0)
(1.8256e-298 -6.1191e-297 0)
(-4.80492e-298 -7.94614e-297 0)
(-1.47286e-297 -9.41732e-297 0)
(-2.73275e-297 -1.05699e-296 0)
(-4.22343e-297 -1.14432e-296 0)
(-5.92745e-297 -1.20657e-296 0)
(-7.83905e-297 -1.24515e-296 0)
(-9.95797e-297 -1.26025e-296 0)
(-1.22851e-296 -1.25154e-296 0)
(-1.48263e-296 -1.21913e-296 0)
(-1.75337e-296 -1.16914e-296 0)
(-6.78795e-297 -4.74255e-297 0)
(-2.90019e-297 -2.0029e-297 0)
(-1.75234e-297 -1.11431e-297 0)
(-1.17558e-297 -6.98211e-298 0)
(-8.24296e-298 -4.58649e-298 0)
(-5.88789e-298 -3.06956e-298 0)
(-4.22855e-298 -2.0633e-298 0)
(-3.02428e-298 -1.37852e-298 0)
(-2.13181e-298 -9.03814e-299 0)
(-1.45779e-298 -5.67763e-299 0)
(1.24161e-297 -1.95157e-297 0)
(1.99132e-297 -5.08676e-297 0)
(1.73806e-297 -7.6814e-297 0)
(8.89511e-298 -9.76736e-297 0)
(-3.39369e-298 -1.14115e-296 0)
(-1.83714e-297 -1.26916e-296 0)
(-3.55378e-297 -1.36725e-296 0)
(-5.47373e-297 -1.43967e-296 0)
(-7.59751e-297 -1.48841e-296 0)
(-9.92838e-297 -1.51376e-296 0)
(-1.24638e-296 -1.51535e-296 0)
(-1.51951e-296 -1.49435e-296 0)
(-1.80787e-296 -1.45921e-296 0)
(-5.91853e-297 -5.23945e-297 0)
(-2.70208e-297 -2.0487e-297 0)
(-1.6546e-297 -1.14284e-297 0)
(-1.11784e-297 -7.22394e-298 0)
(-7.86984e-298 -4.77847e-298 0)
(-5.63683e-298 -3.21595e-298 0)
(-4.0562e-298 -2.17255e-298 0)
(-2.90513e-298 -1.45873e-298 0)
(-2.04981e-298 -9.61479e-299 0)
(-1.40247e-298 -6.07683e-299 0)
(4.75586e-297 -2.70307e-297 0)
(4.84291e-297 -6.51505e-297 0)
(4.06222e-297 -9.49991e-297 0)
(2.74127e-297 -1.18193e-296 0)
(1.11648e-297 -1.36169e-296 0)
(-7.03328e-298 -1.50127e-296 0)
(-2.68717e-297 -1.60956e-296 0)
(-4.8433e-297 -1.69204e-296 0)
(-7.19352e-297 -1.75117e-296 0)
(-9.7541e-297 -1.78705e-296 0)
(-1.25185e-296 -1.79895e-296 0)
(-1.54337e-296 -1.78659e-296 0)
(-8.30344e-297 -8.04079e-297 0)
(-3.67705e-297 -3.40743e-297 0)
(-2.17982e-297 -1.7745e-297 0)
(-1.43634e-297 -1.08072e-297 0)
(-1.00136e-297 -7.05625e-298 0)
(-7.16743e-298 -4.74745e-298 0)
(-5.18661e-298 -3.23148e-298 0)
(-3.75805e-298 -2.2023e-298 0)
(-2.70462e-298 -1.48987e-298 0)
(-1.91483e-298 -9.88879e-299 0)
(-1.31302e-298 -6.29365e-299 0)
(3.41649e-297 -2.03785e-297 0)
(2.67939e-297 -3.90117e-297 0)
(1.9923e-297 -5.12582e-297 0)
(1.20737e-297 -5.95108e-297 0)
(4.02067e-298 -6.53757e-297 0)
(-4.25234e-298 -6.9586e-297 0)
(-1.29067e-297 -7.25356e-297 0)
(-2.21215e-297 -7.44004e-297 0)
(-3.1948e-297 -7.51247e-297 0)
(-4.20603e-297 -7.42482e-297 0)
(-5.11373e-297 -7.02278e-297 0)
(-5.50522e-297 -5.87595e-297 0)
(-3.51196e-297 -3.60892e-297 0)
(-2.3009e-297 -2.2574e-297 0)
(-1.61185e-297 -1.442e-297 0)
(-1.15749e-297 -9.58017e-298 0)
(-8.448e-298 -6.52448e-298 0)
(-6.2132e-298 -4.49835e-298 0)
(-4.57528e-298 -3.11278e-298 0)
(-3.35479e-298 -2.14779e-298 0)
(-2.43476e-298 -1.46764e-298 0)
(-1.73408e-298 -9.82559e-299 0)
(-1.19385e-298 -6.30252e-299 0)
(7.91977e-298 -1.7362e-297 0)
(4.16715e-298 -2.29788e-297 0)
(2.25753e-298 -2.56454e-297 0)
(6.72334e-300 -2.79858e-297 0)
(-2.43076e-298 -2.99125e-297 0)
(-5.25171e-298 -3.13464e-297 0)
(-8.39394e-298 -3.22818e-297 0)
(-1.18194e-297 -3.27268e-297 0)
(-1.5385e-297 -3.26539e-297 0)
(-1.87302e-297 -3.19373e-297 0)
(-2.11136e-297 -3.02743e-297 0)
(-2.12896e-297 -2.73143e-297 0)
(-1.82336e-297 -2.17065e-297 0)
(-1.46856e-297 -1.59658e-297 0)
(-1.15296e-297 -1.14041e-297 0)
(-8.89859e-298 -8.10407e-298 0)
(-6.80093e-298 -5.75437e-298 0)
(-5.15777e-298 -4.07889e-298 0)
(-3.87968e-298 -2.87897e-298 0)
(-2.88829e-298 -2.01663e-298 0)
(-2.1195e-298 -1.39474e-298 0)
(-1.5217e-298 -9.43168e-299 0)
(-1.05342e-298 -6.10171e-299 0)
(-1.75719e-298 -1.1345e-297 0)
(-1.8415e-298 -1.45567e-297 0)
(-1.95446e-298 -1.60264e-297 0)
(-2.49425e-298 -1.72868e-297 0)
(-3.39963e-298 -1.83334e-297 0)
(-4.60468e-298 -1.91119e-297 0)
(-6.04995e-298 -1.96042e-297 0)
(-7.65784e-298 -1.98105e-297 0)
(-9.29924e-298 -1.97243e-297 0)
(-1.07606e-297 -1.93021e-297 0)
(-1.1733e-297 -1.843e-297 0)
(-1.1872e-297 -1.69063e-297 0)
(-1.11075e-297 -1.44375e-297 0)
(-9.75895e-298 -1.15469e-297 0)
(-8.19643e-298 -8.85201e-298 0)
(-6.66417e-298 -6.62574e-298 0)
(-5.29554e-298 -4.88462e-298 0)
(-4.1343e-298 -3.55936e-298 0)
(-3.1782e-298 -2.56557e-298 0)
(-2.40527e-298 -1.82699e-298 0)
(-1.78714e-298 -1.28052e-298 0)
(-1.29504e-298 -8.75441e-299 0)
(-9.02342e-299 -5.71439e-299 0)
(-2.93474e-298 -6.68249e-298 0)
(-2.91018e-298 -9.39883e-298 0)
(-2.77504e-298 -1.07214e-297 0)
(-2.873e-298 -1.16703e-297 0)
(-3.22618e-298 -1.23916e-297 0)
(-3.79551e-298 -1.29069e-297 0)
(-4.53032e-298 -1.32228e-297 0)
(-5.36581e-298 -1.33459e-297 0)
(-6.21272e-298 -1.32759e-297 0)
(-6.95125e-298 -1.29908e-297 0)
(-7.4409e-298 -1.2433e-297 0)
(-7.56007e-298 -1.15093e-297 0)
(-7.2815e-298 -1.01367e-297 0)
(-6.65842e-298 -8.47508e-298 0)
(-5.82233e-298 -6.79648e-298 0)
(-4.91017e-298 -5.28831e-298 0)
(-4.02422e-298 -4.02368e-298 0)
(-3.22211e-298 -3.00725e-298 0)
(-2.52777e-298 -2.21236e-298 0)
(-1.94419e-298 -1.60193e-298 0)
(-1.46304e-298 -1.13827e-298 0)
(-1.07056e-298 -7.86982e-299 0)
(-7.51098e-299 -5.18314e-299 0)
(-2.4811e-298 -3.93017e-298 0)
(-2.64511e-298 -6.06608e-298 0)
(-2.58371e-298 -7.24557e-298 0)
(-2.59373e-298 -8.05305e-298 0)
(-2.74216e-298 -8.63074e-298 0)
(-3.02386e-298 -9.02834e-298 0)
(-3.41072e-298 -9.26881e-298 0)
(-3.86043e-298 -9.36523e-298 0)
(-4.31728e-298 -9.32132e-298 0)
(-4.71412e-298 -9.12598e-298 0)
(-4.98086e-298 -8.7487e-298 0)
(-5.06144e-298 -8.14599e-298 0)
(-4.93342e-298 -7.29458e-298 0)
(-4.60644e-298 -6.26189e-298 0)
(-4.13063e-298 -5.17484e-298 0)
(-3.57438e-298 -4.14459e-298 0)
(-3.00048e-298 -3.23576e-298 0)
(-2.4537e-298 -2.47263e-298 0)
(-1.95993e-298 -1.85366e-298 0)
(-1.53025e-298 -1.36375e-298 0)
(-1.1657e-298 -9.82065e-299 0)
(-8.61206e-299 -6.8651e-299 0)
(-6.08365e-299 -4.56035e-299 0)
(-1.83549e-298 -2.33707e-298 0)
(-2.0742e-298 -3.91307e-298 0)
(-2.09566e-298 -4.88747e-298 0)
(-2.11157e-298 -5.56974e-298 0)
(-2.18831e-298 -6.05331e-298 0)
(-2.33682e-298 -6.38306e-298 0)
(-2.54614e-298 -6.58441e-298 0)
(-2.79269e-298 -6.67231e-298 0)
(-3.04415e-298 -6.65274e-298 0)
(-3.26294e-298 -6.52119e-298 0)
(-3.41147e-298 -6.26259e-298 0)
(-3.45941e-298 -5.85789e-298 0)
(-3.39025e-298 -5.30256e-298 0)