/*--------------------------------*- C++ -*----------------------------------*\
| =========                 |                                                 |
| \\      /  F ield         | OpenFOAM: The Open Source CFD Toolbox           |
|  \\    /   O peration     | Version:  2406                                  |
|   \\  /    A nd           | Website:  www.openfoam.com                      |
|    \\/     M anipulation  |                                                 |
\*---------------------------------------------------------------------------*/
FoamFile
{
    version     2.0;
    format      ascii;
    arch        "LSB;label=32;scalar=64";
    class       surfaceScalarField;
    location    "9";
    object      alphaPhi0.grout;
}
// * * * * * * * * * * * * * * * * * * * * * * * * * * * * * * * * * * * * * //

dimensions      [0 3 -1 0 0 0 0];

oriented        oriented;

internalField   nonuniform List<scalar> 
19800
(
1.00892e-12
-3.50939e-12
1.57473e-12
-6.43045e-12
1.06417e-12
-7.38402e-12
-5.57415e-14
-7.71675e-12
-1.93167e-12
-7.82648e-12
-3.83353e-12
-7.79149e-12
-5.99976e-12
-7.8766e-12
-7.78559e-12
-7.90318e-12
-9.67318e-12
-8.21719e-12
-1.14595e-11
-8.5534e-12
-1.2987e-11
-8.80845e-12
-1.42552e-11
-9.06424e-12
-1.5238e-11
-9.37007e-12
-1.59575e-11
-9.72134e-12
-1.64378e-11
-1.01069e-11
-1.67612e-11
-1.05079e-11
-1.69551e-11
-1.09008e-11
-1.70703e-11
-1.12675e-11
-1.71395e-11
-1.15893e-11
-1.71099e-11
-1.18504e-11
-1.69673e-11
-1.20503e-11
-1.67416e-11
-1.22078e-11
-1.64464e-11
-1.23447e-11
-1.60846e-11
-1.24596e-11
-1.5692e-11
-1.25242e-11
-1.53168e-11
-1.25217e-11
-1.5011e-11
-1.24757e-11
-1.48255e-11
-1.24122e-11
-1.47779e-11
-1.23101e-11
-1.48436e-11
-1.21276e-11
-1.50074e-11
-1.18687e-11
-1.53097e-11
-1.15876e-11
-1.58131e-11
-1.13238e-11
-1.65324e-11
-1.10565e-11
-1.74244e-11
-1.0735e-11
-1.84411e-11
-1.03378e-11
-1.95768e-11
-9.89118e-12
-2.085e-11
-9.43406e-12
-2.22461e-11
-8.98059e-12
-2.36874e-11
-8.51838e-12
-2.50591e-11
-8.03599e-12
-2.62637e-11
-7.54619e-12
-2.72516e-11
-7.08226e-12
-2.8005e-11
-6.67367e-12
-2.85007e-11
-6.32724e-12
-2.86895e-11
-6.03055e-12
-2.85069e-11
-5.76964e-12
-2.78979e-11
-5.54186e-12
-2.68343e-11
-5.35471e-12
-2.53149e-11
-5.21626e-12
-2.33537e-11
-5.1268e-12
-2.09648e-11
-5.07674e-12
-1.81559e-11
-5.04992e-12
-1.4931e-11
-5.02986e-12
-1.13036e-11
-5.00539e-12
-7.30691e-12
-4.97302e-12
-2.99794e-12
-4.93472e-12
1.55024e-12
-4.89332e-12
6.25966e-12
-4.84878e-12
1.10558e-11
-4.79745e-12
1.58689e-11
-4.73338e-12
2.06305e-11
-4.64979e-12
2.52684e-11
-4.5406e-12
2.97055e-11
-4.40301e-12
3.3862e-11
-4.24112e-12
3.7663e-11
-4.06794e-12
4.10478e-11
-3.90331e-12
4.3975e-11
-3.76801e-12
4.6419e-11
-3.67837e-12
4.83567e-11
-3.64523e-12
4.97527e-11
-3.67743e-12
5.05552e-11
-3.78515e-12
5.07081e-11
-3.97821e-12
5.01755e-11
-4.2591e-12
4.89617e-11
-4.61704e-12
4.71133e-11
-5.02975e-12
4.47044e-11
-5.47382e-12
4.18173e-11
-5.93542e-12
3.85341e-11
-6.41134e-12
3.494e-11
-6.89968e-12
3.11255e-11
-7.39106e-12
2.71764e-11
-7.87096e-12
2.31596e-11
-8.33022e-12
1.91225e-11
-8.76971e-12
1.5109e-11
-9.19412e-12
1.11737e-11
-9.60578e-12
7.37932e-12
-1.00096e-11
3.78671e-12
-1.04207e-11
4.56275e-13
-1.08568e-11
-2.54561e-12
-1.13174e-11
-5.1566e-12
-1.17804e-11
-7.34059e-12
-1.22245e-11
-9.08601e-12
-1.26476e-11
-1.03798e-11
-1.305e-11
-1.11725e-11
-1.34148e-11
-1.13166e-11
-1.37332e-11
-1.05406e-11
-1.3947e-11
-8.44325e-12
-1.3699e-11
-4.53931e-12
-1.19713e-11
-6.62599e-12
1.55893e-12
-7.07167e-12
2.69525e-12
-1.31587e-11
1.81548e-12
-1.48712e-11
-1.57277e-13
-1.51302e-11
-3.33191e-12
-1.54249e-11
-7.03592e-12
-1.56734e-11
-1.08664e-11
-1.59354e-11
-1.45931e-11
-1.61536e-11
-1.80781e-11
-1.6494e-11
-2.12685e-11
-1.69165e-11
-2.40883e-11
-1.73838e-11
-2.64803e-11
-1.79101e-11
-2.83483e-11
-1.85003e-11
-2.97155e-11
-1.91719e-11
-3.06281e-11
-1.98892e-11
-3.12213e-11
-2.06235e-11
-3.15642e-11
-2.13662e-11
-3.1738e-11
-2.20664e-11
-3.17945e-11
-2.26596e-11
-3.16746e-11
-2.31396e-11
-3.13758e-11
-2.35523e-11
-3.09443e-11
-2.39277e-11
-3.03783e-11
-2.42435e-11
-2.96609e-11
-2.44599e-11
-2.88703e-11
-2.45837e-11
-2.81417e-11
-2.46538e-11
-2.75725e-11
-2.46747e-11
-2.71975e-11
-2.45978e-11
-2.7022e-11
-2.43772e-11
-2.7057e-11
-2.40271e-11
-2.7339e-11
-2.3609e-11
-2.79248e-11
-2.31664e-11
-2.88553e-11
-2.26868e-11
-3.0121e-11
-2.21257e-11
-3.16789e-11
-2.14571e-11
-3.34988e-11
-2.06921e-11
-3.55843e-11
-1.98585e-11
-3.79355e-11
-1.89718e-11
-4.04906e-11
-1.80309e-11
-4.31067e-11
-1.70396e-11
-4.56045e-11
-1.60268e-11
-4.7833e-11
-1.50425e-11
-4.96989e-11
-1.41321e-11
-5.11435e-11
-1.33164e-11
-5.21006e-11
-1.25916e-11
-5.24773e-11
-1.19463e-11
-5.21675e-11
-1.13768e-11
-5.10821e-11
-1.08904e-11
-4.91704e-11
-1.04982e-11
-4.64227e-11
-1.02043e-11
-4.28535e-11
-9.99896e-12
-3.84813e-11
-9.85997e-12
-3.3319e-11
-9.75981e-12
-2.738e-11
-9.67536e-12
-2.06974e-11
-9.59366e-12
-1.33388e-11
-9.51128e-12
-5.4095e-12
-9.42959e-12
2.95964e-12
-9.35033e-12
1.16291e-11
-9.27355e-12
2.04639e-11
-9.19666e-12
2.93357e-11
-9.11262e-12
3.81176e-11
-9.00868e-12
4.66739e-11
-8.86888e-12
5.48556e-11
-8.68179e-12
6.2507e-11
-8.44957e-12
6.94832e-11
-8.19215e-12
7.5671e-11
-7.94264e-12
8.0999e-11
-7.73708e-12
8.54258e-11
-7.6053e-12
8.89111e-11
-7.56903e-12
9.13887e-11
-7.64603e-12
9.27641e-11
-7.85375e-12
9.29435e-11
-8.20608e-12
9.18769e-11
-8.70429e-12
8.95859e-11
-9.33097e-12
8.61584e-11
-1.00556e-11
8.17197e-11
-1.08497e-11
7.64076e-11
-1.16984e-11
7.03694e-11
-1.25966e-11
6.37686e-11
-1.35341e-11
5.67758e-11
-1.4488e-11
4.95417e-11
-1.54319e-11
4.21778e-11
-1.63508e-11
3.47683e-11
-1.72426e-11
2.73988e-11
-1.81079e-11
2.01687e-11
-1.89498e-11
1.31804e-11
-1.97854e-11
6.54066e-12
-2.06466e-11
3.7931e-13
-2.15546e-11
-5.15784e-12
-2.24966e-11
-9.96001e-12
-2.34325e-11
-1.39831e-11
-2.43195e-11
-1.72022e-11
-2.51248e-11
-1.95621e-11
-2.58363e-11
-2.09666e-11
-2.64667e-11
-2.11236e-11
-2.70394e-11
-1.94368e-11
-2.74911e-11
-1.51827e-11
-2.72081e-11
-7.78443e-12
-2.40538e-11
-1.31652e-11
1.64423e-12
-1.07612e-11
3.07453e-12
-2.01423e-11
2.13865e-12
-2.29151e-11
-3.98488e-13
-2.3401e-11
-3.88898e-12
-2.3656e-11
-8.07072e-12
-2.40651e-11
-1.23334e-11
-2.44631e-11
-1.66547e-11
-2.49969e-11
-2.06595e-11
-2.54861e-11
-2.4316e-11
-2.59408e-11
-2.75707e-11
-2.64468e-11
-3.03348e-11
-2.70613e-11
-3.25229e-11
-2.77445e-11
-3.41127e-11
-2.84998e-11
-3.5166e-11
-2.93573e-11
-3.58471e-11
-3.02993e-11
-3.61992e-11
-3.12332e-11
-3.63024e-11
-3.20735e-11
-3.62651e-11
-3.28268e-11
-3.60695e-11
-3.35275e-11
-3.56977e-11
-3.41541e-11
-3.51541e-11
-3.46709e-11
-3.44242e-11
-3.50996e-11
-3.35347e-11
-3.54785e-11
-3.25986e-11
-3.58059e-11
-3.1733e-11
-3.60456e-11
-3.10017e-11
-3.61626e-11
-3.04505e-11
-3.61389e-11
-3.01396e-11
-3.5971e-11
-3.01197e-11
-3.56687e-11
-3.04127e-11
-3.52531e-11
-3.10344e-11
-3.47432e-11
-3.20072e-11
-3.41383e-11
-3.33393e-11
-3.34176e-11
-3.50127e-11
-3.25596e-11
-3.70038e-11
-3.15558e-11
-3.93041e-11
-3.04055e-11
-4.19005e-11
-2.91096e-11
-4.47297e-11
-2.76802e-11
-4.7654e-11
-2.61535e-11
-5.04881e-11
-2.45865e-11
-5.30574e-11
-2.3039e-11
-5.52354e-11
-2.15552e-11
-5.69369e-11
-2.01573e-11
-5.80825e-11
-1.88523e-11
-5.85739e-11
-1.76439e-11
-5.82996e-11
-1.65414e-11
-5.71606e-11
-1.55601e-11
-5.5093e-11
-1.47118e-11
-5.20741e-11
-1.3995e-11
-4.81099e-11
-1.33916e-11
-4.32173e-11
-1.28736e-11
-3.74145e-11
-1.24142e-11
-3.07254e-11
-1.19965e-11
-2.31948e-11
-1.16155e-11
-1.4903e-11
-1.12758e-11
-5.96904e-12
-1.09877e-11
3.46021e-12
-1.07635e-11
1.32291e-11
-1.06134e-11
2.3189e-11
-1.05388e-11
3.32008e-11
-1.05278e-11
4.31244e-11
-1.05541e-11
5.28036e-11
-1.05852e-11
6.20589e-11
-1.05947e-11
7.06988e-11
-1.05749e-11
7.85474e-11
-1.05413e-11
8.54735e-11
-1.0527e-11
9.14011e-11
-1.05704e-11
9.6291e-11
-1.07062e-11
1.00102e-10
-1.09625e-11
1.02763e-10
-1.13642e-11
1.0417e-10
-1.19337e-11
1.04232e-10
-1.26856e-11
1.02907e-10
-1.36162e-11
1.00232e-10
-1.47006e-11
9.63065e-11
-1.59025e-11
9.12596e-11
-1.71914e-11
8.52379e-11
-1.85512e-11
7.84101e-11
-1.99714e-11
7.09692e-11
-2.14325e-11
6.3109e-11
-2.29043e-11
5.49882e-11
-2.43599e-11
4.67205e-11
-2.57852e-11
3.83973e-11
-2.71729e-11
3.01132e-11
-2.85133e-11
2.19684e-11
-2.98019e-11
1.40662e-11
-3.10528e-11
6.5356e-12
-3.22876e-11
-4.47211e-13
-3.35093e-11
-6.69466e-12
-3.46975e-11
-1.20796e-11
-3.58297e-11
-1.65593e-11
-3.68789e-11
-2.0119e-11
-3.77997e-11
-2.27058e-11
-3.85712e-11
-2.42016e-11
-3.9219e-11
-2.4267e-11
-3.97627e-11
-2.22088e-11
-4.01346e-11
-1.72075e-11
-3.95268e-11
-8.87861e-12
-3.48631e-11
-1.89131e-11
1.41486e-12
-1.47786e-11
2.94127e-12
-2.74506e-11
2.05667e-12
-3.13797e-11
-6.90721e-13
-3.22087e-11
-4.34652e-12
-3.2575e-11
-8.49633e-12
-3.31215e-11
-1.29511e-11
-3.37156e-11
-1.72668e-11
-3.42732e-11
-2.13058e-11
-3.47562e-11
-2.50737e-11
-3.52343e-11
-2.8486e-11
-3.57192e-11
-3.13619e-11
-3.62187e-11
-3.36571e-11
-3.68007e-11
-3.53689e-11
-3.75281e-11
-3.65179e-11
-3.83669e-11
-3.7203e-11
-3.92616e-11
-3.74741e-11
-4.01894e-11
-3.74954e-11
-4.11117e-11
-3.74023e-11
-4.19871e-11
-3.71281e-11
-4.27918e-11
-3.6643e-11
-4.35221e-11
-3.60037e-11
-4.41925e-11
-3.52114e-11
-4.48276e-11
-3.42577e-11
-4.54304e-11
-3.32246e-11
-4.59715e-11
-3.22287e-11
-4.64174e-11
-3.13507e-11
-4.67484e-11
-3.06542e-11
-4.69427e-11
-3.02132e-11
-4.69702e-11
-3.00846e-11
-4.68169e-11
-3.02849e-11
-4.64979e-11
-3.08151e-11
-4.60392e-11
-3.1685e-11
-4.54478e-11
-3.29043e-11
-4.47016e-11
-3.44622e-11
-4.37616e-11
-3.63374e-11
-4.25926e-11
-3.85229e-11
-4.11784e-11
-4.10199e-11
-3.95254e-11
-4.37895e-11
-3.76602e-11
-4.67114e-11
-3.56268e-11
-4.95978e-11
-3.34836e-11
-5.22552e-11
-3.12953e-11
-5.45365e-11
-2.9119e-11
-5.63435e-11
-2.69948e-11
-5.75946e-11
-2.49475e-11
-5.81957e-11
-2.2997e-11
-5.80373e-11
-2.11657e-11
-5.70141e-11
-1.94754e-11
-5.50478e-11
-1.79376e-11
-5.21e-11
-1.65476e-11
-4.81683e-11
-1.52875e-11
-4.32718e-11
-1.4135e-11
-3.74379e-11
-1.3074e-11
-3.07016e-11
-1.21005e-11
-2.3117e-11
-1.12245e-11
-1.47708e-11
-1.04686e-11
-5.78576e-12
-9.86239e-12
3.69086e-12
-9.43524e-12
1.35089e-11
-9.20643e-12
2.35305e-11
-9.17651e-12
3.36282e-11
-9.323e-12
4.3667e-11
-9.60398e-12
5.34834e-11
-9.96981e-12
6.28781e-11
-1.0379e-11
7.16353e-11
-1.08111e-11
7.95594e-11
-1.127e-11
8.65103e-11
-1.17775e-11
9.24137e-11
-1.23616e-11
9.72358e-11
-1.30487e-11
1.0094e-10
-1.38628e-11
1.03459e-10
-1.48284e-11
1.04697e-10
-1.59693e-11
1.04577e-10
-1.72987e-11
1.0308e-10
-1.88089e-11
1.00252e-10
-2.04705e-11
9.61903e-11
-2.22459e-11
9.10138e-11
-2.4106e-11
8.48656e-11
-2.60337e-11
7.79228e-11
-2.80129e-11
7.03888e-11
-3.00188e-11
6.24559e-11
-3.20242e-11
5.42722e-11
-3.40116e-11
4.59449e-11
-3.59731e-11
3.75671e-11
-3.78959e-11
2.92296e-11
-3.97568e-11
2.10178e-11
-4.15359e-11
1.30294e-11
-4.32265e-11
5.41282e-12
-4.48183e-11
-1.63237e-12
-4.62806e-11
-7.91493e-12
-4.75813e-11
-1.33018e-11
-4.87119e-11
-1.77281e-11
-4.96683e-11
-2.11942e-11
-5.04218e-11
-2.36689e-11
-5.09587e-11
-2.49946e-11
-5.13185e-11
-2.48521e-11
-5.15551e-11
-2.25723e-11
-5.16181e-11
-1.7374e-11
-5.05435e-11
-9.00102e-12
-4.44323e-11
-2.40153e-11
1.14892e-12
-1.88177e-11
2.43844e-12
-3.48426e-11
1.61423e-12
-3.98553e-11
-1.20365e-12
-4.1134e-11
-4.94828e-12
-4.16762e-11
-9.0363e-12
-4.22352e-11
-1.34157e-11
-4.3024e-11
-1.76233e-11
-4.36543e-11
-2.16379e-11
-4.41307e-11
-2.54027e-11
-4.45192e-11
-2.8822e-11
-4.487e-11
-3.17691e-11
-4.52268e-11
-3.41943e-11
-4.56304e-11
-3.60086e-11
-4.6143e-11
-3.72106e-11
-4.67883e-11
-3.79236e-11
-4.75485e-11
-3.81829e-11
-4.83871e-11
-3.81547e-11
-4.92524e-11
-3.79893e-11
-5.01225e-11
-3.76386e-11
-5.09934e-11
-3.70893e-11
-5.18562e-11
-3.64106e-11
-5.27069e-11
-3.55853e-11
-5.35498e-11
-3.45729e-11
-5.43811e-11
-3.34482e-11
-5.51794e-11
-3.23401e-11
-5.59119e-11
-3.13297e-11
-5.65395e-11
-3.04744e-11
-5.70143e-11
-2.986e-11
-5.72884e-11
-2.95665e-11
-5.73401e-11
-2.96202e-11
-5.71873e-11
-3.00081e-11
-5.68611e-11
-3.07161e-11
-5.6363e-11
-3.17365e-11
-5.56523e-11
-3.30588e-11
-5.46727e-11
-3.46775e-11
-5.33839e-11
-3.66095e-11
-5.17718e-11
-3.8879e-11
-4.98412e-11
-4.14666e-11
-4.761e-11
-4.42653e-11
-4.51129e-11
-4.7091e-11
-4.24035e-11
-4.97429e-11
-3.9549e-11
-5.20592e-11
-3.66197e-11
-5.393e-11
-3.36794e-11
-5.5271e-11
-3.07821e-11
-5.59901e-11
-2.79713e-11
-5.59764e-11
-2.52804e-11
-5.51138e-11
-2.27309e-11
-5.33081e-11
-2.03316e-11
-5.05081e-11
-1.80816e-11
-4.67079e-11
-1.59751e-11
-4.19324e-11
-1.40087e-11
-3.62211e-11
-1.21876e-11
-2.96228e-11
-1.05297e-11
-2.2203e-11
-9.06612e-12
-1.40552e-11
-7.83836e-12
-5.30156e-12
-6.89133e-12
3.9213e-12
-6.26349e-12
1.34824e-11
-5.97608e-12
2.32671e-11
-6.02464e-12
3.3168e-11
-6.37675e-12
4.3059e-11
-6.97845e-12
5.27698e-11
-7.76835e-12
6.20825e-11
-8.69401e-12
7.07584e-11
-9.72315e-12
7.85844e-11
-1.08447e-11
8.54133e-11
-1.20607e-11
9.11716e-11
-1.3377e-11
9.5828e-11
-1.47996e-11
9.93481e-11
-1.63383e-11
1.01667e-10
-1.80108e-11
1.02702e-10
-1.98388e-11
1.02397e-10
-2.18346e-11
1.00751e-10
-2.39891e-11
9.7821e-11
-2.62731e-11
9.36954e-11
-2.86522e-11
8.8483e-11
-3.11008e-11
8.23247e-11
-3.36011e-11
7.54028e-11
-3.6133e-11
6.79212e-11
-3.86732e-11
6.00615e-11
-4.12063e-11
5.19614e-11
-4.37301e-11
4.37302e-11
-4.62415e-11
3.54686e-11
-4.87173e-11
2.72637e-11
-5.1115e-11
1.9189e-11
-5.33904e-11
1.13453e-11
-5.55023e-11
3.89898e-12
-5.74017e-11
-2.94951e-12
-5.90371e-11
-9.03316e-12
-6.03796e-11
-1.42241e-11
-6.14264e-11
-1.84299e-11
-6.21852e-11
-2.16541e-11
-6.26538e-11
-2.38869e-11
-6.28166e-11
-2.49438e-11
-6.27033e-11
-2.45394e-11
-6.24306e-11
-2.20855e-11
-6.19847e-11
-1.68606e-11
-6.03071e-11
-8.75303e-12
-5.28327e-11
-2.84958e-11
8.72444e-13
-2.2708e-11
1.74896e-12
-4.20076e-11
7.8997e-13
-4.80679e-11
-1.99554e-12
-4.97151e-11
-5.63367e-12
-5.0483e-11
-9.83048e-12
-5.12324e-11
-1.39829e-11
-5.19906e-11
-1.8031e-11
-5.26207e-11
-2.19511e-11
-5.31094e-11
-2.56685e-11
-5.34514e-11
-2.90831e-11
-5.36522e-11
-3.20712e-11
-5.37934e-11
-3.45992e-11
-5.39631e-11
-3.65377e-11
-5.42407e-11
-3.78458e-11
-5.46386e-11
-3.86324e-11
-5.51514e-11
-3.8917e-11
-5.57861e-11
-3.88916e-11
-5.65328e-11
-3.8722e-11
-5.73781e-11
-3.83591e-11
-5.83025e-11
-3.7796e-11
-5.92762e-11
-3.71072e-11
-6.02869e-11
-3.62671e-11
-6.13418e-11
-3.52205e-11
-6.24344e-11
-3.40314e-11
-6.35299e-11
-3.28217e-11
-6.45763e-11
-3.16634e-11
-6.5512e-11
-3.06143e-11
-6.62706e-11
-2.97838e-11
-6.67982e-11
-2.92872e-11
-6.70755e-11
-2.91629e-11
-6.71162e-11
-2.9372e-11
-6.69371e-11
-2.98621e-11
-6.65255e-11
-3.06092e-11
-6.58366e-11
-3.16159e-11
-6.48183e-11
-3.29016e-11
-6.34366e-11
-3.4504e-11
-6.16791e-11
-3.64636e-11
-5.95424e-11
-3.87777e-11
-5.70255e-11
-4.13566e-11
-5.41369e-11
-4.40285e-11
-5.09112e-11
-4.65953e-11
-4.74161e-11
-4.88908e-11
-4.37431e-11
-5.07971e-11
-3.99875e-11
-5.22207e-11
-3.62291e-11
-5.30596e-11
-3.2525e-11
-5.31903e-11
-2.8912e-11
-5.24839e-11
-2.54134e-11
-5.0836e-11
-2.20462e-11
-4.8191e-11
-1.88264e-11
-4.45455e-11
-1.57734e-11
-3.99333e-11
-1.29132e-11
-3.44067e-11
-1.02799e-11
-2.80281e-11
-7.91623e-12
-2.08732e-11
-5.8712e-12
-1.30387e-11
-4.19686e-12
-4.63963e-12
-2.94169e-12
4.20526e-12
-2.14215e-12
1.33912e-11
-1.81371e-12
2.28319e-11
-1.94458e-12
3.24417e-11
-2.4958e-12
4.21025e-11
-3.40945e-12
5.16366e-11
-4.62246e-12
6.08079e-11
-6.08023e-12
6.93572e-11
-7.7432e-12
7.70584e-11
-9.58407e-12
8.37593e-11
-1.15796e-11
8.93853e-11
-1.37052e-11
9.3902e-11
-1.59389e-11
9.72689e-11
-1.82707e-11
9.94192e-11
-2.07087e-11
1.00281e-10
-2.32711e-11
9.98167e-11
-2.5969e-11
9.80452e-11
-2.8793e-11
9.50276e-11
-3.17156e-11
9.08457e-11
-3.4706e-11
8.56012e-11
-3.774e-11
7.94357e-11
-4.07975e-11
7.25334e-11
-4.3857e-11
6.50899e-11
-4.69031e-11
5.72743e-11
-4.99384e-11
4.92242e-11
-5.29782e-11
4.1066e-11
-5.60231e-11
3.29178e-11
-5.90391e-11
2.48688e-11
-6.19647e-11
1.69895e-11
-6.47257e-11
9.38743e-12
-6.72337e-11
2.23011e-12
-6.93921e-11
-4.30387e-12
-7.11318e-11
-1.00738e-11
-7.24336e-11
-1.49628e-11
-7.32991e-11
-1.88658e-11
-7.37465e-11
-2.17595e-11
-7.38167e-11
-2.36386e-11
-7.35211e-11
-2.43569e-11
-7.28973e-11
-2.36561e-11
-7.20748e-11
-2.10834e-11
-7.1086e-11
-1.59792e-11
-6.87882e-11
-8.3152e-12
-6.00357e-11
-3.2299e-11
5.68486e-13
-2.63288e-11
9.13554e-13
-4.88154e-11
-3.07873e-13
-5.57828e-11
-3.06868e-12
-5.7618e-11
-6.57434e-12
-5.84728e-11
-1.06359e-11
-5.9471e-11
-1.46004e-11
-6.027e-11
-1.84993e-11
-6.09309e-11
-2.22747e-11
-6.14056e-11
-2.58558e-11
-6.16592e-11
-2.92151e-11
-6.17333e-11
-3.22298e-11
-6.17244e-11
-3.48603e-11
-6.16959e-11
-3.69156e-11
-6.17113e-11
-3.8337e-11
-6.18152e-11
-3.92431e-11
-6.20549e-11
-3.96364e-11
-6.24778e-11
-3.9707e-11
-6.30954e-11
-3.96145e-11
-6.38877e-11
-3.93003e-11
-6.48244e-11
-3.87727e-11
-6.58816e-11
-3.81236e-11
-6.70512e-11
-3.73162e-11
-6.83293e-11
-3.62701e-11
-6.96893e-11
-3.50321e-11
-7.10735e-11
-3.37132e-11
-7.24086e-11
-3.23809e-11
-7.36203e-11
-3.11067e-11
-7.4639e-11
-3.00324e-11
-7.54074e-11
-2.93027e-11
-7.58936e-11
-2.89576e-11
-7.60917e-11
-2.89313e-11
-7.60022e-11
-2.91417e-11
-7.56101e-11
-2.95578e-11
-7.48834e-11
-3.0198e-11
-7.37888e-11
-3.11026e-11
-7.23058e-11
-3.232e-11
-7.04227e-11
-3.38952e-11
-6.81215e-11
-3.58364e-11
-6.53752e-11
-3.80783e-11
-6.21653e-11
-4.04799e-11
-5.85083e-11
-4.2866e-11
-5.44691e-11
-4.50746e-11
-5.01497e-11
-4.69747e-11
-4.56623e-11
-4.84513e-11
-4.11022e-11
-4.93818e-11
-3.65371e-11
-4.96287e-11
-3.20105e-11
-4.90556e-11
-2.7555e-11
-4.7557e-11
-2.32045e-11
-4.50806e-11
-1.90026e-11
-4.163e-11
-1.50042e-11
-3.72477e-11
-1.12722e-11
-3.19951e-11
-7.87288e-12
-2.59415e-11
-4.87035e-12
-1.91658e-11
-2.32338e-12
-1.17607e-11
-2.82526e-13
-3.82855e-12
1.21305e-12
4.53341e-12
2.14006e-12
1.32478e-11
2.49592e-12
2.22553e-11
2.30117e-12
3.14891e-11
1.59689e-12
4.08369e-11
4.36311e-13
5.01137e-11
-1.12599e-12
5.90692e-11
-3.04194e-12
6.74329e-11
-5.27023e-12
7.49737e-11
-7.76974e-12
8.15393e-11
-1.04925e-11
8.70517e-11
-1.33847e-11
9.14654e-11
-1.63983e-11
9.4724e-11
-1.95061e-11
9.67513e-11
-2.27072e-11
9.74816e-11
-2.60148e-11
9.68958e-11
-2.9435e-11
9.50284e-11
-3.29531e-11
9.19448e-11
-3.6539e-11
8.77214e-11
-4.01603e-11
8.24568e-11
-4.37891e-11
7.62925e-11
-4.73998e-11
6.94067e-11
-5.09698e-11
6.19789e-11
-5.44935e-11
5.4167e-11
-5.79901e-11
4.61222e-11
-6.14862e-11
3.80032e-11
-6.49822e-11
2.9955e-11
-6.84368e-11
2.20805e-11
-7.17799e-11
1.44629e-11
-7.49191e-11
7.21658e-12
-7.77328e-11
4.81504e-13
-8.00906e-11
-5.61246e-12
-8.19074e-11
-1.09454e-11
-8.31609e-11
-1.54169e-11
-8.38434e-11
-1.89428e-11
-8.39578e-11
-2.14522e-11
-8.35578e-11
-2.29226e-11
-8.27027e-11
-2.3243e-11
-8.14886e-11
-2.22301e-11
-8.0107e-11
-1.95881e-11
-7.86076e-11
-1.47086e-11
-7.57203e-11
-7.67233e-12
-6.58559e-11
-3.53416e-11
1.04703e-13
-2.93619e-11
3.07878e-15
-5.46013e-11
-1.51075e-12
-6.24774e-11
-4.26563e-12
-6.45664e-11
-7.80628e-12
-6.55153e-11
-1.14865e-11
-6.64808e-11
-1.52677e-11
-6.73818e-11
-1.8969e-11
-6.80907e-11
-2.25304e-11
-6.85477e-11
-2.59399e-11
-6.8758e-11
-2.9221e-11
-6.87724e-11
-3.22181e-11
-6.86565e-11
-3.4893e-11
-6.84608e-11
-3.70362e-11
-6.82496e-11
-3.85917e-11
-6.81056e-11
-3.96782e-11
-6.81174e-11
-4.02638e-11
-6.83486e-11
-4.0508e-11
-6.88236e-11
-4.05602e-11
-6.95367e-11
-4.03666e-11
-7.04656e-11
-3.99496e-11
-7.15946e-11
-3.94049e-11
-7.29146e-11
-3.86753e-11
-7.43991e-11
-3.7651e-11
-7.59918e-11
-3.63627e-11
-7.7617e-11
-3.49201e-11
-7.91958e-11
-3.33964e-11
-8.065e-11
-3.18772e-11
-8.19014e-11
-3.0528e-11
-8.28778e-11
-2.95156e-11
-8.35256e-11
-2.88846e-11
-8.3817e-11
-2.85555e-11
-8.37403e-11
-2.84311e-11
-8.32863e-11
-2.84795e-11
-8.24445e-11
-2.87302e-11
-8.12087e-11
-2.92309e-11
-7.95774e-11
-3.00254e-11
-7.75419e-11
-3.11521e-11
-7.50732e-11
-3.26294e-11
-7.21249e-11
-3.44256e-11
-6.86578e-11
-3.64456e-11
-6.46708e-11
-3.85501e-11
-6.02168e-11
-4.05871e-11
-5.53932e-11
-4.2411e-11
-5.03124e-11
-4.38799e-11
-4.50745e-11
-4.48481e-11
-3.97546e-11
-4.51661e-11
-3.44074e-11
-4.46982e-11
-2.90828e-11
-4.33477e-11
-2.384e-11
-4.10734e-11
-1.87562e-11
-3.78875e-11
-1.3924e-11
-3.38364e-11
-9.4422e-12
-2.89803e-11
-5.40421e-12
-2.33835e-11
-1.88818e-12
-1.71165e-11
1.04724e-12
-1.02599e-11
3.36297e-12
-2.89956e-12
5.0377e-12
4.88844e-12
6.0667e-12
1.30497e-11
6.46146e-12
2.15448e-11
6.24859e-12
3.0319e-11
5.46585e-12
3.92617e-11
4.15559e-12
4.81826e-11
2.35846e-12
5.68256e-11
1.1201e-13
6.49202e-11
-2.54413e-12
7.2241e-11
-5.55952e-12
7.86402e-11
-8.8686e-12
8.40335e-11
-1.2398e-11
8.8356e-11
-1.60843e-11
9.15267e-11
-1.9891e-11
9.34557e-11
-2.38107e-11
9.40825e-11
-2.7848e-11
9.34052e-11
-3.19962e-11
9.14731e-11
-3.62277e-11
8.8354e-11
-4.05009e-11
8.41213e-11
-4.47743e-11
7.88715e-11
-4.90104e-11
7.27419e-11
-5.31744e-11
6.58952e-11
-5.72423e-11
5.84888e-11
-6.12168e-11
5.06751e-11
-6.51277e-11
4.26298e-11
-6.90036e-11
3.45516e-11
-7.28386e-11
2.66152e-11
-7.65866e-11
1.89457e-11
-8.01748e-11
1.16535e-11
-8.35031e-11
4.8604e-12
-8.644e-11
-1.33705e-12
-8.88527e-11
-6.8709e-12
-9.06521e-11
-1.16372e-11
-9.18047e-11
-1.55464e-11
-9.23037e-11
-1.85629e-11
-9.21423e-11
-2.0603e-11
-9.13417e-11
-2.16319e-11
-8.99871e-11
-2.15664e-11
-8.82269e-11
-2.02746e-11
-8.62932e-11
-1.75928e-11
-8.42715e-11
-1.30309e-11
-8.08386e-11
-6.80825e-12
-7.0102e-11
-3.75405e-11
-5.21024e-13
-3.19005e-11
-1.09622e-12
-5.92686e-11
-2.88835e-12
-6.78118e-11
-5.61038e-12
-7.00962e-11
-9.02657e-12
-7.12433e-11
-1.24524e-11
-7.21596e-11
-1.59797e-11
-7.31063e-11
-1.94207e-11
-7.38478e-11
-2.27426e-11
-7.43046e-11
-2.5965e-11
-7.45114e-11
-2.9121e-11
-7.45105e-11
-3.20421e-11
-7.43338e-11
-3.4703e-11
-7.40227e-11
-3.69137e-11
-7.36585e-11
-3.86239e-11
-7.33437e-11
-3.99274e-11
-7.31824e-11
-4.07546e-11
-7.32498e-11
-4.12358e-11
-7.3589e-11
-4.15043e-11
-7.42183e-11
-4.15119e-11
-7.51303e-11
-4.12848e-11
-7.63113e-11
-4.09014e-11
-7.77409e-11
-4.02768e-11
-7.93713e-11
-3.92824e-11
-8.11278e-11
-3.79448e-11
-8.29298e-11
-3.63751e-11
-8.47004e-11
-3.46489e-11
-8.63571e-11
-3.28589e-11
-8.78067e-11
-3.11879e-11
-8.89543e-11
-2.98247e-11
-8.97199e-11
-2.88287e-11
-9.00521e-11
-2.81242e-11
-8.99287e-11
-2.76144e-11
-8.93506e-11
-2.72714e-11
-8.83318e-11
-2.7127e-11
-8.68919e-11
-2.72206e-11
-8.50467e-11
-2.75774e-11
-8.27945e-11
-2.82213e-11
-8.01075e-11
-2.91791e-11
-7.69371e-11
-3.04561e-11
-7.32366e-11
-3.20091e-11
-6.89917e-11
-3.37408e-11
-6.42368e-11
-3.5515e-11
-5.90505e-11
-3.71753e-11
-5.35317e-11
-3.85569e-11
-4.77756e-11
-3.94946e-11
-4.1862e-11
-3.98335e-11
-3.58596e-11
-3.94469e-11
-2.98399e-11
-3.82545e-11
-2.38912e-11
-3.62308e-11
-1.81234e-11
-3.33944e-11
-1.26611e-11
-2.97869e-11
-7.62877e-12
-2.54541e-11
-3.13391e-12
-2.04406e-11
7.43559e-13
-1.47969e-11
3.95392e-12
-8.58471e-12
6.47332e-12
-1.87247e-12
8.29697e-12
5.28009e-12
9.43351e-12
1.28331e-11
9.90167e-12
2.07577e-11
9.72758e-12
2.90033e-11
8.94121e-12
3.74581e-11
7.57213e-12
4.59297e-11
5.6474e-12
5.41651e-11
3.19465e-12
6.19044e-11
2.50486e-13
6.89358e-11
-3.13061e-12
7.5118e-11
-6.875e-12
8.0357e-11
-1.09018e-11
8.45623e-11
-1.51433e-11
8.76263e-11
-1.95606e-11
8.94467e-11
-2.414e-11
8.99714e-11
-2.88725e-11
8.92172e-11
-3.37316e-11
8.72457e-11
-3.86689e-11
8.41263e-11
-4.36257e-11
7.99291e-11
-4.85456e-11
7.47468e-11
-5.3376e-11
6.87052e-11
-5.80695e-11
6.19427e-11
-6.2597e-11
5.4593e-11
-6.69639e-11
4.68104e-11
-7.12018e-11
3.88034e-11
-7.53356e-11
3.08104e-11
-7.93569e-11
2.30341e-11
-8.32266e-11
1.5626e-11
-8.68801e-11
8.72428e-12
-9.02159e-11
2.45132e-12
-9.31033e-11
-3.13755e-12
-9.54264e-11
-8.02835e-12
-9.71034e-11
-1.2145e-11
-9.80773e-11
-1.5401e-11
-9.83323e-11
-1.77844e-11
-9.78818e-11
-1.92567e-11
-9.6746e-11
-1.9793e-11
-9.49972e-11
-1.93228e-11
-9.27834e-11
-1.77728e-11
-9.03802e-11
-1.51061e-11
-8.79012e-11
-1.09833e-11
-8.40238e-11
-5.74318e-12
-7.26868e-11
-3.8855e-11
-1.16795e-12
-3.38189e-11
-2.29753e-12
-6.28526e-11
-4.39141e-12
-7.19393e-11
-7.19434e-12
-7.42531e-11
-1.02072e-11
-7.52989e-11
-1.34838e-11
-7.63078e-11
-1.67221e-11
-7.72663e-11
-1.98707e-11
-7.79907e-11
-2.29504e-11
-7.84421e-11
-2.59725e-11
-7.86494e-11
-2.89573e-11
-7.86355e-11
-3.1749e-11
-7.84296e-11
-3.43595e-11
-7.80603e-11
-3.66203e-11
-7.76149e-11
-3.84827e-11
-7.71985e-11
-4.00119e-11
-7.6915e-11
-4.11077e-11
-7.68501e-11
-4.18773e-11
-7.70734e-11
-4.24293e-11
-7.76251e-11
-4.27073e-11
-7.85044e-11
-4.27281e-11
-7.9693e-11
-4.25428e-11
-8.11607e-11
-4.20414e-11
-8.28507e-11
-4.10895e-11
-8.46861e-11
-3.97163e-11
-8.65917e-11
-3.80284e-11
-8.84948e-11
-3.60933e-11
-9.03077e-11
-3.40029e-11
-9.19187e-11
-3.19539e-11
-9.32071e-11
-3.01615e-11
-9.40683e-11
-2.87141e-11
-9.44318e-11
-2.75589e-11
-9.42656e-11
-2.66132e-11
-9.35705e-11
-2.58535e-11
-9.23699e-11
-2.5306e-11
-9.06982e-11
-2.4992e-11
-8.85873e-11
-2.49113e-11
-8.60518e-11
-2.50696e-11
-8.30802e-11
-2.54973e-11
-7.96378e-11
-2.62306e-11
-7.56858e-11
-2.72729e-11
-7.12057e-11
-2.85689e-11
-6.62167e-11
-3.00032e-11
-6.07746e-11
-3.14174e-11
-5.49568e-11
-3.26337e-11
-4.88458e-11
-3.3477e-11
-4.25219e-11
-3.37955e-11
-3.60681e-11
-3.34783e-11
-2.95796e-11
-3.24662e-11
-2.31724e-11
-3.0748e-11
-1.69804e-11
-2.83424e-11
-1.11446e-11
-2.52748e-11
-5.79486e-12
-2.15633e-11
-1.03538e-12
-1.72222e-11
3.06304e-12
-1.22748e-11
6.46115e-12
-6.76262e-12
9.14375e-12
-7.39915e-13
1.1111e-11
5.74359e-12
1.23725e-11
1.26546e-11
1.2944e-11
1.99671e-11
1.28451e-11
2.76298e-11
1.2097e-11
3.55289e-11
1.07194e-11
4.34735e-11
8.73062e-12
5.12203e-11
6.1518e-12
5.85261e-11
3.01674e-12
6.51969e-11
-6.20217e-13
7.10973e-11
-4.68517e-12
7.61208e-11
-9.09861e-12
8.01506e-11
-1.37955e-11
8.30556e-11
-1.87368e-11
8.47289e-11
-2.39002e-11
8.5133e-11
-2.92583e-11
8.43044e-11
-3.47608e-11
8.23148e-11
-4.03369e-11
7.92329e-11
-4.5911e-11
7.51245e-11
-5.14122e-11
7.00758e-11
-5.67736e-11
6.41939e-11
-6.19343e-11
5.75854e-11
-6.68548e-11
5.03603e-11
-7.15315e-11
4.26797e-11
-7.59824e-11
3.47834e-11
-8.02175e-11
2.69419e-11
-8.42278e-11
1.93846e-11
-8.79962e-11
1.22977e-11
-9.149e-11
5.84526e-12
-9.46328e-11
1.34522e-13
-9.73127e-11
-4.81128e-12
-9.94336e-11
-9.00281e-12
-1.00921e-10
-1.24065e-11
-1.01702e-10
-1.49655e-11
-1.01743e-10
-1.66687e-11
-1.01046e-10
-1.75147e-11
-9.96252e-11
-1.74978e-11
-9.75559e-11
-1.65996e-11
-9.49939e-11
-1.4795e-11
-9.22421e-11
-1.22037e-11
-8.94243e-11
-8.63328e-12
-8.52447e-11
-4.51348e-12
-7.36029e-11
-3.92943e-11
-1.87129e-12
-3.50053e-11
-3.60406e-12
-6.49574e-11
-5.89222e-12
-7.43561e-11
-8.69968e-12
-7.6803e-11
-1.15032e-11
-7.77106e-11
-1.45258e-11
-7.87279e-11
-1.74528e-11
-7.96252e-11
-2.03184e-11
-8.02735e-11
-2.31606e-11
-8.06713e-11
-2.59675e-11
-8.084e-11
-2.8766e-11
-8.079e-11
-3.13994e-11
-8.05499e-11
-3.39374e-11
-8.01468e-11
-3.62273e-11
-7.96567e-11
-3.82202e-11
-7.9175e-11
-3.99644e-11
-7.88069e-11
-4.13441e-11
-7.86457e-11
-4.24389e-11
-7.87778e-11
-4.3319e-11
-7.92538e-11
-4.39074e-11
-8.00726e-11
-4.42063e-11
-8.1213e-11
-4.42408e-11
-8.26434e-11
-4.38829e-11
-8.43096e-11
-4.29983e-11
-8.61445e-11
-4.16177e-11
-8.80851e-11
-3.98332e-11
-9.00625e-11
-3.76915e-11
-9.19815e-11
-3.52768e-11
-9.3718e-11
-3.28014e-11
-9.51381e-11
-3.05136e-11
-9.6121e-11
-2.85403e-11
-9.65745e-11
-2.68616e-11
-9.64428e-11
-2.54172e-11
-9.57077e-11
-2.41927e-11
-9.43844e-11
-2.32098e-11
-9.25106e-11
-2.24723e-11
-9.01314e-11
-2.19548e-11
-8.72832e-11
-2.16424e-11
-8.39815e-11
-2.1562e-11
-8.02195e-11
-2.17693e-11
-7.59798e-11
-2.23028e-11
-7.12516e-11
-2.3142e-11
-6.60458e-11
-2.41932e-11
-6.03986e-11
-2.53049e-11
-5.43671e-11
-2.62996e-11
-4.80223e-11
-2.70062e-11
-4.14479e-11
-2.72859e-11
-3.4742e-11
-2.70477e-11
-2.80204e-11
-2.62501e-11
-2.14145e-11
-2.48884e-11
-1.50639e-11
-2.29707e-11
-9.10248e-12
-2.04966e-11
-3.64506e-12
-1.74512e-11
1.22183e-12
-1.38161e-11
5.44102e-12
-9.58963e-12
8.97903e-12
-4.79663e-12
1.18176e-11
5.18617e-13
1.39471e-11
6.3122e-12
1.53631e-11
1.2554e-11
1.60669e-11
1.92183e-11
1.60654e-11
2.62522e-11
1.53698e-11
3.3541e-11
1.3993e-11
4.08977e-11
1.19495e-11
4.80912e-11
9.25942e-12
5.48978e-11
5.95726e-12
6.11407e-11
2.09856e-12
6.66895e-11
-2.2427e-12
7.14245e-11
-6.98879e-12
7.52062e-11
-1.20766e-11
7.78884e-11
-1.74641e-11
7.93692e-11
-2.31175e-11
7.96312e-11
-2.89893e-11
7.873e-11
-3.50072e-11
7.67431e-11
-4.10838e-11
7.37351e-11
-4.7133e-11
6.97675e-11
-5.3077e-11
6.49184e-11
-5.88409e-11
5.92735e-11
-6.43557e-11
5.29066e-11
-6.95731e-11
4.59071e-11
-7.44746e-11
3.84424e-11
-7.90547e-11
3.07705e-11
-8.32989e-11
2.31722e-11
-8.71916e-11
1.58941e-11
-9.07332e-11
9.16337e-12
-9.39228e-11
3.17669e-12
-9.67209e-11
-1.97531e-12
-9.90531e-11
-6.29057e-12
-1.00853e-10
-9.77841e-12
-1.02064e-10
-1.24486e-11
-1.02607e-10
-1.42796e-11
-1.02431e-10
-1.52669e-11
-1.0153e-10
-1.54533e-11
-9.99227e-11
-1.48547e-11
-9.76575e-11
-1.35262e-11
-9.48723e-11
-1.14731e-11
-9.18823e-11
-9.00916e-12
-8.88469e-11
-6.07529e-12
-8.45162e-11
-3.17726e-12
-7.28754e-11
-3.88796e-11
-2.49067e-12
-3.56411e-11
-4.92851e-12
-6.60508e-11
-7.49731e-12
-7.54332e-11
-1.00716e-11
-7.77882e-11
-1.28372e-11
-7.8736e-11
-1.55063e-11
-7.96053e-11
-1.81124e-11
-8.03357e-11
-2.07171e-11
-8.08441e-11
-2.33358e-11
-8.11137e-11
-2.59306e-11
-8.11597e-11
-2.8546e-11
-8.10036e-11
-3.10213e-11
-8.06674e-11
-3.34756e-11
-8.01876e-11
-3.5773e-11
-7.96317e-11
-3.78758e-11
-7.90812e-11
-3.98221e-11
-7.86399e-11
-4.14895e-11
-7.84011e-11
-4.29234e-11
-7.84531e-11
-4.41451e-11
-7.88437e-11
-4.50553e-11
-7.95658e-11
-4.56429e-11
-8.05988e-11
-4.5912e-11
-8.19184e-11
-4.57224e-11
-8.34811e-11
-4.49417e-11
-8.52318e-11
-4.35925e-11
-8.71198e-11
-4.17422e-11
-8.90851e-11
-3.94113e-11
-9.10365e-11
-3.66756e-11
-9.2852e-11
-3.37606e-11
-9.43966e-11
-3.09438e-11
-9.55387e-11
-2.83887e-11
-9.61597e-11
-2.6113e-11
-9.61654e-11
-2.40877e-11
-9.54997e-11
-2.23193e-11
-9.41521e-11
-2.08353e-11
-9.21527e-11
-1.96304e-11
-8.9556e-11
-1.866e-11
-8.64204e-11
-1.78887e-11
-8.27917e-11
-1.73335e-11
-7.86959e-11
-1.7056e-11
-7.41429e-11
-1.71138e-11
-6.91383e-11
-1.751e-11
-6.36962e-11
-1.81717e-11
-5.78465e-11
-1.89633e-11
-5.16382e-11
-1.97212e-11
-4.51402e-11
-2.02905e-11
-3.84419e-11
-2.05505e-11
-3.16519e-11
-2.04258e-11
-2.48944e-11
-1.98823e-11
-1.8301e-11
-1.89096e-11