/*--------------------------------*- C++ -*----------------------------------*\
| =========                 |                                                 |
| \\      /  F ield         | OpenFOAM: The Open Source CFD Toolbox           |
|  \\    /   O peration     | Version:  2406                                  |
|   \\  /    A nd           | Website:  www.openfoam.com                      |
|    \\/     M anipulation  |                                                 |
\*---------------------------------------------------------------------------*/
FoamFile
{
    version     2.0;
    format      ascii;
    arch        "LSB;label=32;scalar=64";
    class       volScalarField;
    location    "9";
    object      p;
}
// * * * * * * * * * * * * * * * * * * * * * * * * * * * * * * * * * * * * * //

dimensions      [1 -1 -2 0 0 0 0];

internalField   nonuniform List<scalar> 
10000
(
-121984
-122319
-122725
-122978
-123028
-122647
-121929
-120753
-119316
-117520
-115367
-112930
-110262
-107420
-104453
-101411
-98314
-95188.4
-92043.2
-88874.8
-85706.4
-82567.3
-79471.8
-76430.3
-73457.4
-70560.9
-67739.8
-64982.2
-62258.9
-59535.6
-56793.3
-54025.5
-51212.9
-48310
-45264.9
-42043.7
-38631.3
-35012
-31156.3
-27030.9
-22620.5
-17940.7
-13031.2
-7938.5
-2705.95
2622.94
7994.27
13338.2
18571.7
23606.7
28356.8
32741
36682
40103.4
42927.7
45077.9
46482.4
47080.9
46828.4
45695.6
43667.3
40740.6
36925.2
32243.5
26732.2
20443.1
13442.4
5807.9
-2374.97
-11017.3
-20027.9
-29309.4
-38753.4
-48237.3
-57628
-66791.4
-75604.4
-83960.8
-91771.7
-98963.1
-105476
-111271
-116324
-120627
-124178
-126979
-129044
-130401
-131090
-131157
-130664
-129686
-128308
-126611
-124675
-122580
-120425
-118354
-116592
-115471
-121428
-121761
-122162
-122364
-122411
-122100
-121374
-120239
-118718
-116849
-114667
-112205
-109498
-106609
-103592
-100501
-97359.6
-94191.7
-91007.6
-87808.6
-84621.9
-81472.1
-78362.9
-75303.1
-72321.5
-69436.3
-66635
-63888.7
-61172.4
-58470.7
-55770.3
-53048.8
-50270.4
-47392.2
-44378.4
-41204.3
-37848.4
-34282.1
-30469.8
-26382.2
-22011.9
-17376.8
-12511.3
-7454.52
-2246.66
3066.45
8426.89
13762.7
18991.2
24025.6
28780.6
33174.6
37128.6
40563.6
43399.7
45558.5
46968.4
47569.6
47316.9
46180.2
44143.2
41202.6
37367.4
32659.7
27116.8
20792.5
13756.4
6090.05
-2118.35
-10779.3
-19801.7
-29088.2
-38528.8
-47998.4
-57363.6
-66492.9
-75267.7
-83584.8
-91355.6
-98504.3
-104972
-110721
-115732
-119994
-123504
-126264
-128289
-129606
-130249
-130264
-129715
-128684
-127250
-125492
-123498
-121349
-119144
-117053
-115311
-114217
-120289
-120586
-121014
-121250
-121209
-120861
-120106
-118982
-117438
-115530
-113301
-110783
-108013
-105049
-101957
-98794
-95573.5
-92326.8
-89084.5
-85848.8
-82629.2
-79439.8
-76296
-73223.8
-70246.6
-67363.5
-64558
-61818.4
-59134.3
-56483.5
-53834
-51154.9
-48418.8
-45595.8
-42652.3
-39556
-36277.6
-32787.7
-29055.6
-25055.6
-20776.7
-16228.4
-11438
-6443.46
-1287.94
3979.46
9299.99
14603.1
19808.4
24830.3
29582.6
33981
37942.5
41385.1
44227.1
46389.7
47801.2
48400.8
48142.5
46995.8
44944.6
41984.9
38124.6
33384.8
27803.2
21436.2
14357.9
6654.86
-1581.58
-10260
-19288.2
-28567.1
-37984.5
-47414.7
-56725.9
-65791.3
-74496.4
-82740
-90432.3
-97497.9
-103881
-109548
-114480
-118668
-122105
-124795
-126750
-127991
-128545
-128460
-127809
-126681
-125160
-123327
-121268
-119062
-116805
-114680
-112943
-111843
-118493
-118716
-119118
-119371
-119291
-118875
-118101
-116897
-115304
-113370
-111102
-108516
-105677
-102646
-99470.5
-96203.1
-92882.1
-89560.4
-86254.6
-82948.9
-79664.3
-76433.6
-73264.5
-70165.9
-67159.1
-64254.1
-61444.5
-58718.7
-56060.6
-53443.7
-50834.8
-48204.7
-45528.1
-42776.1
-39914.1
-36908.4
-33730.8
-30356.2
-26755.1
-22896.7
-18760.5
-14348.1
-9684.24
-4807.11
238.759
5404.06
10631.5
15853.3
20991.2
25959.7
30670
35033.7
38964.5
42378.4
45193.3
47330.7
48718.9
49298
49023.3
47865.5
45808.1
42844.9
38980.1
34231.6
28636.2
22252.2
15157.9
7444.8
-791.687
-9457.03
-18456.3
-27687.7
-37037.1
-46379.2
-55586.1
-64536.3
-73119.5
-81235.6
-88794.8
-95723.4
-101971
-107507
-112314
-116382
-119705
-122288
-124142
-125278
-125723
-125528
-124767
-123530
-121911
-119995
-117862
-115605
-113323
-111202
-109498
-108419
-115912
-116103
-116424
-116657
-116540
-116047
-115216
-113964
-112342
-110366
-108052
-105428
-102542
-99436.6
-96174.8
-92823.2
-89414.4
-86001.7
-82610.4
-79231.8
-75887.4
-72604.5
-69382.6
-66229.6
-63175.4
-60236.3
-57403.4
-54662.8
-52002.5
-49400.3
-46823.3
-44238.6
-41617.6
-38931.5
-36150.1
-33246.3
-30196.4
-26974.4
-23546.7
-19875.8
-15934.7
-11719
-7247.96
-2557.76
2307.76
7300.41
12365.8
17439.8
22446
27297.9
31903.5
36170.8
40011.3
43340.1
46075.9
48142.4
49471.3
50006.9
49707.5
48544.7
46499.7
43561.7
39729.1
35014.7
29453
23103
16046.4
8378.07
197.071
-8399.33
-17313.4
-26440.6
-35664.9
-44862.4
-53909.5
-62690.2
-71097.6
-79032.5
-86406
-93148.1
-99212
-104570
-109204
-113101
-116261
-118690
-120395
-121388
-121701
-121391
-120531
-119206
-117515
-115546
-113373
-111097
-108826
-106738
-105093
-104055
-112553
-112738
-112971
-113111
-112932
-112414
-111471
-110166
-108517
-106519
-104179
-101526
-98611.7
-95464.4
-92143.1
-88717.4
-85225.6
-81732.9
-78265.3
-74810.9
-71390.9
-68033.2
-64737.6
-61513.4
-58391.5
-55388.8
-52498
-49710.5
-47022.4
-44416.6
-41856.2
-39300.5
-36718.1
-34086.9
-31386.6
-28595.8
-25691.7
-22647
-19424.8
-15983.5
-12290.3
-8334.3
-4129.43
293.435
4895.54
9633.79
14458
19305.9
24101.2
28755.7
33175.5
37267.5
40942.7
44117.9
46715
48662.6
49898.3
50371.6
50043.9
48886.7
46878
44000.3
40244.6
35617.8
30150.6
23901.7
16953.7
9403.35
1350.47
-7106.65
-15868.4
-24827.3
-33866
-42861.6
-51694.7
-60253.7
-68434
-76137.2
-83276.6
-89785.7
-95620.5
-100752
-105161
-108836
-111783
-114010
-115526
-116347
-116511
-116079
-115124
-113723
-111980
-109989
-107829
-105597
-103404
-101404
-99843.2
-98860.1
-108458
-108643
-108783
-108790
-108506
-107916
-106912
-105565
-103877
-101850
-99505.9
-96857.6
-93941.2
-90771.6
-87413.9
-83944.6
-80398.6
-76841.5
-73298.4
-69758.5
-66250.5
-62805.7
-59419.9
-56099.8
-52878.7
-49778.2
-46797.4
-43936.7
-41199.2
-38568.4
-36002.1
-33455
-30898.1
-28317.2
-25699.9
-23028.8
-20280.9
-17427.3
-14431.7
-11252.9
-7855.97
-4223.43
-359.013
3717.16
7974.97
12376.6
16874.6
21407.8
25900.3
30264.4
34407.1
38236.8
41667.7
44620.4
47022.5
48808.6
49922.4
50318.1
49959.8
48818.1
46866.4
44080.8
40444.8
35959.2
30650.7
24576.1
17816.2
10465.3
2620.45
-5621.67
-14160.5
-22886
-31678.5
-40416.1
-48982.7
-57269.9
-65174.8
-72599.9
-79461.4
-85695.8
-91258.2
-96115.8
-100246
-103644
-106319
-108290
-109573
-110197
-110207
-109663
-108634
-107195
-105435
-103454
-101343
-99206.4
-97150.5
-95289.8
-93858.9
-92958.8
-103665
-103793
-103859
-103758
-103379
-102637
-101583
-100191
-98465.1
-96427.4
-94095.4
-91460.9
-88556.8
-85393.7
-82036.8
-78557.1
-74979.4
-71367.3
-67751.3
-64126.6
-60526.1
-56980.1
-53481.2
-50036.4
-46685.7
-43459.9
-40366
-37410.6
-34601.5
-31923.7
-29334
-26786
-24253.2
-21726.6
-19198.4
-16652.8
-14066.9
-11413.4
-8660.3
-5770.7
-2709.31
548.484
4011.29
7672.04
11510.6
15495
19580.3
23707
27801.2
31778.7
35551.4
39033.7
42146.3
44816.5
46978
48571.3
49544.6
49854.9
49466.9
48348.8
46469.7
43799.6
40316.3
36015.9
30921.6
25086.7
18587.1
11510.8
3948.61
-4006.36
-12253.3
-20679.4
-29163
-37583.2
-45827.1
-53789.1
-61367.8
-68468.1
-75009.2
-80929.1
-86179.8
-90722.3
-94532.8
-97610.3
-99972.7
-101644
-102656
-103055
-102898
-102239
-101148
-99705.6
-97985.5
-96080.7
-94082.5
-92089.8
-90208.4
-88533.8
-87279.8
-86494.7
-98329.4
-98350.8
-98308.5
-98076.2
-97590.6
-96741.5
-95610.3
-94161.6
-92406.7
-90365.6
-88046.6
-85432.7
-82557
-79427.2
-76098.9
-72629.9
-69037.3
-65384.4
-61704.9
-57998.9
-54299.5
-50634.6
-46997.9
-43403.5
-39900.8
-36528.6
-33300.5
-30229.2
-27328.6
-24588.3
-21967.1
-19419.4
-16919.9
-14461.2
-12035.8
-9627.14
-7212.33
-4768.24
-2270.07
312.254
3012.54
5861.39
8879.04
12071.3
15428.3
18924.5
22519
26155.4
29764.3
33268.6
36589.3
39651.4
42385.2
44726.7
46615.5
47995.8
48817.5
49037.7
48619.2
47527.2
45726.7
43183.4
39871.5
35784.2
30941.6
25392.4
19205.5
12460.2
5239.65
-2367.24
-10259.3
-18321.2
-26430.9
-34470
-42329.7
-49907.8
-57105.6
-63831.3
-70007.6
-75571.9
-80471.1
-84660.6
-88117.2
-90846.7
-92873.8
-94230.3
-94961.5
-95131.2
-94804.6
-94035.1
-92890.4
-91457
-89810.7
-88031.8
-86199.6
-84407.5
-82754.5
-81316.7
-80276.2
-79629.5
-92514
-92449.8
-92298.5
-91917.7
-91246.8
-90336.1
-89116.7
-87605.6
-85823.7
-83776.1
-81464.9
-78875.5
-76041.2
-72960.2
-69675.2
-66231
-62638.9
-58960.5
-55227.6
-51441.5
-47635.5
-43837.2
-40046.2
-36286.6
-32616.8
-29081.3
-25699.9
-22493.5
-19485.1
-16672.5
-14019.9
-11483.4
-9036.13
-6667.58
-4367.05
-2115.52
109.242
2326.15
4552.76
6811.88
9134.1
11553.2
14098
16785.3
19615.1
22569.2
25611.6
28691.5
31747.1
34711.8
37520.1
40110.6
42425.8
44409.4
46005.7
47159.9
47820.8
47943.4
47487.9
46416.5
44691.2
42275.4
39141.5
35281
30711.5
25476.3
19636.7
13262.5
6429.46
-776.968
-8255.22
-15889.1
-23558.1
-31149.2
-38559.5
-45691.9
-52452.4
-58754.5
-64524.3
-69697.7
-74214.5
-78025.3
-81108.2
-83474.6
-85155.5
-86194.1
-86651.7
-86603.2
-86119.8
-85261.3
-84093.6
-82697.1
-81149.4
-79525.6
-77900.4
-76354
-74979
-73820.8
-73022.1
-72531.6
-86331.5
-86159.8
-85868.8
-85366.1
-84563.5
-83544.3
-82233.4
-80665.8
-78854.7
-76795.4
-74491.2
-71925.9
-69136.5
-66108.3
-62871.8
-59462.5
-55885.3
-52194
-48414.5
-44549.1
-40633.3
-36697
-32746.9
-28816.6
-24971.6
-21260.8
-17710.6
-14353
-11224.8
-8335.06
-5654.32
-3139.82
-762.117
1493.85
3643.4
5709.2
7714.65
9676.42
11606.7
13522.4
15450.2
17424.9
19481.1
21643.2
23918.8
26296.4
28746.7
31227
33686.7
36073.6
38337.6
40431.6
42308.9
43920.1
45211.9
46129.3
46619.4
46634.9
46133.3
45074.4
43418.3
41126.7
38171.4
34542.8
30256.2
25350.2
19878.8
13903.5
7493.8
732.51
-6278.95
-13425.6
-20591.8
-27672.3
-34572.4
-41201.4
-47471.9
-53304.4
-58630.5
-63384.9
-67502.7
-70932
-73652.4
-75675.3
-77031.9
-77774.1
-77979.1
-77730
-77101.7
-76166.1
-74991.3
-73653.8
-72233.5
-70796.2
-69410.4
-68138.4
-67073.5
-66222.8
-65685.4
-65360.8
-79940.7
-79704.6
-79261.8
-78583.4
-77705.3
-76549.7
-75155.6
-73543.2
-71705.1
-69633
-67335.5
-64792.8
-62044.5
-59066.7
-55881.1
-52512.9
-48959.2
-45262.6
-41441.5
-37500.7
-33478.7
-29408.3
-25302.2
-21201.7
-17176.5
-13280.3
-9548.59
-6027.13
-2767.16
210.116
2926.27
5420.62
7723.09
9852.17
11828.1
13678.6
15430.8
17102.4
18704.2
20249.8
21763.5
23279.8
24835.3
26458.6
28163.1
29944.3
31781.9
33644.5
35495.2
37296.1
39011.2
40604.8
42038.6
43267.9
44241.3
44904.5
45204.3
45093
44527.5
43466.6
41869.3
39696.6
36919.3
33526.9
29532.4
24969.7
19885.8
14335.1
8381.43
2105.14
-4393.81
-11004.3
-17618.6
-24141.4
-30486.6
-36570.5
-42312.4
-47640.5
-52491.1
-56799.6
-60499.8
-63542.3
-65910.3
-67613.7
-68679.6
-69164
-69156
-68743
-67998.6
-67007.1
-65844
-64583.5
-63301.2
-62062.4
-60934.8
-59960.4
-59226.2
-58697.5
-58427.7
-58267.6
-73392.5
-73088.4
-72544
-71718.6
-70706.3
-69442
-67990.5
-66343.7
-64486.1
-62410.1
-60124.4
-57610
-54905.5
-51979.7
-48849.2
-45527.5
-42003.4
-38307.4
-34452
-30446.4
-26332.1
-22142.2
-17893.3
-13632.8
-9433.87
-5354.36
-1439.27
2252.07
5654.69
8735.28
11504.9
13994.5
16229.5
18228.5
20015.9
21625.9
23091.8
24436.5
25673.2
26815.8
27888
28924
29961.4
31031.9
32154
33331.3
34554.2
35803.8
37056.5
38287
39470.1
40578
41577.5
42426.8
43076.7
43474.8
43570.4
43318.2
42676.8
41606.3
40065.2
38014
35422.5
32278.8
28593.3
24394.9
19723.4
14625.5
9159.34
3402.2
-2549.08
-8589.43
-14620.9
-20558.5
-26324.9
-31843.1
-37040
-41851.8
-46220.2
-50081.4
-53371.1
-56045.6
-58092.1
-59516.6
-60338.3
-60608.6
-60419.2
-59868
-59038.6
-58019.7
-56888
-55717.4
-54577.1
-53539.6
-52678.9
-52016.7
-51619.2
-51413.4
-51405.8
-51405.7
-66944.1
-66544.4
-65864.2
-64956.5
-63787.3
-62456.9
-60970.2
-59301.9
-57441.5
-55381.4
-53125.7
-50655.5
-48005.5
-45139.7
-42070.7
-38799.1
-35307.3
-31616.1
-27733.4
-23673.2
-19479.1
-15183.5
-10805.8
-6398.44
-2036.64
2218.42
6314.23
10180.4
13740.2
16947.8
19800.1
22313.9
24503.8
26384.2
27982.2
29338.9
30496.7
31486.3
32326.6
33034.7
33636.1
34166.2
34664.8
35167.5
35699.2
36272.3
36887.9
37539
38213.4
38895.5
39567.1
40204.9
40777.9
41246.6
41564.7
41684
41559.7
41152.2
40425
39340.5
37858.1
35937.4
33546.8
30672.3
27320.3
23513.3
19282.1
14664.6
9712.45
4498.71
-883.93
-6337.45
-11773.6
-17116.7
-22295.9
-27240.1
-31883.6
-36171.4
-40051.5
-43463.6
-46347.7
-48666.8
-50410.4
-51580.7
-52195.7
-52305.4
-51989.4
-51339
-50449.4
-49418.4
-48330.1
-47260
-46274
-45444.2
-44851.3
-44496.8
-44425.8
-44533.2
-44778
-44937.8
-60624.6
-60171.6
-59364.1
-58333.8
-57073.8
-55706.3
-54197.2
-52533.2
-50704.6
-48694.9
-46504.6
-44109.1
-41537.5
-38750
-35754
-32539.5
-29085.2
-25404.8
-21504
-17400.9
-13140.1
-8753.51
-4264.66
269.537
4773.53
9185.68
13449.3
17486.5
21211.5
24566
27529
30097.1
32268.6
34049.4
35467.4
36571.3
37413.1
38033
38457.4
38708.7
38815.9
38818
38759.4
38681.5
38616.9
38587.4
38604.8
38672.6
38787.8
38941.8
39120.7
39303.4
39460.7
39555
39544.4
39387
39045.8
38488.7
37685
36600.2
35194.4
33426.3
31262.4
28685.6
25696.7
22309.7
18544.9
14429.9
10008.9
5350.59
542.843
-4323.54
-9169.03
-13925
-18524.4
-22899.4
-26991.6
-30755.6
-34147.6
-37115.3
-39608.8
-41600.4
-43078.3
-44032.1
-44472.1
-44451.7
-44046.3
-43339.3
-42427.3
-41409.1
-40381.7
-39421.8
-38600.5
-37979.4
-37644.2
-37577.8
-37814.1
-38220.7
-38710
-39029.8
-54554.2
-54031.7
-53167.2
-51998.2
-50708.4
-49318.8
-47814
-46198.6
-44451.5
-42540.9
-40461.4
-38181.5
-35721.6
-33038.8
-30134.7
-26991
-23585.4
-19925.9
-16017.1
-11881.6
-7565.26
-3101.39
1480.58
6119.06
10740
15284.7
19696.2
23893
27782.5
31293.8
34386
37031.8
39208.9
40912.3
42168.8
43033.5
43568.2
43822.2
43829.1
43617.2
43220.4
42683.4
42056.9
41390.2
40725.4
40094.6
39519.9
39014.6
38583.3
38223.1
37923.3
37664.8
37420.3
37155.3
36832.8
36418.1
35882.1
35199.7
34345.6
33288.2
31987.9
30402.3
28495.2
26245.2
23646.2
20701.8
17420.3
13818.9
9934.96
5832.82
1595.77
-2692.59
-6960.9
-11146.2
-15183.7
-19008.2
-22567.4
-25824.2
-28742.3
-31276.7
-33389.5
-35064.7
-36293
-37056.3
-37355.4
-37239.7
-36779.8
-36056.5
-35164.4
-34192.3
-33247.5
-32405.8
-31750.8
-31330.6
-31235.2
-31434.7
-31956.5
-32645.9
-33371.7
-33844.3
-48942.8
-48349
-47409.5
-46188.2
-44885.2
-43496.2
-42046.4
-40534.8
-38919.3
-37159.3
-35238.6
-33120.2
-30811.8
-28267.5
-25481.5
-22428.8
-19087.1
-15459.4
-11551
-7390.07
-3025.51
1505.71
6166.31
10890.3
15606.1
20260.4
24798.7
29138.6
33182.6
36848.3
40075
42811
45012.8
46662.6
47784.7
48438.1
48691.4
48601.2
48207.3
47543.1
46648.8
45575.6
44382.3
43127.4
41862.7
40631
39464.6
38386
37408
36533.7
35757.1
35062.9
34427.1
33819.6
33209
32566.7
31869.8
31098.8
30231.6
29238
28077.7
26706.2
25084
23184.5
20993.4
18503.1
15709.7
12620.6
9267.32
5711.28
2031.99
-1693.2
-5399.6
-9028.16
-12515.5
-15799.5
-18835
-21594
-24047.4
-26159.1
-27903.8
-29275.6
-30267.5
-30859
-31047.6
-30873.7
-30396.7
-29691.5
-28850.1
-27952.6
-27110.1
-26396.4
-25906.3
-25676.9
-25801.9
-26246.4
-27029.3
-27979.1
-28922.8
-29531.9
-43814.1
-43213.9
-42187.3
-40988
-39684.4
-38344.5
-37008.3
-35650.2
-34212.7
-32651.7
-30939
-29032.3
-26922.3
-24558.2
-21926
-18994.9
-15741.8
-12165.9
-8275.05
-4104.18
293.877
4877.35
9600.4
14392.6
19184.2
23927
28569.5
33029.7
37207.1
41009.5
44359.2
47184.1
49421.3
51040.6
52060.5
52539.9
52550.2
52151.8
51388.9
50300.2
48932.1
47343.1
45600.5
43771.4
41917.4
40091.2
38335.9
36684.1
35158.3
33770.2
32520.9
31401
30391.8
29468
28602.9
27772.5
26957.8
26141.8
25303.6
24412.5
23426.2
22297.2
20982.2
19448.7
17674
15639.3
13329.4
10742.7
7906.46
4879.44
1737.63
-1447.39
-4616.24
-7711.77
-10670.7
-13434.7
-15967.3
-18250.4
-20262.5
-21975.1
-23375
-24464.7
-25236.8
-25671
-25767
-25557.5
-25089.6
-24429.9
-23662.8
-22865.9
-22145.4
-21572.4
-21245.7
-21196.1
-21521.8
-22187.2
-23199.4
-24375.7
-25500.6
-26222
-39288.9
-38681.1
-37661.2
-36489.8
-35228.9
-34001.9
-32825.9
-31656.1
-30436.2
-29116.1
-27657.5
-26009.5
-24144
-22004.2
-19566.2
-16794.3
-13663.8
-10171.1
-6327.23
-2173.19
2234.77
6850.24
11618.9
16465.3
21319
26133.4
30858.3
35412.5
39694.3
43605.5
47056.2
49959.3
52237.2
53847.5
54800.8
55150.7
54966.4
54308.3
53223.4
51755
49955.3
47889.8
45632.6
43258.9
40838.8
38434.6
36100.6
33881.2
31810.6
29911.7
28195.6
26660.9
25295.5
24079.4
22989.8
22005.6
21109.6
20285.2
19510.4
18751.9
17964.5
17096.9
16101.7
14940.8
13583.2
11999.8
10165.3
8070.75
5739.29
3226.85
604.527
-2063.1
-4722.09
-7316.09
-9780.53
-12059.4
-14124.2
-15965.5
-17568.3
-18911.3
-19991.5
-20819
-21386.2
-21676
-21693.9
-21466.3
-21029.7
-20442
-19774.4
-19104
-18523.9
-18101
-17933.6
-18050.3
-18554.4
-19408.4
-20606.3
-21957.9
-23212.6
-24015
-35503.6
-34873.8
-33938
-32804.3
-31653.6
-30589.7
-29601.9
-28646.3
-27673.4
-26627.8
-25459.2
-24106.9
-22524.7
-20649.6
-18446.7
-15875.4
-12908.8
-9540.49
-5784.83
-1685.81
2698.76
7318.62
12111.5
16995.7
21896.9
26765.8
31550.6
36170.6
40525.2
44513.6
48039.5
51006.3
53326.7
54948.7
55872.7
56143
55821.3
54964.6
53620.3
51835.3
49666.5
47184.9
44469.9
41602
38658.3
35710.2
32822.8
30053.3
27449.3
25047.1
22869.8
20926.6
19213.5
17717
16418.4
15299.1
14341.9
13528.8
12835.1
12223.5
11644.8
11043.8
10369.2
9577.97
8631.87
7492.75
6126.21
4516.81
2683.49
678.146
-1434.79
-3599.4
-5768.29
-7886.44
-9888.01
-11718.6
-13355.2
-14793.8
-16023.8
-17031.1
-17822.5
-18415.4
-18803.8
-18975.2
-18941.2
-18721.8
-18343.7
-17856.7
-17314.2
-16792.2
-16365.9
-16097.7
-16084.7
-16354.2
-17010.7
-18012.9
-19341.3
-20801.1
-22127.3
-22975.2
-32424.1
-31849
-30986.5
-29953.4
-28974
-28099.1
-27317.3
-26599.7
-25896.1
-25149.2
-24294.3
-23263.3
-21995.1
-20420.1
-18491.9
-16165.7
-13410.9
-10218.8
-6605.11
-2613.69
1698.61
6278.77
11058.4
15949.8
20872.4
25770.4
30587.7
35243.5
39638.9
43673.9
47250.2
50267
52632
54285.8
55218.5
55461.9
55066.9
54083.7
52557.7
50537.7
48084.4
45271.9
42182.4
38899.5
35505
32077.1
28690.6
25414.8
22311.1
19429.9
16808.1
14466.8
12412.6
10639.9
9135.34
7882.92
6865.47
6062.76
5446.22
4974.53
4594.45
4248.07
3881.48
3447.93
2903.2
2200.79
1297.45
170.435
-1166.99
-2669.02
-4279.84
-5953.34
-7649.16
-9314.46
-10883.6
-12304.9
-13560.1
-14646.4
-15553.3
-16272.2
-16819.9
-17221.2
-17473.4
-17568.4
-17520.7
-17343.2
-17054.7
-16697.2
-16305.3
-15952
-15693.7
-15588.8
-15731.5
-16145.2
-16926.5
-18031.3
-19427.7
-20924.5
-22265.4
-23123.1
-30062.5
-29601.2
-28811.9
-27954.7
-27176.7
-26505.5
-25949.2
-25489.1
-25069.5
-24631.9
-24100.5
-23403.5
-22468.1
-21218.1
-19597.1
-17555.9
-15060.2
-12099.3
-8688.46
-4867.83
-690.584
3789.2
8499.91
13349.7
18252.7
23144.1
27961.3
32622.2
37029.9
41086.6
44694.8
47753.7
50169.8
51878.9
52861
53134.5
52736.8
51708.6
50091.4
47933.9
45298.5
42260.7
38903.2
35310.5
31566
27752.3
23951.4
20242.7
16699.7
13386.2
10352.4
7633
5246.07
3195.71
1475.76
73.9624
-1025.92
-1845.53
-2416.11
-2781.74
-2997.44
-3121.81
-3209.07
-3307.84
-3467.17
-3741.48
-4183.52
-4825.21
-5661.89
-6657.26
-7767.11
-8956.97
-10194.1
-11428.1
-12594.3
-13645.2
-14566.7
-15355.6
-15997.2
-16484.9
-16843.7
-17104.9
-17270.9
-17337.9
-17319.9
-17222.2
-17058.8
-16863.8
-16654
-16496.9
-16430.8
-16509.1
-16817.9
-17371.2
-18251.7
-19413.7
-20818.3
-22292.4
-23598.5
-24432.1
-28489.5
-28106.5
-27456.9
-26812.5
-26243.8
-25795.2
-25488.3
-25298.1
-25167.6
-25037.3
-24827.2
-24464.1
-23866.2
-22951.7
-21656.9
-19928.8
-17729.9
-15048.3
-11897.6
-8311.64
-4337.56
-28.3652
4544.69
9289.66
14118
18957
23736.1
28370.8
32765.5
36825.4
40455.5
43557.6
46039.6
47834.8
48914
49281.4
48959.1
47976.5
46368.4
44181.4
41477.6
38331.9
34825.9
31042.5
27064.9
22977.5
18866.4
14818.1
10915.4
7233.23
3834.25
765.686
-1941.88
-4273.43
-6226.56
-7807.87
-9030.75
-9916.06
-10495.1
-10811.7
-10919.6
-10874.7
-10729.2
-10531.4
-10333.8
-10198
-10186.4
-10341.8
-10670.6
-11149.7
-11750.1
-12452
-13232.6
-14045.6
-14829.2
-15540.3
-16168.8
-16709.1
-17140.1
-17454.9
-17683.6
-17860.9
-17993.9
-18084.3
-18144
-18170.8
-18176.1
-18184.8
-18197.3
-18273.8
-18434
-18723.1
-19211.8
-19901.1
-20858.9
-22041.5
-23409.8
-24819.2
-26050.6
-26831.3
-27623.8
-27297.9
-26851.1
-26419.2
-26075.2
-25878.3
-25841.1
-25929.5
-26086.9
-26256.7
-26361.4
-26325.1
-26060.1
-25480.3
-24518.2
-23118.5
-21241.5
-18875.2
-16031.1
-12735.5
-9028.19
-4958.94
-595.415
3974.9
8664.97
13397.7
18095.5
22670.5
27028
31075.7
34722.7
37875.3
40444.8
42362.9
43591.6
44120.3
43954.8
43110.7
41614
39506.6
36847.9
33710.9
30174.7
26319.9
22228.1
17983.6
13674.6
9391.34
5222.94
1252.44
-2447.67
-5819.1
-8819.77
-11423.7
-13619.2
-15405.9
-16792.3
-17795.8
-18444.7
-18778.8
-18846.9
-18699.3
-18382.8
-17943.4
-17435.1
-16925.2
-16485.1
-16168.2
-15993.9
-15954.2
-16038.8
-16246.1
-16566.8
-16962.3
-17376.5
-17772.3
-18142.8
-18478.8
-18751.7
-18952.5
-19114.3
-19270.4
-19429.6
-19599.1
-19788.8
-19989.8
-20212.1
-20469.4
-20746.1
-21094.4
-21514.9
-22038.5
-22717.3
-23539.7
-24560.9
-25742.2
-27052
-28369.7
-29495.6
-30202.3
-27300
-27088.1
-26846.2
-26627.8
-26541.1
-26626.1
-26872.6
-27246.5
-27691.6
-28158.2
-28572.7
-28855
-28914.8
-28663.5
-28032.8
-26966.3
-25423.2
-23392.9
-20884.6
-17917.5
-14524.4
-10750.2
-6656.65
-2322.85
2169.56
6743.15
11316.7
15799.3
20097
24119.9
27781
30992.7
33671
35747
37173.9
37925.5
37990.3
37368.2
36073.9
34142.5
31628.8
28602.6
25140
21319.3
17220.8
12928.2
8530.44
4119.68
-211.718
-4375.84
-8293.7
-11899
-15140.4
-17982.8
-20405.9
-22402.1
-23973.9
-25133.1
-25901.9
-26313.2
-26407
-26224.9
-25806
-25191.3
-24433.9
-23604.6
-22782
-22029.4
-21379
-20839.6
-20420.5
-20140.8
-20008.3
-19996.3
-20058.3
-20165.3
-20313.1
-20487.9
-20654.5
-20800.9
-20959.9
-21159.3
-21404.7
-21707.7
-22076.7
-22497.8
-22979.6
-23523.1
-24097.9
-24746.4
-25450.7
-26222.4
-27095.5
-28051
-29131.9
-30306.9
-31552.3
-32760.9
-33759.5
-34380.7
-27463.3
-27410.9
-27349.3
-27371.5
-27575.7
-27961.1
-28501.6
-29168.2
-29905.9
-30672
-31393.9
-31988
-32365
-32435
-32130.5
-31394.8
-30186.7
-28496.8
-26332.7
-23708.2
-20650.8
-17200.5
-13411.4
-9352.15
-5096.2
-717.783
3701.31
8069.19
12292.5
16283.6
19959.7
23238.9
26042.4
28301.2
29960.4
30979.1
31327.6
30989.2
29965.7
28282.9
25989.7
23151.4
19841.2
16136.3
12116.2
7865.16
3472.56
-968.545
-5364.62
-9625.82
-13670
-17426.3
-20837.5
-23861.6
-26471.8
-28654.2
-30405.1
-31730
-32643.1
-33168.1
-33334.6
-33173.5
-32714.5
-31991.3
-31053.4
-29972
-28829.9
-27698.6
-26622.4
-25626.8
-24741.4
-24006.4
-23447.8
-23053.6
-22790.1
-22639.1
-22599.7
-22653.1
-22758.9
-22902.9
-23114.2
-23411.8
-23793.4
-24274.2
-24861.8
-25537.8
-26309.1
-27163.8
-28058.2
-29021.8
-30019
-31042
-32110.6
-33201.4
-34346
-35519.1
-36697.1
-37784.3
-38646.4
-39179.3
-28107.6
-28188.2
-28310.2
-28608.9
-29120.8
-29812.8
-30657.9
-31627.5
-32669.5
-33742
-34772.7
-35677.5
-36369.8
-36759.2
-36779
-36372.1
-35495.7
-34141.7
-32315.5
-30028.3
-27304.1
-24178.6
-20697.8
-16919.2
-12907.3
-8731.45
-4471.73
-219.607
3931.93
7896.72
11595.1
14950.6
17889.1
20341.9
22247.6
23552.3
24209.9
24187.9
23474.4
22084.8
20060.2
17460.4
14356
10822.8
6941.17
2796.41
-1521.13
-5917.86
-10300.1
-14577.9
-18668
-22497.4
-26005
-29144.5
-31884
-34204.6
-36097.6
-37562.3
-38605.7
-39242.8
-39493.3
-39378.3
-38918.3
-38139.3
-37085.2
-35823.7
-34437.9
-33003.8
-31575.4
-30193
-28905.5
-27772.9
-26839.1
-26107.3
-25557.6
-25184.2
-24991.7
-24957.8
-25039
-25220.4
-25525.6
-25961.7
-26517.2
-27209.4
-28045.3
-29001.6
-30082
-31262.3
-32485.9
-33767.4
-35053.9
-36323
-37584.3
-38809.6
-40018.9
-41188.3
-42288.4
-43244.6
-43970.8
-44416.8
-29117.1
-29292
-29630.2
-30220
-31037.2
-32040.7
-33202.5
-34490.3
-35851.9
-37241.2
-38587.5
-39810.2
-40825.8
-41544
-41897.4
-41826.7
-41285.9
-40266.4
-38770.9
-36809.6
-34404
-31585.5
-28392.5
-24871.9
-21080.4
-17083.6
-12960.2
-8800.79
-4698.07
-738.356
2999.99
6443.83
9522.92
12169.3
14317.3
15903.3
16868.9
17168
16776.7
15699.3
13968.1
11636.2
8769.91
5443.69
1738.16
-2260.13
-6459.62
-10766
-15085.4
-19327.6
-23408.4
-27252.5
-30795.5
-33987
-36790.8
-39184.1
-41154.7
-42698
-43816.5
-44519.4
-44820.8
-44735.6
-44278.6
-43470.1
-42347.4
-40972.2
-39423.2
-37776.1
-36089.5
-34414.7
-32815.8
-31369.4
-30134.9
-29130.3
-28349.3
-27798.2
-27489.4
-27401.3
-27490.2
-27742.9
-28176.2
-28784.1
-29545.4
-30479.4
-31591
-32849.7
-34253.3
-35766.2
-37319.7
-38911.1
-40473.5
-41975.8
-43417.8
-44765.1
-46025.7
-47170.7
-48171.5
-48987.8
-49577.2
-49933.7
-30312.6
-30592.8
-31167.3
-32035.1
-33148.4
-34470.4
-35960.8
-37580.8
-39273.5
-40987.9
-42658.3
-44209.5
-45561.2
-46624.3
-47328.8
-47610.8
-47419.2
-46741.1
-45575.5
-43931
-41827.4
-39291.5
-36354.2
-33054.4
-29442.6
-25582.5
-21553.7
-17447.3
-13357
-9370.52
-5566.86
-2018.17
1207.08
4041.65
6417.69
8266.42
9521.56
10127.9
10051.8
9287.97
7858.95
5809.73
3200.69
102.859
-3404.3
-7234.05
-11294
-15488.8
-19723.3
-23905.4
-27948.2
-31772.2
-35307.9
-38499.6
-41306.7
-43703.4
-45675.5
-47217.4
-48331.1
-49025.1
-49312.8
-49208.8
-48727.2
-47886.1
-46717.9
-45277.1
-43634.9
-41861.9
-40016.7
-38155.3
-36350.4
-34689.9
-33244.9
-32046.1
-31100.9
-30427.4
-30046.7
-29943
-30076
-30435.4
-31031.5
-31844.8
-32845.7
-34053.6
-35469.6
-37052.4
-38790.9
-40638.8
-42516.3
-44403.8
-46223.7
-47940.6
-49541.3
-50984.7
-52265.9
-53351.7
-54226.8
-54891.3
-55331.4
-55589.3
-31589.8
-32010.9
-32804.5
-33926.4
-35329.9
-36971.9
-38793.9
-40747.2
-42767.8
-44803.6
-46795.3
-48673.5
-50362.6
-51776
-52840.6
-53485.2
-53653.2
-53323.5
-52489.6
-51157.2
-49344.1
-47071.8
-44364.1
-41253.9
-37787.2
-34027.2
-30054.6
-25962.6
-21847.6
-17800.6
-13903.6
-10230.4
-6849.84
-3829.06
-1236.6
856.836
2381.69
3278.12
3506.24
3052.72
1931.03
176.96
-2157.01
-5005.67
-8293.32
-11935.2
-15839.3
-19909.6
-24048.7
-28160.9
-32154
-35941.7
-39447.2
-42607.7
-45377.1
-47726.5
-49641.1
-51116.5
-52157
-52774.3
-52985.4
-52809.3
-52264.3
-51370.1
-50157
-48673
-46981.4
-45146.1
-43222.4
-41266
-39351.6
-37571.4
-36003.7
-34689.3
-33648.6
-32911.5
-32508.6
-32432.5
-32649.4
-33152.5
-33946.5
-34998.7
-36273.3
-37787.5
-39535.8
-41463.1
-43547.3
-45732.7
-47929.2
-50101.8
-52166.6
-54081.5
-55818.4
-57329.1
-58596.6
-59593
-60323.3
-60818.7
-61089.2
-61237.4
-32920.3
-33484.8
-34460.7
-35817.4
-37501.8
-39449
-41584.7
-43846.6
-46168.2
-48497.1
-50780.2
-52954.1
-54951.5
-56688.9
-58093.3
-59084.9
-59604.1
-59620.1
-59118.6
-58100.6
-56580.1
-54571.8
-52091.9
-49166.7
-45838.4
-42168.6
-38238.4
-34142.4
-29980.1
-25847
-21830.5
-18009.7
-14457
-11241.4
-8431.81
-6098.61
-4310.86
-3128.89
-2595.28
-2728.98
-3524.73
-4956.4
-6981.15
-9542.41
-12571.5
-15988.7
-19705.4
-23626
-27651.6
-31682.2
-35619
-39367.2
-42840.6
-45967.2
-48694
-50987.6
-52831.5
-54222.3
-55166.9
-55680.5
-55785.4
-55507.3
-54871.5
-53903.3
-52633.5
-51106.3
-49378.8
-47509.9
-45551.9
-43558.6
-41602
-39772.5
-38151.1
-36785.8
-35708.3
-34960.4
-34582.4
-34575.8
-34914.9
-35595
-36616.5
-37936.6
-39514.8
-41363.9
-43468.6
-45759.9
-48203.9
-50735.7
-53256
-55717.3
-58028.5
-60137.2
-61999.4
-63561.9
-64799.3
-65698.8
-66278.9
-66590.7
-66677.8
-66709.7
-34247.5
-34916.7
-36045.5
-37619.4
-39555.6
-41766.6
-44166.4
-46681.6
-49246.7
-51808.6
-54318.1
-56719.1
-58956.7
-60952.7
-62640.4
-63934.7
-64774.8
-65123.6
-64955.7
-64264.2
-63055.8
-61336.4
-59113
-56403.6
-53243.9
-49690.9
-45822.5
-41732.5
-37522.5
-33293.6
-29141.3
-25153.2
-21408.9
-17981.7
-14941.5
-12356.9
-10293.9
-8809.98
-7947.43
-7728.5
-8155.07
-9210.97
-10864.7
-13071.5
-15773.3
-18899.9
-22369.3
-26090
-29963.6
-33887.4
-37756.6
-41467.8
-44924.3
-48043.4
-50762.4
-53040.1
-54854.9
-56200.6
-57083
-57518.2
-57531.9
-57156.5
-56426.4
-55374.8
-54036.8
-52456
-50686.6
-48785.8
-46805.9
-44800.1
-42836.1
-40999
-39368.4
-37997.9
-36928.1
-36211.6
-35897.5
-35995.6
-36487.3
-37369.1
-38638.2
-40246
-42149.6
-44355.1
-46835.9
-49510.9
-52334.8
-55232.5
-58095.9
-60866.1
-63441.9
-65756.9
-67753.5
-69376.5
-70599.6
-71421.8
-71862.7
-71992.2
-71903.5
-71821
-35441.8
-36174.6
-37436.2
-39191.8
-41319.8
-43721.5
-46303.2
-48988.6
-51712.2
-54419
-57063
-59596.8
-61980.9
-64145.8
-66037.2
-67573
-68691.5
-69350.9
-69515.8
-69167.1
-68299
-66906.5
-64985.5
-62542.9
-59605.2
-56221.2
-52461.9
-48416.3
-44186.1
-39876.9
-35593
-31432.5
-27484.6
-23828.7
-20536.7
-17675.5
-15306.6
-13483.4
-12246
-11618.8
-11610.3
-12214.9
-13414
-15177.4
-17461.8
-20210.1
-23351.5
-26802.1
-30467.7
-34245.6
-38027.4
-41702.2
-45163.4
-48316.3
-51085.5
-53418.1
-55282
-56662.5
-57558.5
-57981.9
-57957.7
-57523
-56721.5
-55596.7
-54191.2
-52551.1
-50730.9
-48789.6
-46783.3
-44767.1
-42806.1
-40979
-39362.4
-38014
-36982.1
-36327.2
-36105.3
-36332.7
-36996.1
-38092.5
-39618.1
-41523.5
-43765.2
-46341
-49212.4
-52290.3
-55518
-58807.8
-62042.8
-65151.1
-68019.4
-70567.3
-72728
-74447.8
-75700
-76485.4
-76816.1
-76792.4
-76554.2
-76371.9
-36358.7
-37136.7
-38499.5
-40368.4
-42598.5
-45090.4
-47750.9
-50506.8
-53290.3
-56044.9
-58728
-61301.8
-63739.8
-65987.5
-68000.8
-69712.3
-71060.4
-71996.8
-72478.9
-72475.1
-71963.3
-70924.6
-69343.1
-67214.8
-64554.9
-61401
-57813.1
-53871.6
-49673.4
-45325.2
-40937.4
-36617.5
-32464.3
-28564.6
-24993.7
-21818.6
-19098.2
-16882.8
-15211.6
-14111.7
-13598.6
-13677.2
-14343.1
-15581.7
-17366.4
-19655.9
-22393
-25504.8
-28904.1
-32491.7
-36158.3
-39788.2
-43266.3
-46486.3
-49358.8
-51816.1
-53811.5
-55316.5
-56317.6
-56816.1
-56831.2
-56400.6
-55575
-54408.6
-52953
-51259.4
-49385.3
-47394.5
-45350.6
-43314.3
-41350.9
-39534.6
-37939.7
-36627
-35651.5
-35078.1
-34966.1
-35336.7
-36180.9
-37496.6
-39280.1
-41485.3
-44069.2
-47020.7
-50290.3
-53784
-57433
-61135.3
-64765.8
-68236.6
-71425.3
-74238.8
-76606.2
-78476.1
-79812.3
-80608.8
-80878.3
-80754.5
-80402.9
-80141.4
-36904.8
-37715
-39119.1
-41005
-43229.7
-45700.4
-48335
-51063.5
-53816.5
-56538.6
-59187.4
-61734.4
-64156.3
-66422.3
-68490
-70311.8
-71835.1
-73003
-73764.2
-74077.3
-73906.9
-73220.3
-71990.3
-70202.5
-67861
-64990
-61634.9