/*--------------------------------*- C++ -*----------------------------------*\
| =========                 |                                                 |
| \\      /  F ield         | OpenFOAM: The Open Source CFD Toolbox           |
|  \\    /   O peration     | Version:  2406                                  |
|   \\  /    A nd           | Website:  www.openfoam.com                      |
|    \\/     M anipulation  |                                                 |
\*---------------------------------------------------------------------------*/
FoamFile
{
    version     2.0;
    format      ascii;
    arch        "LSB;label=32;scalar=64";
    class       volScalarField;
    location    "9";
    object      p_rgh;
}
// * * * * * * * * * * * * * * * * * * * * * * * * * * * * * * * * * * * * * //

dimensions      [1 -1 -2 0 0 0 0];

internalField   nonuniform List<scalar> 
10000
(
-121915
-122250
-122656
-122910
-122959
-122579
-121860
-120684
-119247
-117451
-115298
-112862
-110193
-107351
-104385
-101342
-98245.4
-95119.7
-91974.6
-88806.1
-85637.7
-82498.6
-79403.2
-76361.6
-73388.8
-70492.2
-67671.1
-64913.5
-62190.2
-59467
-56724.6
-53956.9
-51144.2
-48241.3
-45196.3
-41975.1
-38562.7
-34943.3
-31087.6
-26962.2
-22551.8
-17872.1
-12962.5
-7869.83
-2637.28
2691.61
8062.94
13406.8
18640.4
23675.4
28425.5
32809.7
36750.6
40172
42996.4
45146.6
46551
47149.5
46897
45764.3
43735.9
40809.3
36993.9
32312.1
26800.9
20511.8
13511.1
5876.57
-2306.3
-10948.7
-19959.2
-29240.7
-38684.7
-48168.7
-57559.3
-66722.7
-75535.8
-83892.1
-91703
-98894.5
-105408
-111202
-116256
-120559
-124109
-126910
-128975
-130333
-131021
-131088
-130595
-129618
-128239
-126542
-124607
-122511
-120356
-118285
-116524
-115403
-121222
-121555
-121956
-122158
-122205
-121894
-121168
-120033
-118512
-116643
-114461
-111999
-109292
-106403
-103386
-100295
-97153.6
-93985.7
-90801.6
-87602.6
-84415.9
-81266.1
-78156.9
-75097.1
-72115.5
-69230.3
-66429
-63682.7
-60966.4
-58264.7
-55564.2
-52842.8
-50064.3
-47186.2
-44172.4
-40998.3
-37642.4
-34076.1
-30263.8
-26176.2
-21805.8
-17170.8
-12305.3
-7248.51
-2040.65
3272.46
8632.9
13968.7
19197.2
24231.6
28986.7
33380.6
37334.6
40769.7
43605.7
45764.5
47174.4
47775.6
47522.9
46386.2
44349.3
41408.6
37573.4
32865.7
27322.9
20998.5
13962.4
6296.06
-1912.34
-10573.3
-19595.7
-28882.2
-38322.7
-47792.4
-57157.6
-66286.9
-75061.7
-83378.8
-91149.5
-98298.3
-104766
-110515
-115526
-119788
-123298
-126058
-128083
-129400
-130043
-130058
-129509
-128478
-127044
-125286
-123292
-121143
-118938
-116847
-115105
-114011
-119946
-120243
-120670
-120907
-120865
-120517
-119762
-118638
-117094
-115187
-112958
-110439
-107669
-104706
-101614
-98450.7
-95230.2
-91983.4
-88741.2
-85505.4
-82285.8
-79096.5
-75952.7
-72880.4
-69903.3
-67020.1
-64214.7
-61475
-58790.9
-56140.2
-53490.7
-50811.6
-48075.5
-45252.4
-42308.9
-39212.6
-35934.2
-32444.3
-28712.2
-24712.2
-20433.4
-15885.1
-11094.7
-6100.11
-944.587
4322.81
9643.34
14946.5
20151.8
25173.7
29926
34324.3
38285.8
41728.4
44570.4
46733.1
48144.5
48744.1
48485.8
47339.2
45287.9
42328.2
38467.9
33728.2
28146.6
21779.6
14701.3
6998.21
-1238.23
-9916.66
-18944.9
-28223.8
-37641.1
-47071.3
-56382.5
-65447.9
-74153.1
-82396.6
-90089
-97154.5
-103537
-109204
-114137
-118325
-121762
-124451
-126407
-127648
-128202
-128116
-127466
-126338
-124817
-122984
-120925
-118718
-116461
-114337
-112600
-111499
-118012
-118235
-118637
-118891
-118810
-118394
-117620
-116416
-114823
-112890
-110622
-108035
-105197
-102165
-98989.8
-95722.4
-92401.5
-89079.7
-85773.9
-82468.3
-79183.6
-75952.9
-72783.8
-69685.2
-66678.4
-63773.4
-60963.8
-58238
-55579.9
-52963
-50354.1
-47724
-45047.4
-42295.4
-39433.4
-36427.7
-33250.1
-29875.5
-26274.5
-22416
-18279.8
-13867.5
-9203.55
-4326.42
719.449
5884.75
11112.2
16334
21471.9
26440.4
31150.7
35514.4
39445.2
42859
45674
47811.4
49199.6
49778.7
49504
48346.2
46288.8
43325.6
39460.8
34712.3
29116.8
22732.8
15638.6
7925.49
-310.997
-8976.34
-17975.6
-27207
-36556.4
-45898.6
-55105.4
-64055.6
-72638.8
-80754.9
-88314.1
-95242.8
-101490
-107026
-111834
-115901
-119225
-121808
-123661
-124797
-125242
-125047
-124286
-123049
-121431
-119514
-117382
-115124
-112843
-110721
-109018
-107938
-115294
-115485
-115806
-116039
-115922
-115429
-114598
-113346
-111724
-109748
-107434
-104810
-101924
-98818.6
-95556.7
-92205.2
-88796.3
-85383.7
-81992.3
-78613.7
-75269.4
-71986.5
-68764.5
-65611.6
-62557.4
-59618.2
-56785.4
-54044.8
-51384.4
-48782.2
-46205.2
-43620.6
-40999.6
-38313.4
-35532.1
-32628.3
-29578.3
-26356.4
-22928.7
-19257.8
-15316.7
-11100.9
-6629.93
-1939.73
2925.79
7918.44
12983.9
18057.8
23064
27915.9
32521.5
36788.9
40629.4
43958.1
46694
48760.4
50089.3
50624.9
50325.5
49162.7
47117.7
44179.7
40347.1
35632.7
30071
23721.1
16664.4
8996.1
815.101
-7781.3
-16695.4
-25822.6
-35046.9
-44244.4
-53291.5
-62072.2
-70479.6
-78414.4
-85788
-92530
-98594
-103952
-108586
-112483
-115643
-118072
-119777
-120770
-121083
-120773
-119913
-118588
-116897
-114928
-112755
-110479
-108208
-106120
-104475
-103437
-111798
-111982
-112216
-112355
-112177
-111659
-110715
-109410
-107762
-105763
-103423
-100771
-97856.3
-94709
-91387.7
-87962.1
-84470.3
-80977.5
-77510
-74055.5
-70635.5
-67277.8
-63982.3
-60758
-57636.1
-54633.4
-51742.7
-48955.1
-46267
-43661.2
-41100.9
-38545.1
-35962.7
-33331.6
-30631.2
-27840.4
-24936.4
-21891.6
-18669.4
-15228.1
-11534.9
-7578.93
-3374.06
1048.81
5650.91
10389.2
15213.3
20061.3
24856.6
29511
33930.9
38022.8
41698.1
44873.3
47470.4
49418
50653.7
51126.9
50799.2
49642.1
47633.3
44755.7
41000
36373.2
30905.9
24657
17709.1
10158.7
2105.84
-6351.28
-15113
-24072
-33110.6
-42106.2
-50939.3
-59498.3
-67678.7
-75381.9
-82521.2
-89030.3
-94865.1
-99996.8
-104405
-108081
-111028
-113255
-114771
-115591
-115755
-115324
-114368
-112968
-111224
-109233
-107073
-104841
-102649
-100648
-99087.9
-98104.8
-107566
-107751
-107891
-107897
-107613
-107024
-106019
-104672
-102985
-100958
-98613.2
-95964.9
-93048.5
-89878.9
-86521.2
-83051.9
-79505.9
-75948.8
-72405.7
-68865.8
-65357.8
-61913
-58527.2
-55207.1
-51986
-48885.5
-45904.7
-43044
-40306.5
-37675.7
-35109.4
-32562.3
-30005.4
-27424.5
-24807.2
-22136.1
-19388.1
-16534.6
-13539
-10360.2
-6963.26
-3330.72
533.697
4609.87
8867.68
13269.3
17767.3
22300.5
26793
31157.1
35299.8
39129.6
42560.4
45513.1
47915.2
49701.3
50815.1
51210.8
50852.6
49710.8
47759.2
44973.5
41337.6
36851.9
31543.4
25468.8
18708.9
11358
3513.16
-4728.96
-13267.8
-21993.3
-30785.8
-39523.4
-48090
-56377.2
-64282.1
-71707.2
-78568.7
-84803.1
-90365.5
-95223
-99353.4
-102751
-105427
-107397
-108680
-109304
-109314
-108770
-107741
-106302
-104542
-102561
-100451
-98313.7
-96257.8
-94397.1
-92966.2
-92066.1
-102635
-102762
-102829
-102728
-102349
-101607
-100553
-99160.6
-97435.1
-95397.4
-93065.3
-90430.8
-87526.8
-84363.7
-81006.7
-77527.1
-73949.4
-70337.3
-66721.2
-63096.6
-59496
-55950
-52451.1
-49006.3
-45655.6
-42429.8
-39335.9
-36380.5
-33571.5
-30893.7
-28304
-25756
-23223.2
-20696.5
-18168.3
-15622.8
-13036.8
-10383.4
-7630.25
-4740.65
-1679.26
1578.53
5041.34
8702.09
12540.7
16525
20610.3
24737
28831.3
32808.7
36581.4
40063.8
43176.3
45846.5
48008.1
49601.4
50574.6
50885
50496.9
49378.9
47499.8
44829.7
41346.4
37045.9
31951.7
26116.7
19617.2
12540.8
4978.66
-2976.31
-11223.3
-19649.3
-28132.9
-36553.2
-44797.1
-52759.1
-60337.8
-67438
-73979.1
-79899.1
-85149.7
-89692.3
-93502.7
-96580.2
-98942.7
-100614
-101626
-102025
-101868
-101208
-100118
-98675.6
-96955.5
-95050.7
-93052.4
-91059.7
-89178.3
-87503.8
-86249.8
-85464.6
-97162
-97183.5
-97141.2
-96908.8
-96423.2
-95574.2
-94442.9
-92994.2
-91239.3
-89198.2
-86879.2
-84265.3
-81389.6
-78259.8
-74931.5
-71462.5
-67869.9
-64217
-60537.5
-56831.6
-53132.1
-49467.2
-45830.5
-42236.1
-38733.4
-35361.2
-32133.1
-29061.8
-26161.2
-23420.9
-20799.7
-18252.1
-15752.5
-13293.8
-10868.5
-8459.75
-6044.94
-3600.85
-1102.68
1479.64
4179.93
7028.78
10046.4
13238.7
16595.6
20091.9
23686.4
27322.8
30931.7
34436
37756.7
40818.8
43552.6
45894.1
47782.9
49163.2
49984.9
50205.1
49786.6
48694.6
46894.1
44350.8
41038.9
36951.5
32109
26559.8
20372.9
13627.6
6407.04
-1199.85
-9091.87
-17153.8
-25263.5
-33302.6
-41162.3
-48740.4
-55938.2
-62663.9
-68840.2
-74404.5
-79303.7
-83493.2
-86949.8
-89679.3
-91706.4
-93062.9
-93794.1
-93963.8
-93637.3
-92867.7
-91723
-90289.6
-88643.3
-86864.4
-85032.2
-83240.1
-81587.2
-80149.3
-79108.8
-78462.1
-91209.3
-91145.1
-90993.8
-90613
-89942
-89031.4
-87812
-86300.9
-84518.9
-82471.4
-80160.1
-77570.7
-74736.5
-71655.5
-68370.5
-64926.3
-61334.2
-57655.8
-53922.9
-50136.8
-46330.7
-42532.4
-38741.4
-34981.9
-31312.1
-27776.5
-24395.2
-21188.7
-18180.3
-15367.7
-12715.1
-10178.6
-7731.4
-5362.85
-3062.32
-810.788
1413.97
3630.89
5857.49
8116.61
10438.8
12857.9
15402.7
18090
20919.8
23873.9
26916.4
29996.3
33051.8
36016.5
38824.8
41415.4
43730.5
45714.2
47310.5
48464.6
49125.5
49248.1
48792.6
47721.3
45995.9
43580.1
40446.2
36585.7
32016.2
26781
20941.4
14567.2
7734.18
527.761
-6950.5
-14584.4
-22253.4
-29844.4
-37254.7
-44387.2
-51147.7
-57449.7
-63219.5
-68392.9
-72909.8
-76720.6
-79803.5
-82169.8
-83850.7
-84889.4
-85347
-85298.5
-84815.1
-83956.6
-82788.9
-81392.4
-79844.7
-78220.9
-76595.6
-75049.3
-73674.2
-72516
-71717.4
-71226.9
-84889.4
-84717.8
-84426.7
-83924
-83121.4
-82102.2
-80791.3
-79223.8
-77412.6
-75353.3
-73049.1
-70483.8
-67694.4
-64666.2
-61429.7
-58020.5
-54443.2
-50751.9
-46972.4
-43107.1
-39191.2
-35255
-31304.8
-27374.6
-23529.6
-19818.7
-16268.5
-12911
-9782.73
-6892.99
-4212.25
-1697.75
679.953
2935.92
5085.47
7151.27
9156.72
11118.5
13048.8
14964.4
16892.2
18867
20923.2
23085.2
25360.8
27738.5
30188.8
32669.1
35128.8
37515.7
39779.7
41873.6
43750.9
45362.2
46654
47571.3
48061.5
48076.9
47575.3
46516.5
44860.3
42568.8
39613.5
35984.8
31698.3
26792.3
21320.8
15345.6
8935.87
2174.58
-4836.88
-11983.5
-19149.7
-26230.2
-33130.3
-39759.4
-46029.8
-51862.4
-57188.4
-61942.8
-66060.6
-69490
-72210.3
-74233.2
-75589.8
-76332
-76537
-76288
-75659.6
-74724
-73549.2
-72211.7
-70791.4
-69354.1
-67968.4
-66696.3
-65631.4
-64780.8
-64243.4
-63918.7
-78361.3
-78125.2
-77682.4
-77004
-76125.9
-74970.3
-73576.2
-71963.8
-70125.7
-68053.6
-65756.1
-63213.4
-60465.1
-57487.3
-54301.7
-50933.4
-47379.8
-43683.2
-39862.1
-35921.3
-31899.3
-27828.9
-23722.8
-19622.3
-15597.1
-11700.9
-7969.18
-4447.72
-1187.75
1789.53
4505.68
7000.03
9302.5
11431.6
13407.5
15258
17010.2
18681.8
20283.6
21829.2
23342.9
24859.2
26414.7
28038
29742.5
31523.7
33361.3
35223.9
37074.6
38875.5
40590.6
42184.2
43618
44847.3
45820.8
46483.9
46783.7
46672.4
46106.9
45046
43448.7
41276
38498.7
35106.3
31111.8
26549.1
21465.2
15914.6
9960.84
3684.55
-2814.4
-9424.87
-16039.2
-22562
-28907.2
-34991.1
-40733
-46061
-50911.7
-55220.2
-58920.4
-61962.9
-64330.9
-66034.3
-67100.2
-67584.6
-67576.6
-67163.6
-66419.2
-65427.7
-64264.6
-63004.1
-61721.8
-60483
-59355.3
-58381
-57646.8
-57118.1
-56848.3
-56688.2
-71675.7
-71371.6
-70827.3
-70001.9
-68989.6
-67725.2
-66273.7
-64627
-62769.4
-60693.3
-58407.6
-55893.3
-53188.7
-50262.9
-47132.5
-43810.7
-40286.6
-36590.7
-32735.3
-28729.6
-24615.4
-20425.5
-16176.6
-11916.1
-7717.12
-3637.61
277.478
3968.82
7371.44
10452
13221.6
15711.3
17946.2
19945.2
21732.7
23342.6
24808.6
26153.3
27389.9
28532.5
29604.7
30640.7
31678.1
32748.6
33870.7
35048.1
36270.9
37520.6
38773.2
40003.8
41186.8
42294.8
43294.2
44143.5
44793.5
45191.6
45287.2
45034.9
44393.6
43323
41781.9
39730.7
37139.2
33995.5
30310
26111.6
21440.1
16342.2
10876.1
5118.95
-832.327
-6872.68
-12904.1
-18841.8
-24608.1
-30126.4
-35323.3
-40135.1
-44503.4
-48364.7
-51654.4
-54328.8
-56375.4
-57799.9
-58621.5
-58891.8
-58702.4
-58151.3
-57321.9
-56302.9
-55171.2
-54000.7
-52860.3
-51822.8
-50962.1
-50300
-49902.5
-49696.7
-49689.1
-49689
-65090
-64690.3
-64010.1
-63102.4
-61933.2
-60602.8
-59116.1
-57447.9
-55587.4
-53527.4
-51271.7
-48801.4
-46151.4
-43285.6
-40216.6
-36945
-33453.2
-29762
-25879.3
-21819.1
-17625
-13329.4
-8951.72
-4544.35
-182.549
4072.51
8168.32
12034.5
15594.3
18801.9
21654.2
24168
26357.9
28238.3
29836.3
31193
32350.8
33340.4
34180.6
34888.8
35490.2
36020.3
36518.9
37021.6
37553.3
38126.4
38742
39393.1
40067.5
40749.6
41421.2
42058.9
42632
43100.7
43418.8
43538
43413.8
43006.3
42279.1
41194.6
39712.2
37791.5
35400.9
32526.4
29174.4
25367.3
21136.2
16518.7
11566.5
6352.8
970.16
-4483.36
-9919.47
-15262.6
-20441.8
-25386
-30029.5
-34317.3
-38197.4
-41609.5
-44493.6
-46812.7
-48556.3
-49726.6
-50341.6
-50451.4
-50135.3
-49484.9
-48595.3
-47564.3
-46476
-45405.9
-44419.9
-43590.1
-42997.2
-42642.7
-42571.7
-42679.1
-42923.9
-43083.7
-58633.2
-58180.1
-57372.6
-56342.3
-55082.4
-53714.9
-52205.8
-50541.8
-48713.2
-46703.5
-44513.1
-42117.7
-39546.1
-36758.6
-33762.6
-30548.1
-27093.8
-23413.4
-19512.5
-15409.5
-11148.7
-6762.09
-2273.23
2260.97
6764.96
11177.1
15440.7
19477.9
23202.9
26557.4
29520.4
32088.6
34260
36040.8
37458.8
38562.7
39404.5
40024.4
40448.8
40700.1
40807.3
40809.4
40750.9
40673
40608.3
40578.8
40596.2
40664
40779.2
40933.2
41112.1
41294.9
41452.1
41546.5
41535.8
41378.4
41037.2
40480.2
39676.4
38591.6
37185.8
35417.7
33253.9
30677
27688.1
24301.2
20536.3
16421.3
12000.3
7342.02
2534.27
-2332.11
-7177.6
-11933.6
-16532.9
-20908
-25000.2
-28764.1
-32156.2
-35123.8
-37617.3
-39609
-41086.9
-42040.6
-42480.7
-42460.3
-42054.8
-41347.8
-40435.9
-39417.7
-38390.3
-37430.4
-36609.1
-35988
-35652.8
-35586.4
-35822.7
-36229.2
-36718.6
-37038.4
-52425.4
-51902.9
-51038.4
-49869.4
-48579.6
-47190.1
-45685.2
-44069.9
-42322.8
-40412.1
-38332.6
-36052.7
-33592.8
-30910
-28006
-24862.2
-21456.6
-17797.1
-13888.3
-9752.83
-5436.49
-972.619
3609.35
8247.83
12868.7
17413.5
21825
26021.8
29911.2
33422.6
36514.8
39160.6
41337.7
43041
44297.6
45162.3
45697
45950.9
45957.9
45745.9
45349.2
44812.1
44185.6
43519
42854.2
42223.4
41648.7
41143.4
40712.1
40351.9
40052
39793.6
39549.1
39284
38961.5
38546.9
38010.8
37328.5
36474.4
35417
34116.7
32531.1
30624
28374
25775
22830.6
19549.1
15947.7
12063.7
7961.59
3724.54
-563.821
-4832.13
-9017.44
-13054.9
-16879.5
-20438.6
-23695.5
-26613.5
-29147.9
-31260.8
-32935.9
-34164.3
-34927.5
-35226.7
-35110.9
-34651.1
-33927.7
-33035.6
-32063.5
-31118.8
-30277
-29622
-29201.8
-29106.5
-29305.9
-29827.7
-30517.1
-31242.9
-31715.6
-46676.7
-46082.8
-45143.4
-43922.1
-42619.1
-41230.1
-39780.3
-38268.7
-36653.2
-34893.2
-32972.5
-30854.1
-28545.7
-26001.4
-23215.4
-20162.7
-16820.9
-13193.3
-9284.85
-5123.96
-759.397
3771.82
8432.42
13156.4
17872.2
22526.5
27064.8
31404.7
35448.7
39114.4
42341.1
45077.1
47278.9
48928.7
50050.8
50704.2
50957.5
50867.3
50473.4
49809.3
48914.9
47841.7
46648.4
45393.5
44128.8
42897.1
41730.7
40652.2
39674.1
38799.8
38023.2
37329
36693.2
36085.7
35475.1
34832.8
34135.9
33364.9
32497.7
31504.1
30343.8
28972.3
27350.1
25450.6
23259.5
20769.2
17975.8
14886.7
11533.4
7977.39
4298.1
572.914
-3133.49
-6762.05
-10249.4
-13533.4
-16568.9
-19327.9
-21781.3
-23893
-25637.7
-27009.5
-28001.4
-28592.9
-28781.5
-28607.6
-28130.6
-27425.4
-26584
-25686.5
-24844
-24130.3
-23640.2
-23410.7
-23535.8
-23980.3
-24763.2
-25713
-26656.7
-27265.8
-41410.6
-40810.4
-39783.8
-38584.6
-37280.9
-35941
-34604.9
-33246.8
-31809.2
-30248.2
-28535.6
-26628.9
-24518.9
-22154.8
-19522.6
-16591.4
-13338.3
-9762.46
-5871.61
-1700.73
2697.33
7280.8
12003.9
16796
21587.7
26330.5
30972.9
35433.2
39610.6
43412.9
46762.6
49587.5
51824.8
53444
54463.9
54943.4
54953.7
54555.2
53792.3
52703.7
51335.5
49746.6
48003.9
46174.8
44320.8
42494.6
40739.3
39087.6
37561.8
36173.7
34924.4
33804.5
32795.2
31871.5
31006.4
30176
29361.2
28545.2
27707.1
26815.9
25829.6
24700.6
23385.6
21852.1
20077.5
18042.8
15732.8
13146.2
10309.9
7282.89
4141.08
956.064
-2212.79
-5308.32
-8267.29
-11031.3
-13563.8
-15847
-17859
-19571.7
-20971.6
-22061.3
-22833.3
-23267.5
-23363.5
-23154.1
-22686.2
-22026.4
-21259.4
-20462.5
-19742
-19168.9
-18842.3
-18792.7
-19118.4
-19783.8
-20795.9
-21972.2
-23097.2
-23818.5
-36748.1
-36140.3
-35120.4
-33949
-32688.1
-31461.1
-30285.1
-29115.4
-27895.4
-26575.4
-25116.8
-23468.8
-21603.2
-19463.4
-17025.5
-14253.5
-11123
-7630.26
-3786.44
367.603
4775.56
9391.03
14159.7
19006
23859.8
28674.2
33399.1
37953.2
42235.1
46146.2
49597
52500.1
54778
56388.3
57341.6
57691.5
57507.2
56849.1
55764.2
54295.8
52496.1
50430.5
48173.4
45799.7
43379.5
40975.4
38641.4
36422
34351.4
32452.5
30736.4
29201.7
27836.3
26620.2
25530.6
24546.4
23650.4
22826
22051.1
21292.7
20505.3
19637.7
18642.5
17481.6
16124
14540.6
12706.1
10611.5
8280.08
5767.64
3145.32
477.691
-2181.3
-4775.3
-7239.74
-9518.62
-11583.4
-13424.7
-15027.5
-16370.6
-17450.7
-18278.2
-18845.4
-19135.2
-19153.1
-18925.5
-18488.9
-17901.2
-17233.6
-16563.2
-15983.1
-15560.2
-15392.8
-15509.5
-16013.6
-16867.6
-18065.5
-19417.2
-20671.8
-21474.2
-32825.5
-32195.7
-31259.8
-30126.2
-28975.4
-27911.6
-26923.8
-25968.1
-24995.2
-23949.7
-22781.1
-21428.7
-19846.5
-17971.5
-15768.5
-13197.3
-10230.7
-6862.36
-3106.7
992.322
5376.89
9996.75
14789.6
19673.8
24575
29443.9
34228.7
38848.8
43203.4
47191.7
50717.6
53684.4
56004.8
57626.8
58550.9
58821.2
58499.5
57642.8
56298.5
54513.4
52344.7
49863.1
47148
44280.1
41336.4
38388.4
35501
32731.4
30127.4
27725.2
25547.9
23604.7
21891.7
20395.1
19096.5
17977.2
17020
16206.9
15513.2
14901.7
14322.9
13721.9
13047.4
12256.1
11310
10170.9
8804.34
7194.94
5361.62
3356.28
1243.34
-921.272
-3090.16
-5208.31
-7209.88
-9040.49
-10677.1
-12115.7
-13345.7
-14353
-15144.3
-15737.2
-16125.7
-16297.1
-16263.1
-16043.7
-15665.6
-15178.6
-14636
-14114
-13687.8
-13419.6
-13406.6
-13676.1
-14332.6
-15334.8
-16663.1
-18122.9
-19449.2
-20297.1
-29608.6
-29033.5
-28171.1
-27137.9
-26158.5
-25283.7
-24501.8
-23784.2
-23080.7
-22333.7
-21478.9
-20447.9
-19179.6
-17604.6
-15676.4
-13350.2
-10595.4
-7403.29
-3789.64
201.781
4514.08
9094.24
13873.9
18765.2
23687.9
28585.9
33403.2
38059
42454.4
46489.4
50065.6
53082.4
55447.5
57101.3
58033.9
58277.4
57882.4
56899.1
55373.2
53353.2
50899.9
48087.4
44997.8
41715
38320.4
34892.5
31506
28230.2
25126.6
22245.4
19623.5
17282.3
15228.1
13455.3
11950.8
10698.4
9680.94
8878.23
8261.69
7790
7409.93
7063.54
6696.95
6263.4
5718.67
5016.26
4112.92
2985.9
1648.48
146.453
-1464.37
-3137.87
-4833.69
-6498.99
-8068.1
-9489.47
-10744.6
-11830.9
-12737.8
-13456.7
-14004.4
-14405.7
-14658
-14752.9
-14705.2
-14527.7
-14239.3
-13881.7
-13489.9
-13136.5
-12878.3
-12773.3
-12916
-13329.7
-14111.1
-15215.8
-16612.2
-18109.1
-19450
-20307.6
-27109.7
-26648.4
-25859.1
-25001.9
-24223.9
-23552.7
-22996.4
-22536.3
-22116.7
-21679.1
-21147.7
-20450.7
-19515.3
-18265.3
-16644.3
-14603
-12107.4
-9146.45
-5735.65
-1915.02
2262.23
6742.01
11452.7
16302.5
21205.5
26096.9
30914.1
35575
39982.7
44039.4
47647.6
50706.5
53122.6
54831.7
55813.8
56087.3
55689.6
54661.4
53044.2
50886.7
48251.3
45213.5
41856.1
38263.3
34518.8
30705.1
26904.2
23195.5
19652.5
16339
13305.3
10585.8
8198.88
6148.52
4428.57
3026.77
1926.89
1107.28
536.696
171.074
-44.6335
-168.996
-256.259
-355.03
-514.361
-788.673
-1230.71
-1872.4
-2709.08
-3704.45
-4814.3
-6004.16
-7241.27
-8475.24
-9641.52
-10692.4
-11613.9
-12402.8
-13044.3
-13532.1
-13890.9
-14152.1
-14318.1
-14385.1
-14367.1
-14269.4
-14106
-13910.9
-13701.2
-13544.1
-13478
-13556.3
-13865.1
-14418.4
-15298.9
-16460.9
-17865.5
-19339.6
-20645.6
-21479.3
-25399.4
-25016.3
-24366.7
-23722.3
-23153.6
-22705.1
-22398.2
-22208
-22077.5
-21947.1
-21737.1
-21374
-20776
-19861.6
-18566.8
-16838.6
-14639.8
-11958.1
-8807.46
-5221.49
-1247.41
3061.79
7634.84
12379.8
17208.1
22047.1
26826.3
31460.9
35855.7
39915.5
43545.6
46647.8
49129.8
50924.9
52004.2
52371.5
52049.3
51066.6
49458.6
47271.6
44567.7
41422
37916
34132.7
30155.1
26067.6
21956.6
17908.3
14005.6
10323.4
6924.4
3855.83
1148.27
-1183.28
-3136.41
-4717.72
-5940.6
-6825.91
-7404.96
-7721.58
-7829.41
-7784.58
-7639.05
-7441.23
-7243.62
-7107.82
-7096.29
-7251.63
-7580.45
-8059.53
-8659.93
-9361.87
-10142.4
-10955.4
-11739
-12450.1
-13078.7
-13619
-14050
-14364.7
-14593.4
-14770.8
-14903.7
-14994.2
-15053.9
-15080.6
-15085.9
-15094.7
-15107.1
-15183.7
-15343.9
-15632.9
-16121.7
-16810.9
-17768.8
-18951.4
-20319.6
-21729.1
-22960.5
-23741.2
-24396.3
-24070.4
-23623.6
-23191.7
-22847.7
-22650.8
-22613.6
-22702
-22859.4
-23029.2
-23133.9
-23097.7
-22832.6
-22252.8
-21290.8
-19891
-18014
-15647.7
-12803.6
-9507.99
-5800.7
-1731.45
2632.08
7202.39
11892.5
16625.1
21323
25898
30255.5
34303.2
37950.2
41102.8
43672.3
45590.4
46819.1
47347.8
47182.3
46338.2
44841.5
42734
40075.3
36938.4
33402.2
29547.4
25455.6
21211.1
16902.1
12618.8
8450.43
4479.93
779.823
-2591.62
-5592.28
-8196.23
-10391.7
-12178.4
-13564.8
-14568.3
-15217.2
-15551.3
-15619.4
-15471.8
-15155.3
-14715.9
-14207.6
-13697.7
-13257.6
-12940.8
-12766.4
-12726.7
-12811.3
-13018.6
-13339.3
-13734.8
-14149
-14544.8
-14915.3
-15251.3
-15524.2
-15725.1
-15886.8
-16042.9
-16202.1
-16371.6
-16561.3
-16762.3
-16984.6
-17241.9
-17518.6
-17866.9
-18287.4
-18811
-19489.8
-20312.2
-21333.4
-22514.7
-23824.5
-25142.2
-26268.2
-26974.8
-23935.2
-23723.3
-23481.4
-23262.9
-23176.3
-23261.3
-23507.8
-23881.7
-24326.8
-24793.4
-25207.9
-25490.2
-25549.9
-25298.6
-24667.9
-23601.5
-22058.4
-20028.1
-17519.8
-14552.6
-11159.5
-7385.4
-3291.82
1041.98
5534.39
10108
14681.5
19164.2
23461.9
27484.7
31145.9
34357.5
37035.9
39111.8
40538.7
41290.3
41355.1
40733
39438.8
37507.3
34993.6
31967.4
28504.8
24684.1
20585.6
16293.1
11895.3
7484.51
3153.11
-1011.01
-4928.87
-8534.14
-11775.6
-14618
-17041.1
-19037.3
-20609
-21768.3
-22537.1
-22948.3
-23042.2
-22860
-22441.1
-21826.4
-21069
-20239.8
-19417.1
-18664.6
-18014.2
-17474.8
-17055.6
-16776
-16643.5
-16631.5
-16693.5
-16800.5
-16948.3
-17123.1
-17289.7
-17436.1
-17595
-17794.5
-18039.8
-18342.8
-18711.9
-19133
-19614.7
-20158.3
-20733.1
-21381.6
-22085.8
-22857.6
-23730.7
-24686.2
-25767.1
-26942.1
-28187.4
-29396.1
-30394.7
-31015.8
-23961.1
-23908.8
-23847.1
-23869.3
-24073.6
-24458.9
-24999.4
-25666
-26403.7
-27169.8
-27891.7
-28485.9
-28862.9
-28932.8
-28628.3
-27892.7
-26684.5
-24994.7
-22830.5
-20206
-17148.6
-13698.3
-9909.26
-5849.98
-1594.03
2784.39
7203.48
11571.4
15794.6
19785.8
23461.9
26741.1
29544.6
31803.4
33462.6
34481.2
34829.7
34491.3
33467.9
31785.1
29491.9
26653.5
23343.4
19638.4
15618.3
11367.3
6974.73
2533.62
-1862.45
-6123.65
-10167.9
-13924.1
-17335.3
-20359.5
-22969.7
-25152
-26903
-28227.8
-29140.9
-29665.9
-29832.4
-29671.4
-29212.3
-28489.1
-27551.3
-26469.9
-25327.8
-24196.5
-23120.3
-22124.6
-21239.2
-20504.2
-19945.6
-19551.5
-19287.9
-19136.9
-19097.5
-19150.9
-19256.8
-19400.7
-19612
-19909.6
-20291.3
-20772.1
-21359.6
-22035.6
-22806.9
-23661.6
-24556
-25519.7
-26516.9
-27539.8
-28608.4
-29699.2
-30843.9
-32017
-33195
-34282.1
-35144.3
-35677.1
-24468
-24548.7
-24670.7
-24969.4
-25481.3
-26173.3
-27018.4
-27988
-29029.9
-30102.5
-31133.2
-32038
-32730.3
-33119.7
-33139.5
-32732.6
-31856.2
-30502.2
-28676
-26388.8
-23664.6
-20539.1
-17058.3
-13279.7
-9267.75
-5091.94
-832.224
3419.9
7571.44
11536.2
15234.6
18590.1
21528.6
23981.4
25887.2
27191.8
27849.4
27827.4
27113.9
25724.3
23699.7
21100
17995.5
14462.3
10580.7
6435.92
2118.38
-2278.35
-6660.61
-10938.4
-15028.5
-18857.8
-22365.5
-25505
-28244.5
-30565.1
-32458.1
-33922.7
-34966.2
-35603.3
-35853.8
-35738.8
-35278.7
-34499.8
-33445.7
-32184.2
-30798.4
-29364.3
-27935.8
-26553.5
-25266
-24133.4
-23199.6
-22467.8
-21918.1
-21544.7
-21352.2
-21318.3
-21399.5
-21580.9
-21886.1
-22322.2
-22877.6
-23569.9
-24405.8
-25362.1
-26442.5
-27622.8
-28846.4
-30127.9
-31414.4
-32683.5
-33944.8
-35170.1
-36379.4
-37548.8
-38648.9
-39605.1
-40331.3
-40777.3
-25340.2
-25515.2
-25853.4
-26443.1
-27260.3
-28263.8
-29425.7
-30713.4
-32075
-33464.3
-34810.7
-36033.4
-37048.9
-37767.1
-38120.5
-38049.8
-37509
-36489.6
-34994.1
-33032.8
-30627.1
-27808.7
-24615.7
-21095.1
-17303.5
-13306.7
-9183.38
-5023.95
-921.216
3038.49
6776.84
10220.7
13299.8
15946.2
18094.1
19680.1
20645.7
20944.9
20553.5
19476.1
17744.9
15413
12546.8
9220.54
5515.01
1516.72
-2682.77
-6989.18
-11308.6
-15550.7
-19631.5
-23475.6
-27018.7
-30210.1
-33013.9
-35407.3
-37377.9
-38921.1
-40039.6
-40742.6
-41044
-40958.8
-40501.8
-39693.3
-38570.6
-37195.4
-35646.4
-33999.2
-32312.6
-30637.9
-29038.9
-27592.5
-26358.1
-25353.5
-24572.5
-24021.4
-23712.5
-23624.5
-23713.4
-23966.1
-24399.3
-25007.2
-25768.6
-26702.5
-27814.1
-29072.9
-30476.5
-31989.3
-33542.8
-35134.3
-36696.6
-38198.9
-39641
-40988.2
-42248.9
-43393.8
-44394.7
-45211
-45800.3
-46156.9
-26398.4
-26678.6
-27253.2
-28120.9
-29234.3
-30556.2
-32046.6
-33666.6
-35359.3
-37073.7
-38744.1
-40295.4
-41647
-42710.2
-43414.6
-43696.6
-43505.1
-42826.9
-41661.3
-40016.8
-37913.2
-35377.3
-32440
-29140.2
-25528.4
-21668.3
-17639.5
-13533.1
-9442.8
-5456.33
-1652.67
1896.01
5121.27
7955.83
10331.9
12180.6
13435.7
14042.1
13966
13202.2
11773.1
9723.92
7114.88
4017.05
509.889
-3319.86
-7379.81
-11574.6
-15809.2
-19991.3
-24034
-27858
-31393.7
-34585.4
-37392.5
-39789.2
-41761.3
-43303.2
-44416.9
-45110.9
-45398.6
-45294.6
-44813
-43971.9
-42803.7
-41362.9
-39720.7
-37947.7
-36102.5
-34241.1
-32436.2
-30775.7
-29330.7
-28131.9
-27186.7
-26513.2
-26132.5
-26028.9
-26161.8
-26521.2
-27117.3
-27930.6
-28931.5
-30139.4
-31555.4
-33138.2
-34876.7
-36724.6
-38602.1
-40489.6
-42309.5
-44026.4
-45627.1
-47070.5
-48351.7
-49437.5
-50312.7
-50977.1
-51417.2
-51675.1
-27538.3
-27959.4
-28753
-29874.9
-31278.4
-32920.4
-34742.4
-36695.6
-38716.3
-40752.1
-42743.8
-44622
-46311.1
-47724.5
-48789.1
-49433.6
-49601.7
-49272
-48438.1
-47105.6
-45292.6
-43020.2
-40312.5
-37202.3
-33735.7
-29975.7
-26003.1
-21911.1
-17796.1
-13749.1
-9852.11
-6178.91
-2798.31
222.466
2814.93
4908.36
6433.22
7329.65
7557.77
7104.25
5982.56
4228.49
1894.53
-954.142
-4241.79
-7883.63
-11787.8
-15858.1
-19997.2
-24109.4
-28102.5
-31890.2
-35395.7
-38556.1
-41325.6
-43675
-45589.5
-47065
-48105.5
-48722.8
-48933.9
-48757.8
-48212.8
-47318.6
-46105.4
-44621.5
-42929.8
-41094.5
-39170.8
-37214.4
-35300
-33519.9
-31952.2
-30637.8
-29597
-28860
-28457
-28380.9
-28597.9
-29101
-29894.9
-30947.2
-32221.8
-33736
-35484.3
-37411.6
-39495.8
-41681.1
-43877.7
-46050.3
-48115.1
-50030
-51766.9
-53277.6
-54545.1
-55541.5
-56271.8
-56767.2
-57037.7
-57185.9
-28731.4
-29296
-30271.9
-31628.6
-33313
-35260.1
-37395.9
-39657.8
-41979.3
-44308.2
-46591.3
-48765.2
-50762.6
-52500
-53904.4
-54896
-55415.2
-55431.3
-54929.8
-53911.7
-52391.2
-50382.9
-47903
-44977.9
-41649.5
-37979.7
-34049.5
-29953.6
-25791.2
-21658.1
-17641.7
-13820.8
-10268.1
-7052.49
-4242.94
-1909.74
-121.989
1059.98
1593.59
1459.89
664.144
-767.527
-2792.28
-5353.54
-8382.61
-11799.9
-15516.5
-19437.1
-23462.7
-27493.3
-31430.1
-35178.3
-38651.7
-41778.3
-44505.1
-46798.7
-48642.6
-50033.5
-50978.1
-51491.7
-51596.5
-51318.4
-50682.7
-49714.5
-48444.6
-46917.5
-45189.9
-43321
-41363
-39369.7
-37413.1
-35583.6
-33962.2
-32597
-31519.4
-30771.6
-30393.5
-30386.9
-30726.1
-31406.2
-32427.7
-33747.7
-35325.9
-37175
-39279.7
-41571
-44015.1
-46546.8
-49067.2
-51528.4
-53839.6
-55948.3
-57810.5
-59373
-60610.5
-61509.9
-62090
-62401.8
-62488.9
-62520.8
-29921.3
-30590.5
-31719.3
-33293.2
-35229.4
-37440.4
-39840.1
-42355.4
-44920.5
-47482.4
-49991.9
-52392.9
-54630.5
-56626.5
-58314.2
-59608.5
-60448.6
-60797.4
-60629.5
-59938
-58729.5
-57010.2
-54786.8
-52077.4
-48917.7
-45364.7
-41496.3
-37406.3
-33196.2
-28967.4
-24815.1
-20827
-17082.7
-13655.5
-10615.3
-8030.69
-5967.66
-4483.77
-3621.22
-3402.29
-3828.86
-4884.76
-6538.53
-8745.25
-11447.1
-14573.7
-18043.1
-21763.7
-25637.4
-29561.2
-33430.4
-37141.6
-40598
-43717.2
-46436.2
-48713.9
-50528.7
-51874.4
-52756.8
-53192
-53205.7
-52830.3
-52100.1
-51048.6
-49710.6
-48129.8
-46360.4
-44459.6
-42479.7
-40473.8
-38509.9
-36672.8
-35042.2
-33671.7
-32601.9
-31885.4
-31571.2
-31669.4
-32161.1
-33042.8
-34312
-35919.8
-37823.4
-40028.9
-42509.7
-45184.7
-48008.6
-50906.3
-53769.7
-56539.9
-59115.6
-61430.6
-63427.3
-65050.3
-66273.4
-67095.5
-67536.5
-67666
-67577.3
-67494.8
-30978.3
-31711
-32972.6
-34728.2
-36856.2
-39258
-41839.6
-44525.1
-47248.7
-49955.4
-52599.5
-55133.2
-57517.3
-59682.2
-61573.6
-63109.5
-64227.9
-64887.3
-65052.3
-64703.6
-63835.4
-62442.9
-60521.9
-58079.3
-55141.6
-51757.7
-47998.3
-43952.8
-39722.5
-35413.3
-31129.4
-26969
-23021
-19365.1
-16073.2
-13211.9
-10843.1
-9019.85
-7782.44
-7155.25
-7146.79
-7751.32
-8950.49
-10713.9
-12998.2
-15746.6
-18887.9
-22338.5
-26004.1
-29782.1
-33563.8
-37238.7
-40699.8
-43852.7
-46622
-48954.5
-50818.4
-52198.9
-53095
-53518.4
-53494.2
-53059.5
-52257.9
-51133.2
-49727.7
-48087.6
-46267.3
-44326
-42319.7
-40303.5
-38342.5
-36515.4
-34898.9
-33550.4
-32518.6
-31863.7
-31641.7
-31869.1
-32532.5
-33628.9
-35154.6
-37059.9
-39301.6
-41877.4
-44748.8
-47826.7
-51054.4
-54344.2
-57579.2
-60687.5
-63555.9
-66103.8
-68264.5
-69984.3
-71236.5
-72021.8
-72352.6
-72328.9
-72090.7
-71908.3
-31757.8
-32535.8
-33898.7
-35767.5
-37997.6
-40489.5
-43150
-45905.9
-48689.4
-51444
-54127.1
-56700.9
-59139
-61386.6
-63399.9
-65111.4
-66459.5
-67395.9
-67878.1
-67874.2
-67362.5
-66323.7
-64742.2
-62613.9
-59954
-56800.1
-53212.2
-49270.7
-45072.5
-40724.3
-36336.5
-32016.6
-27863.4
-23963.7
-20392.8
-17217.7
-14497.3
-12281.9
-10610.7
-9510.82
-8997.68
-9076.3
-9742.22
-10980.8
-12765.5
-15055
-17792.1
-20903.9
-24303.2
-27890.8
-31557.4
-35187.3
-38665.4
-41885.4
-44757.9
-47215.2
-49210.6
-50715.7
-51716.7
-52215.2
-52230.3
-51799.7
-50974.1
-49807.8
-48352.1
-46658.5
-44784.4
-42793.6
-40749.7
-38713.5
-36750
-34933.8
-33338.8
-32026.1
-31050.6
-30477.2
-30365.2
-30735.9
-31580
-32895.7
-34679.2
-36884.4
-39468.4
-42419.8
-45689.4
-49183.1
-52832.2
-56534.4
-60164.9
-63635.8
-66824.4
-69637.9
-72005.3
-73875.2
-75211.4
-76007.9
-76277.4
-76153.6
-75802
-75540.5
-32166.5
-32976.7
-34380.8
-36266.8
-38491.5
-40962.1
-43596.8
-46325.3
-49078.2
-51800.4
-54449.2
-56996.1
-59418.1
-61684
-63751.7
-65573.5
-67096.9
-68264.8
-69025.9
-69339.1
-69168.7
-68482.1
-67252
-65464.3
-63122.8
-60251.7
-56896.7
-53124.3
-49020.8
-44688
-40237.5
-35782.9