/*--------------------------------*- C++ -*----------------------------------*\
| =========                 |                                                 |
| \\      /  F ield         | OpenFOAM: The Open Source CFD Toolbox           |
|  \\    /   O peration     | Version:  2406                                  |
|   \\  /    A nd           | Website:  www.openfoam.com                      |
|    \\/     M anipulation  |                                                 |
\*---------------------------------------------------------------------------*/
FoamFile
{
    version     2.0;
    format      ascii;
    arch        "LSB;label=32;scalar=64";
    class       surfaceScalarField;
    location    "9";
    object      phi;
}
// * * * * * * * * * * * * * * * * * * * * * * * * * * * * * * * * * * * * * //

dimensions      [0 3 -1 0 0 0 0];

oriented        oriented;

internalField   nonuniform List<scalar> 
19800
(
9.51282e-13
-4.4382e-12
1.56098e-12
-9.10689e-12
9.55386e-13
-1.1307e-11
-4.02432e-13
-1.23279e-11
-2.64331e-12
-1.27603e-11
-5.00478e-12
-1.28832e-11
-7.66684e-12
-1.30688e-11
-9.95884e-12
-1.31774e-11
-1.23285e-11
-1.35596e-11
-1.45594e-11
-1.39573e-11
-1.64823e-11
-1.42758e-11
-1.8086e-11
-1.46006e-11
-1.93393e-11
-1.49867e-11
-2.02637e-11
-1.54341e-11
-2.08891e-11
-1.59326e-11
-2.13068e-11
-1.64606e-11
-2.15554e-11
-1.69891e-11
-2.16943e-11
-1.7492e-11
-2.17609e-11
-1.79429e-11
-2.17057e-11
-1.83207e-11
-2.15153e-11
-1.86219e-11
-2.1221e-11
-1.88655e-11
-2.08391e-11
-1.90758e-11
-2.03771e-11
-1.92541e-11
-1.98791e-11
-1.93731e-11
-1.94041e-11
-1.94144e-11
-1.90145e-11
-1.93984e-11
-1.87692e-11
-1.93475e-11
-1.86912e-11
-1.92382e-11
-1.87606e-11
-1.90284e-11
-1.89663e-11
-1.87223e-11
-1.93521e-11
-1.83736e-11
-1.99822e-11
-1.80211e-11
-2.08719e-11
-1.76427e-11
-2.19767e-11
-1.71856e-11
-2.32472e-11
-1.66254e-11
-2.46747e-11
-1.59854e-11
-2.62722e-11
-1.53035e-11
-2.80148e-11
-1.45953e-11
-2.981e-11
-1.38522e-11
-3.1525e-11
-1.30678e-11
-3.3044e-11
-1.22616e-11
-3.43002e-11
-1.14745e-11
-3.52609e-11
-1.07433e-11
-3.58899e-11
-1.00812e-11
-3.61258e-11
-9.48034e-12
-3.58933e-11
-8.92969e-12
-3.51279e-11
-8.42866e-12
-3.37944e-11
-7.98623e-12
-3.18876e-11
-7.6112e-12
-2.942e-11
-7.30355e-12
-2.64066e-11
-7.05235e-12
-2.28577e-11
-6.83995e-12
-1.87824e-11
-6.64917e-12
-1.42015e-11
-6.46979e-12
-9.15904e-12
-6.30095e-12
-3.7257e-12
-6.14827e-12
2.00924e-12
-6.01792e-12
7.95009e-12
-5.9117e-12
1.40037e-11
-5.82573e-12
2.00809e-11
-5.75181e-12
2.60933e-11
-5.67992e-12
3.19477e-11
-5.60076e-12
3.75459e-11
-5.50928e-12
4.27875e-11
-5.40851e-12
4.75795e-11
-5.31177e-12
5.18457e-11
-5.24041e-12
5.55328e-11
-5.21823e-12
5.86053e-11
-5.26601e-12
6.10309e-11
-5.40003e-12
6.27648e-11
-5.6343e-12
6.37459e-11
-5.98205e-12
6.39107e-11
-6.45263e-12
6.32201e-11
-7.0443e-12
6.16809e-11
-7.73905e-12
5.93492e-11
-8.50578e-12
5.63138e-11
-9.31182e-12
5.2676e-11
-1.01346e-11
4.85395e-11
-1.09638e-11
4.40123e-11
-1.17924e-11
3.92073e-11
-1.26085e-11
3.42301e-11
-1.33964e-11
2.91648e-11
-1.41467e-11
2.40732e-11
-1.48603e-11
1.90126e-11
-1.55426e-11
1.40515e-11
-1.61957e-11
9.26803e-12
-1.68232e-11
4.74001e-12
-1.74376e-11
5.46179e-13
-1.80545e-11
-3.22952e-12
-1.86729e-11
-6.51018e-12
-1.92703e-11
-9.24818e-12
-1.98253e-11
-1.14202e-11
-2.03338e-11
-1.29959e-11
-2.07892e-11
-1.38959e-11
-2.11535e-11
-1.39256e-11
-2.13466e-11
-1.27647e-11
-2.11231e-11
-1.00117e-11
-1.98016e-11
-5.20817e-12
-1.60953e-11
-8.1177e-12
1.19703e-12
-9.02724e-12
2.3618e-12
-1.85976e-11
1.2975e-12
-2.27078e-11
-1.24665e-12
-2.42434e-11
-5.37169e-12
-2.51012e-11
-1.0285e-11
-2.56083e-11
-1.54482e-11
-2.60395e-11
-2.05296e-11
-2.64076e-11
-2.53214e-11
-2.68911e-11
-2.97221e-11
-2.74533e-11
-3.36195e-11
-2.80641e-11
-3.69306e-11
-2.87467e-11
-3.95459e-11
-2.95151e-11
-4.1486e-11
-3.03923e-11
-4.28083e-11
-3.1344e-11
-4.36684e-11
-3.23362e-11
-4.41618e-11
-3.33493e-11
-4.43934e-11
-3.43191e-11
-4.44321e-11
-3.51694e-11
-4.42301e-11
-3.5886e-11
-4.37903e-11
-3.65102e-11
-4.31628e-11
-3.70721e-11
-4.23534e-11
-3.75521e-11
-4.13599e-11
-3.7913e-11
-4.02805e-11
-3.81607e-11
-3.92746e-11
-3.83296e-11
-3.84657e-11
-3.84176e-11
-3.79123e-11
-3.83701e-11
-3.76392e-11
-3.81366e-11
-3.76718e-11
-3.77298e-11
-3.80564e-11
-3.72115e-11
-3.88559e-11
-3.66262e-11
-4.01145e-11
-3.59607e-11
-4.18238e-11
-3.51669e-11
-4.39399e-11
-3.42134e-11
-4.64291e-11
-3.31062e-11
-4.92864e-11
-3.18703e-11
-5.24958e-11
-3.05222e-11
-5.59687e-11
-2.90649e-11
-5.95254e-11
-2.75096e-11
-6.29412e-11
-2.58962e-11
-6.60165e-11
-2.42886e-11
-6.86105e-11
-2.27477e-11
-7.06214e-11
-2.13087e-11
-7.19458e-11
-1.99794e-11
-7.24575e-11
-1.87561e-11
-7.20212e-11
-1.76404e-11
-7.05225e-11
-1.66432e-11
-6.78912e-11
-1.5778e-11
-6.41047e-11
-1.50496e-11
-5.91721e-11
-1.4447e-11
-5.31138e-11
-1.39452e-11
-4.59508e-11
-1.35139e-11
-3.7712e-11
-1.31288e-11
-2.84527e-11
-1.27786e-11
-1.82703e-11
-1.24642e-11
-7.30673e-12
-1.21928e-11
4.26461e-12
-1.19713e-11
1.62578e-11
-1.18023e-11
2.84885e-11
-1.16817e-11
4.07768e-11
-1.15978e-11
5.29408e-11
-1.15306e-11
6.47873e-11
-1.14573e-11
7.61091e-11
-1.1361e-11
8.66942e-11
-1.12413e-11
9.63474e-11
-1.11188e-11
1.04914e-10
-1.10299e-11
1.12287e-10
-1.10164e-11
1.18398e-10
-1.11163e-11
1.2318e-10
-1.13604e-11
1.26543e-10
-1.17752e-11
1.28372e-10
-1.23836e-11
1.28556e-10
-1.32004e-11
1.2704e-10
-1.42216e-11
1.23855e-10
-1.54198e-11
1.19113e-10
-1.67516e-11
1.12977e-10
-1.81749e-11
1.05636e-10
-1.96623e-11
9.72951e-11
-2.11976e-11
8.81769e-11
-2.27625e-11
7.85105e-11
-2.43286e-11
6.84995e-11
-2.58661e-11
5.83017e-11
-2.73578e-11
4.80411e-11
-2.88e-11
3.78406e-11
-3.01917e-11
2.78378e-11
-3.15335e-11
1.81776e-11
-3.2839e-11
9.0141e-12
-3.41354e-11
5.25863e-13
-3.54399e-11
-7.09559e-12
-3.6736e-11
-1.37005e-11
-3.79817e-11
-1.92112e-11
-3.91322e-11
-2.35667e-11
-4.01526e-11
-2.66577e-11
-4.10245e-11
-2.82952e-11
-4.17289e-11
-2.80463e-11
-4.21599e-11
-2.51881e-11
-4.18872e-11
-1.90596e-11
-3.96473e-11
-9.39407e-12
-3.26988e-11
-1.63731e-11
1.18805e-12
-1.37653e-11
2.59296e-12
-2.83936e-11
1.35679e-12
-3.47247e-11
-2.0023e-12
-3.70682e-11
-6.85062e-12
-3.81166e-11
-1.2748e-11
-3.88771e-11
-1.89019e-11
-3.9503e-11
-2.51424e-11
-4.02417e-11
-3.10017e-11
-4.09285e-11
-3.63779e-11
-4.15788e-11
-4.11686e-11
-4.22833e-11
-4.52491e-11
-4.31108e-11
-4.85114e-11
-4.40341e-11
-5.09277e-11
-4.50649e-11
-5.2573e-11
-4.62349e-11
-5.36382e-11
-4.75203e-11
-5.42032e-11
-4.8817e-11
-5.43826e-11
-5.0025e-11
-5.43107e-11
-5.11363e-11
-5.39874e-11
-5.21751e-11
-5.34036e-11
-5.31157e-11
-5.25699e-11
-5.3923e-11
-5.14826e-11
-5.46184e-11
-5.01875e-11
-5.52391e-11
-4.88248e-11
-5.57795e-11
-4.75453e-11
-5.61964e-11
-4.64498e-11
-5.64451e-11
-4.56189e-11
-5.64968e-11
-4.51417e-11
-5.63404e-11
-4.50901e-11
-5.59826e-11
-4.55001e-11
-5.54449e-11
-4.63955e-11
-5.47467e-11
-4.78019e-11
-5.3885e-11
-4.97283e-11
-5.28329e-11
-5.21561e-11
-5.15613e-11
-5.50582e-11
-5.00549e-11
-5.84161e-11
-4.83097e-11
-6.21959e-11
-4.63279e-11
-6.62986e-11
-4.41275e-11
-7.05356e-11
-4.17556e-11
-7.46591e-11
-3.92855e-11
-7.84255e-11
-3.67977e-11
-8.16409e-11
-3.43586e-11
-8.41578e-11
-3.20118e-11
-8.58417e-11
-2.97813e-11
-8.65459e-11
-2.7683e-11
-8.6116e-11
-2.5735e-11
-8.44159e-11
-2.39584e-11
-8.13529e-11
-2.23687e-11
-7.68851e-11
-2.0966e-11
-7.10106e-11
-1.97318e-11
-6.37494e-11
-1.86364e-11
-5.51324e-11
-1.76517e-11
-4.52065e-11
-1.67618e-11
-3.40491e-11
-1.59659e-11
-2.17833e-11
-1.52757e-11
-8.57966e-12
-1.47097e-11
5.35616e-12
-1.42871e-11
1.98048e-11
-1.40207e-11
3.45496e-11
-1.39096e-11
4.93795e-11
-1.39341e-11
6.4077e-11
-1.40574e-11
7.84038e-11
-1.42351e-11
9.20958e-11
-1.44315e-11
1.0488e-10
-1.46333e-11
1.16507e-10
-1.48546e-11
1.26786e-10
-1.5131e-11
1.35589e-10
-1.55074e-11
1.42839e-10
-1.60268e-11
1.48457e-10
-1.67277e-11
1.5234e-10
-1.76443e-11
1.54355e-10
-1.88057e-11
1.54391e-10
-2.02277e-11
1.52402e-10
-2.19015e-11
1.48438e-10
-2.37916e-11
1.42633e-10
-2.58474e-11
1.35171e-10
-2.8023e-11
1.2627e-10
-3.02878e-11
1.16178e-10
-3.26186e-11
1.05174e-10
-3.49864e-11
9.35313e-11
-3.7354e-11
8.14841e-11
-3.96892e-11
6.92111e-11
-4.19733e-11
5.68605e-11
-4.41942e-11
4.45797e-11
-4.63362e-11
3.25235e-11
-4.83874e-11
2.08555e-11
-5.03536e-11
9.77116e-12
-5.2248e-11
-4.84303e-13
-5.40655e-11
-9.65883e-12
-5.57794e-11
-1.757e-11
-5.73624e-11
-2.41272e-11
-5.87846e-11
-2.92647e-11
-5.99996e-11
-3.28541e-11
-6.09846e-11
-3.4651e-11
-6.17319e-11
-3.41284e-11
-6.20857e-11
-3.0428e-11
-6.14498e-11
-2.28364e-11
-5.80412e-11
-1.1392e-11
-4.7835e-11
-2.37205e-11
8.96821e-13
-1.88303e-11
2.33721e-12
-3.85463e-11
1.06361e-12
-4.72237e-11
-2.65261e-12
-5.05109e-11
-7.87476e-12
-5.19116e-11
-1.39903e-11
-5.29018e-11
-2.05983e-11
-5.37789e-11
-2.71029e-11
-5.45855e-11
-3.32584e-11
-5.53013e-11
-3.89958e-11
-5.59961e-11
-4.4176e-11
-5.66928e-11
-4.85771e-11
-5.74139e-11
-5.21249e-11
-5.82425e-11
-5.48062e-11
-5.92539e-11
-5.66517e-11
-6.04201e-11
-5.77883e-11
-6.16833e-11
-5.83065e-11
-6.301e-11
-5.84103e-11
-6.43481e-11
-5.82668e-11
-6.56438e-11
-5.78328e-11
-6.68634e-11
-5.70904e-11
-6.7998e-11
-5.61029e-11
-6.9059e-11
-5.48825e-11
-7.00686e-11
-5.34412e-11
-7.10253e-11
-5.18901e-11
-7.18914e-11
-5.03833e-11
-7.26211e-11
-4.90441e-11
-7.31797e-11
-4.79779e-11
-7.35306e-11
-4.72942e-11
-7.36331e-11
-4.70754e-11
-7.3467e-11
-4.7354e-11
-7.30447e-11
-4.81389e-11
-7.23902e-11
-4.94423e-11
-7.15063e-11
-5.12735e-11
-7.03638e-11
-5.36215e-11
-6.89143e-11
-5.64633e-11
-6.71135e-11
-5.97842e-11
-6.49398e-11
-6.35662e-11
-6.23994e-11
-6.77339e-11
-5.95251e-11
-7.21124e-11
-5.63737e-11
-7.64445e-11
-5.30238e-11
-8.04588e-11
-4.95654e-11
-8.39298e-11
-4.60838e-11
-8.66866e-11
-4.26465e-11
-8.85819e-11
-3.93021e-11
-8.94631e-11
-3.60888e-11
-8.91686e-11
-3.30425e-11
-8.75482e-11
-3.01947e-11
-8.4489e-11
-2.75636e-11
-7.99299e-11
-2.51495e-11
-7.38595e-11
-2.29375e-11
-6.63008e-11
-2.09085e-11
-5.72979e-11
-1.90502e-11
-4.69137e-11
-1.73649e-11
-3.5241e-11
-1.58718e-11
-2.24156e-11
-1.46042e-11
-8.61838e-12
-1.36031e-11
5.93921e-12
-1.29061e-11
2.10378e-11
-1.25354e-11
3.64657e-11
-1.2488e-11
5.20159e-11
-1.27313e-11
6.74658e-11
-1.32087e-11
8.25568e-11
-1.38547e-11
9.69906e-11
-1.46132e-11
1.10455e-10
-1.54531e-11
1.22666e-10
-1.63727e-11
1.33412e-10
-1.73924e-11
1.42561e-10
-1.85431e-11
1.50033e-10
-1.98573e-11
1.5575e-10
-2.13669e-11
1.59609e-10
-2.31043e-11
1.61487e-10
-2.50986e-11
1.61286e-10
-2.73638e-11
1.58984e-10
-2.9887e-11
1.54645e-10
-3.2628e-11
1.48407e-10
-3.55347e-11
1.40454e-10
-3.85619e-11
1.31006e-10
-4.16772e-11
1.20333e-10
-4.4852e-11
1.08732e-10
-4.80519e-11
9.6488e-11
-5.12428e-11
8.38329e-11
-5.44013e-11
7.09493e-11
-5.75125e-11
5.79959e-11
-6.05546e-11
4.51243e-11
-6.34922e-11
3.24824e-11
-6.62906e-11
2.02367e-11
-6.89273e-11
8.61066e-12
-7.13768e-11
-2.11823e-12
-7.35952e-11
-1.16854e-11
-7.55407e-11
-1.98947e-11
-7.71984e-11
-2.66273e-11
-7.85615e-11
-3.18264e-11
-7.9604e-11
-3.53791e-11
-8.03172e-11
-3.69942e-11
-8.07099e-11
-3.61544e-11
-8.06261e-11
-3.202e-11
-7.93468e-11
-2.39131e-11
-7.46452e-11
-1.20293e-11
-6.13481e-11
-3.0257e-11
5.45158e-13
-2.39109e-11
1.66719e-12
-4.87675e-11
3.72747e-13
-5.9729e-11
-3.49011e-12
-6.40826e-11
-8.87633e-12
-6.59143e-11
-1.50037e-11
-6.7017e-11
-2.16056e-11
-6.81361e-11
-2.80707e-11
-6.90437e-11
-3.42728e-11
-6.97633e-11
-4.00844e-11
-7.03615e-11
-4.53557e-11
-7.08992e-11
-4.99152e-11
-7.14382e-11
-5.36784e-11
-7.20415e-11
-5.65399e-11
-7.27897e-11
-5.85022e-11
-7.3718e-11
-5.97121e-11
-7.48116e-11
-6.02451e-11
-7.60304e-11
-6.03089e-11
-7.73141e-11
-6.00894e-11
-7.86309e-11
-5.95651e-11
-7.99669e-11
-5.87375e-11
-8.13069e-11
-5.76823e-11
-8.26416e-11
-5.63919e-11
-8.39693e-11
-5.48439e-11
-8.52767e-11
-5.31404e-11
-8.65285e-11
-5.14478e-11
-8.76734e-11
-4.98926e-11
-8.86518e-11
-4.85788e-11
-8.93958e-11
-4.7632e-11
-8.98414e-11
-4.71611e-11
-8.99562e-11
-4.72094e-11
-8.97511e-11
-4.77715e-11
-8.92523e-11
-4.88335e-11
-8.84558e-11
-5.03861e-11
-8.73127e-11
-5.24183e-11
-8.57561e-11
-5.49256e-11
-8.37351e-11
-5.79222e-11
-8.12274e-11
-6.14185e-11
-7.82349e-11
-6.53637e-11
-7.47798e-11
-6.95996e-11
-7.09091e-11
-7.38739e-11
-6.6697e-11
-7.79066e-11
-6.22391e-11
-8.1454e-11
-5.76383e-11
-8.43277e-11
-5.29919e-11
-8.63711e-11
-4.83841e-11
-8.74265e-11
-4.38836e-11
-8.73247e-11
-3.95435e-11
-8.58996e-11
-3.54007e-11
-8.30189e-11
-3.1477e-11
-7.8607e-11
-2.77824e-11
-7.26486e-11
-2.43218e-11
-6.51745e-11
-2.11029e-11
-5.62433e-11
-1.8143e-11
-4.59348e-11
-1.54739e-11
-3.43564e-11
-1.31419e-11
-2.16525e-11
-1.12041e-11
-8.00297e-12
-9.71947e-12
6.39296e-12
-8.73583e-12
2.1338e-11
-8.27724e-12
3.66464e-11
-8.33421e-12
5.21319e-11
-8.86186e-12
6.75789e-11
-9.78845e-12
8.2717e-11
-1.10325e-11
9.72218e-11
-1.25224e-11
1.10749e-10
-1.42096e-11
1.22992e-10
-1.60708e-11
1.33722e-10
-1.81006e-11
1.42805e-10
-2.03012e-11
1.50158e-10
-2.26791e-11
1.55706e-10
-2.5247e-11
1.59349e-10
-2.8027e-11
1.60979e-10
-3.10432e-11
1.60521e-10
-3.4307e-11
1.57978e-10
-3.78028e-11
1.53426e-10
-4.14898e-11
1.47e-10
-4.53183e-11
1.38874e-10
-4.92459e-11
1.2927e-10
-5.32394e-11
1.18463e-10
-5.7267e-11
1.06751e-10
-6.12974e-11
9.44132e-11
-6.53093e-11
8.16757e-11
-6.92947e-11
6.87277e-11
-7.32422e-11
5.57408e-11
-7.71153e-11
4.28674e-11
-8.08524e-11
3.02466e-11
-8.43859e-11
1.805e-11
-8.76491e-11
6.52022e-12
-9.05688e-11
-4.06397e-12
-9.30738e-11
-1.34611e-11
-9.51214e-11
-2.14791e-11
-9.67013e-11
-2.79708e-11
-9.7821e-11
-3.28832e-11
-9.84867e-11
-3.61272e-11
-9.86973e-11
-3.73932e-11
-9.84581e-11
-3.62127e-11
-9.7649e-11
-3.18401e-11
-9.5472e-11
-2.36534e-11
-8.93623e-11
-1.19605e-11
-7.32096e-11
-3.59911e-11
1.56549e-13
-2.88062e-11
7.49294e-13
-5.86586e-11
-7.7209e-13
-7.1831e-11
-4.65472e-12
-7.71566e-11
-9.94912e-12
-7.94641e-11
-1.6169e-11
-8.08526e-11
-2.25177e-11
-8.19835e-11
-2.87921e-11
-8.29081e-11
-3.4876e-11
-8.36353e-11
-4.0632e-11
-8.41605e-11
-4.59093e-11
-8.45006e-11
-5.05395e-11
-8.47588e-11
-5.44501e-11
-8.50494e-11
-5.74888e-11
-8.54764e-11
-5.96114e-11
-8.60719e-11
-6.09434e-11
-8.68428e-11
-6.15411e-11
-8.78008e-11
-6.16363e-11
-8.8934e-11
-6.14312e-11
-9.02231e-11
-6.0906e-11
-9.16409e-11
-6.00693e-11
-9.31504e-11
-5.90013e-11
-9.4731e-11
-5.76831e-11
-9.63787e-11
-5.60734e-11
-9.80721e-11
-5.42603e-11
-9.97564e-11
-5.24014e-11
-1.01355e-10
-5.06156e-11
-1.02779e-10
-4.90106e-11
-1.03936e-10
-4.77402e-11
-1.04747e-10
-4.69522e-11
-1.05179e-10
-4.67041e-11
-1.05232e-10
-4.69639e-11
-1.04917e-10
-4.76776e-11
-1.04212e-10
-4.88178e-11
-1.03066e-10
-5.03861e-11
-1.01416e-10
-5.24057e-11
-9.92171e-11
-5.49167e-11
-9.64466e-11
-5.79529e-11
-9.30957e-11
-6.14881e-11
-8.91639e-11
-6.53891e-11
-8.4669e-11
-6.94217e-11
-7.96648e-11
-7.33126e-11
-7.42477e-11
-7.68135e-11
-6.85443e-11
-7.97251e-11
-6.26873e-11
-8.18763e-11
-5.67928e-11
-8.30941e-11
-5.09498e-11
-8.31916e-11
-4.52223e-11
-8.19867e-11
-3.96571e-11
-7.93345e-11
-3.42922e-11
-7.51546e-11
-2.91642e-11
-6.9435e-11
-2.43134e-11
-6.22166e-11
-1.97872e-11
-5.35726e-11
-1.5642e-11
-4.3598e-11
-1.19425e-11
-3.24109e-11
-8.75955e-12
-2.01572e-11
-6.16455e-12
-7.00604e-12
-4.2215e-12
6.86728e-12
-2.97629e-12
2.12986e-11
-2.44607e-12
3.61371e-11
-2.61235e-12
5.12229e-11
-3.4219e-12
6.63504e-11
-4.79691e-12
8.12404e-11
-6.65163e-12
9.55467e-11
-8.90849e-12
1.08901e-10
-1.15066e-11
1.20975e-10
-1.44002e-11
1.31535e-10
-1.75506e-11
1.40438e-10
-2.09223e-11
1.47597e-10
-2.44862e-11
1.5293e-10
-2.8229e-11
1.56336e-10
-3.21575e-11
1.57719e-10
-3.62885e-11
1.5703e-10
-4.06287e-11
1.54294e-10
-4.51597e-11
1.49597e-10
-4.98404e-11
1.43069e-10
-5.46229e-11
1.34874e-10
-5.94652e-11
1.25234e-10
-6.43318e-11
1.14423e-10
-6.91903e-11
1.02731e-10
-7.4019e-11
9.04222e-11
-7.88162e-11
7.77281e-11
-8.35921e-11
6.48596e-11
-8.83379e-11
5.20108e-11
-9.3003e-11
3.9341e-11
-9.75008e-11
2.69886e-11
-1.01725e-10
1.51305e-11
-1.05553e-10
4.00704e-12
-1.08854e-10
-6.12958e-12
-1.11532e-10
-1.5069e-11
-1.13551e-10
-2.26336e-11
-1.14903e-10
-2.86671e-11
-1.15609e-10
-3.30937e-11
-1.15725e-10
-3.5837e-11
-1.15287e-10
-3.66424e-11
-1.14317e-10
-3.50962e-11
-1.12688e-10
-3.06156e-11
-1.09559e-10
-2.26354e-11
-1.02082e-10
-1.15006e-11
-8.33481e-11
-4.08558e-11
-2.75658e-13
-3.33554e-11
-3.63636e-13
-6.7981e-11
-2.26045e-12
-8.31373e-11
-6.17285e-12
-8.92105e-11
-1.13281e-11
-9.18356e-11
-1.73619e-11
-9.35546e-11
-2.34513e-11
-9.47579e-11
-2.95002e-11
-9.5722e-11
-3.5373e-11
-9.64246e-11
-4.09454e-11
-9.683e-11
-4.61443e-11
-9.69906e-11
-5.08047e-11
-9.70262e-11
-5.48457e-11
-9.703e-11
-5.80485e-11
-9.70958e-11
-6.03436e-11
-9.72957e-11
-6.1859e-11
-9.7699e-11
-6.26278e-11
-9.83675e-11
-6.28758e-11
-9.9319e-11
-6.27974e-11
-1.00534e-10
-6.23628e-11
-1.01976e-10
-6.1595e-11
-1.03614e-10
-6.05886e-11
-1.05428e-10
-5.93099e-11
-1.07399e-10
-5.76879e-11
-1.09478e-10
-5.5789e-11
-1.11582e-10
-5.37576e-11
-1.13607e-10
-5.17086e-11
-1.15444e-10
-4.97671e-11
-1.16989e-10
-4.81245e-11
-1.18154e-10
-4.69632e-11
-1.18885e-10
-4.63454e-11
-1.19158e-10
-4.6213e-11
-1.18964e-10
-4.64812e-11
-1.1828e-10
-4.71139e-11
-1.17067e-10
-4.81282e-11
-1.15282e-10
-4.95693e-11
-1.12897e-10
-5.14922e-11
-1.0989e-10
-5.39417e-11
-1.06235e-10
-5.69116e-11
-1.01902e-10
-6.03027e-11
-9.6879e-11
-6.39208e-11
-9.11969e-11
-6.75215e-11
-8.49474e-11
-7.08635e-11
-7.82676e-11
-7.37329e-11
-7.13092e-11
-7.59337e-11
-6.42082e-11
-7.72675e-11
-5.70704e-11
-7.75296e-11
-4.99745e-11
-7.65279e-11
-4.29854e-11
-7.41158e-11
-3.61687e-11
-7.02163e-11
-2.95997e-11
-6.48251e-11
-2.33658e-11
-5.79927e-11
-1.75628e-11
-4.98016e-11
-1.22891e-11
-4.03532e-11
-7.63878e-12
-2.97663e-11
-3.69702e-12
-1.81791e-11
-5.36015e-13
-5.74163e-12
1.78965e-12
7.39981e-12
3.24867e-12
2.11169e-11
3.83855e-12
3.52932e-11
3.58802e-12
4.97936e-11
2.55339e-12
6.44212e-11
8.08322e-13
7.88901e-11
-1.56911e-12
9.28389e-11
-4.50604e-12
1.05884e-10
-7.93636e-12
1.17691e-10
-1.1795e-11
1.2802e-10
-1.60121e-11
1.36722e-10
-2.05149e-11
1.43694e-10
-2.52407e-11
1.48837e-10
-3.01521e-11
1.52041e-10
-3.52404e-11
1.53219e-10
-4.05122e-11
1.52344e-10
-4.59641e-11
1.49462e-10
-5.1569e-11
1.44666e-10
-5.72791e-11
1.3808e-10
-6.30421e-11
1.29865e-10
-6.88107e-11
1.20238e-10
-7.45428e-11
1.09462e-10
-8.02053e-11
9.78086e-11
-8.57868e-11
8.5534e-11
-9.13033e-11
7.28857e-11
-9.67772e-11
6.01141e-11
-1.02199e-10
4.74483e-11
-1.07509e-10
3.50672e-11
-1.12608e-10
2.31249e-11
-1.17365e-10
1.1803e-11
-1.21616e-10
1.30799e-12
-1.25192e-10
-8.16459e-12
-1.27972e-10
-1.64341e-11
-1.29914e-10
-2.33472e-11
-1.31e-10
-2.87746e-11
-1.31239e-10
-3.26008e-11
-1.30704e-10
-3.47444e-11
-1.2949e-10
-3.50078e-11
-1.27684e-10
-3.3088e-11
-1.25213e-10
-2.85929e-11
-1.21181e-10
-2.10048e-11
-1.12464e-10
-1.07217e-11
-9.15409e-11
-4.47528e-11
-8.7724e-13
-3.72043e-11
-1.58924e-12
-7.59754e-11
-3.91288e-12
-9.29815e-11
-7.88231e-12
-9.9794e-11
-1.30543e-11
-1.02708e-10
-1.86414e-11
-1.04461e-10
-2.4451e-11
-1.05786e-10
-3.02019e-11
-1.068e-10
-3.57704e-11
-1.07472e-10
-4.11007e-11
-1.07803e-10
-4.61773e-11
-1.07856e-10
-5.08067e-11
-1.07719e-10
-5.4909e-11
-1.07474e-10
-5.8244e-11
-1.07219e-10
-6.07395e-11
-1.07072e-10
-6.25159e-11
-1.07151e-10
-6.35645e-11
-1.07545e-10
-6.40742e-11
-1.08294e-10
-6.42239e-11
-1.09397e-10
-6.39851e-11
-1.10832e-10
-6.33909e-11
-1.12572e-10
-6.2536e-11
-1.14596e-10
-6.13614e-11
-1.16855e-10
-5.97617e-11
-1.19269e-10
-5.7782e-11
-1.2173e-10
-5.55624e-11
-1.24121e-10
-5.32241e-11
-1.26324e-10
-5.09102e-11
-1.28218e-10
-4.88422e-11
-1.29693e-10
-4.72307e-11
-1.30666e-10
-4.61478e-11
-1.31085e-10
-4.55246e-11
-1.30925e-10
-4.52621e-11
-1.30168e-10
-4.53224e-11
-1.28796e-10
-4.57326e-11
-1.268e-10
-4.6545e-11
-1.24172e-10
-4.78125e-11
-1.20897e-10
-4.95786e-11
-1.16938e-10
-5.18553e-11
-1.12244e-10
-5.45872e-11
-1.06779e-10
-5.76367e-11
-1.00551e-10
-6.08033e-11
-9.36366e-11
-6.38609e-11
-8.61656e-11
-6.65819e-11
-7.82905e-11
-6.87417e-11
-7.01544e-11
-7.01157e-11
-6.18758e-11
-7.04849e-11
-5.3552e-11
-6.96568e-11
-4.52745e-11
-6.74935e-11
-3.71449e-11
-6.393e-11
-2.92834e-11
-5.8971e-11
-2.18266e-11
-5.26699e-11
-1.49167e-11
-4.51062e-11
-8.68734e-12
-3.63729e-11
-3.25234e-12
-2.65754e-11
1.30042e-12
-1.58334e-11
4.90991e-12
-4.27298e-12
7.5407e-12
7.98899e-12
9.18195e-12
2.08552e-11
9.84692e-12
3.42363e-11
9.57112e-12
4.80146e-11
8.40719e-12
6.19981e-11
6.41675e-12
7.58974e-11
3.66289e-12
8.93454e-11
2.07814e-13
1.01958e-10
-3.88243e-12
1.13404e-10
-8.52989e-12
1.23445e-10
-1.36417e-11
1.31921e-10
-1.91193e-11
1.38708e-10
-2.48777e-11
1.43677e-10
-3.08633e-11
1.46706e-10
-3.70543e-11
1.47713e-10
-4.34423e-11
1.46693e-10
-5.00055e-11
1.43709e-10
-5.66977e-11
1.38861e-10
-6.34554e-11
1.32269e-10
-7.02128e-11
1.24089e-10
-7.69095e-11
1.14527e-10
-8.34922e-11
1.03827e-10
-8.99246e-11
9.22362e-11
-9.62029e-11
8.00068e-11
-1.02353e-10
6.74161e-11
-1.08401e-10
5.47629e-11
-1.1433e-10
4.23159e-11
-1.20075e-10
3.0285e-11
-1.25535e-10
1.88545e-11
-1.30569e-10
8.21185e-12
-1.35e-10
-1.48727e-12
-1.38652e-10
-1.01197e-11
-1.41396e-10
-1.75328e-11
-1.43175e-10
-2.3595e-11
-1.43972e-10
-2.82347e-11
-1.43785e-10
-3.13343e-11
-1.42663e-10
-3.28164e-11
-1.40731e-10
-3.2538e-11
-1.38138e-10
-3.0288e-11
-1.34848e-10
-2.58447e-11
-1.29954e-10
-1.8804e-11
-1.20171e-10
-9.63953e-12
-9.75536e-11
-4.75828e-11
-1.6448e-12
-4.04105e-11
-3.03002e-12
-8.24582e-11
-5.78376e-12
-1.00904e-10
-9.78905e-12
-1.08303e-10
-1.48149e-11
-1.11562e-10
-2.0066e-11
-1.13308e-10
-2.55104e-11
-1.14685e-10
-3.08841e-11
-1.15723e-10
-3.61052e-11
-1.16376e-10
-4.11605e-11
-1.16674e-10
-4.60513e-11
-1.1667e-10
-5.0576e-11
-1.16417e-10
-5.46697e-11
-1.15987e-10
-5.81117e-11
-1.15499e-10
-6.08321e-11
-1.15095e-10
-6.29197e-11
-1.14915e-10
-6.43197e-11
-1.15069e-10
-6.51828e-11
-1.15622e-10
-6.56637e-11
-1.16604e-10
-6.57323e-11
-1.18009e-10
-6.54196e-11
-1.19816e-10
-6.47973e-11
-1.21986e-10
-6.37731e-11
-1.2445e-10
-6.22167e-11
-1.27105e-10
-6.01638e-11
-1.29832e-10
-5.77522e-11
-1.32514e-10
-5.51059e-11
-1.35021e-10
-5.23788e-11
-1.37212e-10
-4.98161e-11
-1.38947e-10
-4.76584e-11
-1.40107e-10
-4.60002e-11
-1.40611e-10
-4.47819e-11
-1.40417e-10
-4.39084e-11
-1.39513e-10
-4.33462e-11
-1.37911e-10
-4.31239e-11
-1.35628e-10
-4.32845e-11
-1.32679e-10
-4.38619e-11
-1.29063e-10
-4.48885e-11
-1.24746e-10
-4.63911e-11
-1.19676e-10
-4.83609e-11
-1.13807e-10
-5.07225e-11
-1.07132e-10
-5.33278e-11
-9.97048e-11
-5.59734e-11
-9.16325e-11
-5.84247e-11
-8.30529e-11
-6.04347e-11
-7.41055e-11
-6.17589e-11
-6.49173e-11
-6.21722e-11
-5.56056e-11
-6.14914e-11
-4.62922e-11
-5.95962e-11
-3.71168e-11
-5.64376e-11
-2.82423e-11
-5.20261e-11
-1.98464e-11
-4.64075e-11
-1.21042e-11
-3.96423e-11
-5.16885e-12
-3.17972e-11
8.4111e-13
-2.29502e-11
5.84589e-12
-1.31941e-11
9.80035e-12
-2.62942e-12
1.2687e-11
8.65117e-12
1.45096e-11
2.05721e-11
1.52891e-11
3.30604e-11
1.50598e-11
4.6007e-11
1.38646e-11
5.92223e-11
1.17498e-11
7.24169e-11
8.76249e-12
8.52287e-11
4.95343e-12
9.72851e-11
3.85917e-13
1.08269e-10
-4.85595e-12
1.17944e-10
-1.06675e-11
1.2614e-10
-1.69378e-11
1.32702e-10
-2.3572e-11
1.37472e-10
-3.05077e-11
1.40312e-10
-3.77107e-11
1.41154e-10
-4.51521e-11
1.40013e-10
-5.27837e-11
1.36967e-10
-6.05321e-11
1.3212e-10
-6.83107e-11
1.25586e-10
-7.60336e-11
1.17514e-10
-8.36208e-11
1.08093e-10
-9.10025e-11
9.7537e-11
-9.8134e-11
8.60675e-11
-1.05011e-10
7.39385e-11
-1.11659e-10
6.14659e-11
-1.181e-10
4.89976e-11
-1.24315e-10
3.6841e-11
-1.3025e-10
2.52416e-11
-1.35814e-10
1.44169e-11
-1.40866e-10
4.55321e-12
-1.45234e-10
-4.2417e-12
-1.48757e-10
-1.19103e-11
-1.51316e-10
-1.83415e-11
-1.52826e-10
-2.34202e-11
-1.5326e-10
-2.71105e-11
-1.52637e-10
-2.93533e-11
-1.51003e-10
-3.01015e-11
-1.48479e-10
-2.92564e-11
-1.4522e-10
-2.67095e-11
-1.41233e-10
-2.24075e-11
-1.35615e-10
-1.6091e-11
-1.2502e-10
-8.28473e-12
-1.01261e-10
-4.92929e-11
-2.43553e-12
-4.28293e-11
-4.58992e-12
-8.7401e-11
-7.80904e-12
-1.06963e-10
-1.1962e-11
-1.14674e-10
-1.65608e-11
-1.17928e-10
-2.15682e-11
-1.19777e-10
-2.66018e-11
-1.21149e-10
-3.15544e-11
-1.22145e-10
-3.64138e-11
-1.22762e-10
-4.11686e-11
-1.23024e-10
-4.58144e-11
-1.22964e-10
-5.01678e-11
-1.22631e-10
-5.42057e-11
-1.22084e-10
-5.77314e-11
-1.21447e-10
-6.06752e-11
-1.20869e-10
-6.30916e-11
-1.20496e-10
-6.48862e-11
-1.20451e-10
-6.6176e-11
-1.20831e-10
-6.70806e-11
-1.21694e-10
-6.75518e-11
-1.23043e-10
-6.76028e-11
-1.24852e-10
-6.72711e-11
-1.27073e-10
-6.64329e-11
-1.29626e-10
-6.49454e-11
-1.32404e-10
-6.28409e-11
-1.35292e-10
-6.02488e-11
-1.38175e-10
-5.72837e-11
-1.40914e-10
-5.4102e-11
-1.43345e-10
-5.09692e-11
-1.45297e-10
-4.81608e-11
-1.46616e-10
-4.58097e-11
-1.47194e-10
-4.38882e-11
-1.4697e-10
-4.23214e-11
-1.45929e-10
-4.10839e-11
-1.4409e-10
-4.01988e-11
-1.41489e-10
-3.96895e-11
-1.38162e-10
-3.95633e-11
-1.34131e-10
-3.98344e-11
-1.29386e-10
-4.05373e-11
-1.23891e-10
-4.17018e-11
-1.17611e-10
-4.33094e-11
-1.10532e-10
-4.52644e-11
-1.0269e-10
-4.73933e-11
-9.41684e-11
-4.94657e-11
-8.50809e-11
-5.12248e-11
-7.55545e-11
-5.24181e-11
-6.57195e-11
-5.28253e-11
-5.57118e-11
-5.22805e-11
-4.56834e-11
-5.06858e-11
-3.58081e-11
-4.80064e-11
-2.62796e-11
-4.42503e-11
-1.72967e-11
-3.94424e-11
-9.04349e-12
-3.36083e-11
-1.67165e-12
-2.67756e-11
4.7091e-12
-1.89864e-11
1.00299e-11
-1.03044e-11
1.42549e-11
-8.07917e-13
1.73718e-11
9.4274e-12
1.93848e-11
2.03384e-11
2.03102e-11
3.18598e-11
2.01731e-11
4.38854e-11
1.90045e-11
5.6227e-11
1.68372e-11
6.86001e-11
1.37065e-11
8.06552e-11
9.6553e-12
9.20397e-11
4.74387e-12
1.02455e-10
-9.42325e-13
1.11671e-10
-7.2956e-12
1.19501e-10
-1.42026e-11
1.2576e-10
-2.15667e-11
1.30265e-10
-2.932e-11
1.32874e-10
-3.7414e-11
1.33533e-10
-4.57949e-11
1.32279e-10
-5.43842e-11
1.29206e-10
-6.30796e-11
1.24414e-10
-7.17715e-11
1.18014e-10
-8.03541e-11
1.10142e-10
-8.8728e-11
1.00963e-10
-9.68049e-11
9.06533e-11
-1.04524e-10
7.94062e-11
-1.11868e-10
6.74826e-11
-1.18846e-10
5.52336e-11
-1.2546e-10
4.30472e-11
-1.31696e-10
3.1268e-11
-1.37522e-10
2.01855e-11
-1.42886e-10
1.00486e-11
-1.47681e-10
1.02902e-12
-1.51759e-10
-6.80315e-12
-1.54985e-10
-1.34261e-11
-1.57249e-10
-1.87847e-11
-1.58451e-10
-2.28075e-11
-1.58545e-10
-2.54742e-11
-1.57536e-10
-2.67795e-11
-1.55465e-10
-2.67191e-11
-1.52457e-10
-2.52815e-11
-1.4868e-10
-2.24547e-11
-1.44171e-10
-1.83846e-11
-1.38036e-10
-1.29528e-11
-1.2694e-10
-6.70309e-12
-1.02631e-10
-4.98854e-11
-3.28139e-12
-4.43379e-11
-6.25975e-12
-9.03764e-11
-9.84061e-12
-1.10604e-10
-1.40637e-11
-1.18608e-10
-1.84186e-11
-1.2176e-10
-2.30711e-11
-1.23593e-10
-2.76631e-11
-1.24859e-10
-3.21971e-11
-1.25727e-10
-3.66932e-11
-1.26234e-10
-4.11262e-11
-1.26401e-10
-4.55041e-11
-1.26247e-10
-4.96492e-11
-1.2582e-10
-5.36018e-11
-1.25179e-10
-5.71853e-11
-1.24435e-10
-6.03299e-11
-1.23729e-10
-6.3069e-11
-1.23208e-10
-6.52836e-11
-1.23006e-10
-6.70514e-11
-1.23242e-10
-6.84415e-11
-1.23984e-10
-6.93734e-11
-1.25237e-10
-6.98361e-11
-1.26972e-10
-6.98335e-11
-1.29142e-10
-6.92166e-11
-1.31668e-10
-6.78359e-11
-1.34453e-10
-6.57185e-11
-1.37397e-10
-6.29744e-11
-1.40389e-10
-5.96949e-11
-1.43282e-10
-5.60301e-11
-1.45898e-10
-5.22655e-11
-1.48046e-10
-4.87185e-11
-1.49549e-10
-4.55712e-11
-1.50266e-10
-4.28404e-11
-1.50102e-10
-4.04837e-11
-1.49016e-10
-3.84919e-11
-1.47013e-10
-3.68868e-11
-1.44135e-10
-3.56738e-11
-1.40437e-10
-3.48325e-11
-1.35966e-10
-3.43549e-11
-1.3075e-10
-3.42733e-11
-1.24787e-10
-3.46423e-11
-1.18066e-10
-3.54873e-11
-1.10587e-10
-3.6758e-11
-1.02375e-10
-3.83123e-11
-9.34928e-11
-3.99346e-11
-8.40341e-11
-4.13741e-11
-7.41143e-11
-4.23862e-11
-6.38683e-11
-4.27668e-11
-5.34507e-11
-4.23723e-11
-4.3037e-11
-4.11232e-11
-3.28204e-11
-3.899e-11
-2.3002e-11
-3.59659e-11
-1.37747e-11
-3.20435e-11
-5.30674e-12
-2.72064e-11
2.26925e-12
-2.14406e-11
8.85879e-12
-1.47538e-11
1.43997e-11
-7.18456e-12
1.88527e-11
1.20577e-12
2.21942e-11
1.03534e-11
2.44117e-11
2.02031e-11
2.55031e-11
3.0694e-11
2.54768e-11
4.17218e-11
2.43494e-11
5.31011e-11
2.21436e-11
6.45557e-11
1.88887e-11
7.57533e-11
1.46256e-11
8.63648e-11
9.41596e-12
9.61114e-11
3.34827e-12
1.04769e-10
-3.46709e-12
1.12134e-10
-1.09154e-11
1.17999e-10
-1.88982e-11
1.22162e-10
-2.73404e-11
1.24486e-10
-3.61769e-11
1.24939e-10
-4.53283e-11
1.23581e-10
-5.46886e-11
1.20512e-10
-6.41335e-11
1.1583e-10
-7.35381e-11
1.09639e-10
-8.27848e-11
1.02061e-10
-9.17617e-11
9.32346e-11
-1.00367e-10
8.3296e-11
-1.08525e-10
7.24138e-11
-1.16196e-10
6.08524e-11
-1.23361e-10
4.89824e-11
-1.29997e-10
3.72074e-11
-1.36081e-10
2.58974e-11
-1.41607e-10
1.53912e-11
-1.46559e-10
5.97615e-12
-1.5088e-10
-2.19041e-12
-1.5447e-10
-9.06274e-12
-1.57232e-10
-1.46264e-11
-1.5908e-10
-1.88811e-11
-1.59911e-10
-2.18047e-11
-1.59659e-10
-2.33992e-11
-1.58322e-10
-2.37229e-11
-1.55941e-10
-2.28199e-11
-1.52614e-10
-2.07895e-11
-1.48493e-10
-1.77014e-11
-1.43636e-10
-1.39394e-11
-1.37201e-10
-9.51238e-12
-1.25928e-10
-4.96594e-12
-1.01678e-10
-4.93795e-11
-4.03848e-12
-4.51049e-11
-7.93746e-12
-9.18189e-11
-1.1959e-11
-1.1216e-10
-1.60106e-11
-1.20107e-10
-2.0281e-11
-1.23266e-10
-2.44725e-11
-1.24887e-10
-2.86067e-11
-1.25905e-10
-3.27399e-11
-1.26544e-10
-3.6885e-11
-1.26832e-10
-4.09983e-11
-1.26786e-10
-4.51101e-11
-1.26438e-10
-4.90455e-11
-1.25833e-10
-5.28999e-11
-1.25037e-10
-5.65183e-11
-1.24157e-10
-5.98434e-11
-1.23315e-10
-6.28949e-11
-1.22658e-10
-6.55385e-11
-1.22321e-10
-6.78055e-11
-1.22422e-10
-6.97036e-11
-1.23028e-10
-7.11176e-11
-1.24136e-10
-7.20135e-11
-1.25719e-10
-7.23658e-11
-1.27738e-10
-7.20069e-11
-1.30125e-10
-7.07822e-11
-1.32799e-10
-6.87041e-11
-1.35676e-10
-6.58518e-11
-1.38655e-10
-6.22859e-11
-1.41599e-10
-5.81459e-11
-1.44332e-10
-5.37327e-11
-1.46659e-10
-4.93998e-11
-1.48383e-10
-4.53768e-11
-1.49326e-10
-4.1732e-11
-1.49344e-10
-3.84687e-11
-1.48347e-10
-3.56097e-11
-1.46309e-10
-3.31898e-11
-1.43259e-10
-3.12073e-11
-1.39264e-10
-2.96207e-11
-1.34401e-10
-2.83989e-11
-1.28734e-10
-2.75635e-11
-1.22304e-10
-2.7178e-11
-1.15134e-10
-2.72938e-11
-1.07244e-10
-2.78935e-11
-9.8667e-11
-2.88655e-11
-8.94606e-11
-3.00187e-11
-7.97106e-11
-3.11234e-11
-6.95315e-11
-3.19567e-11
-5.90651e-11
-3.2336e-11
-4.84782e-11
-3.21355e-11
-3.79561e-11
-3.12828e-11