/*--------------------------------*- C++ -*----------------------------------*\
| =========                 |                                                 |
| \\      /  F ield         | OpenFOAM: The Open Source CFD Toolbox           |
|  \\    /   O peration     | Version:  2406                                  |
|   \\  /    A nd           | Website:  www.openfoam.com                      |
|    \\/     M anipulation  |                                                 |
\*---------------------------------------------------------------------------*/
FoamFile
{
    version     2.0;
    format      ascii;
    arch        "LSB;label=32;scalar=64";
    class       volVectorField;
    location    "9";
    object      U;
}
// * * * * * * * * * * * * * * * * * * * * * * * * * * * * * * * * * * * * * //

dimensions      [0 1 -1 0 0 0 0];

internalField   nonuniform List<vector> 
10000
(
(2.42194e-09 -2.12795e-08 0)
(1.47796e-08 -4.42017e-08 0)
(1.44557e-08 -5.64775e-08 0)
(4.20501e-09 -6.28482e-08 0)
(-1.42467e-08 -6.61006e-08 0)
(-3.78121e-08 -6.72904e-08 0)
(-6.33317e-08 -6.82103e-08 0)
(-8.82805e-08 -6.8616e-08 0)
(-1.11749e-07 -7.03212e-08 0)
(-1.34812e-07 -7.21525e-08 0)
(-1.55727e-07 -7.34255e-08 0)
(-1.73456e-07 -7.45988e-08 0)
(-1.87758e-07 -7.60353e-08 0)
(-1.98596e-07 -7.78178e-08 0)
(-2.06245e-07 -7.99264e-08 0)
(-2.11344e-07 -8.2277e-08 0)
(-2.14573e-07 -8.47367e-08 0)
(-2.16449e-07 -8.71445e-08 0)
(-2.17469e-07 -8.92851e-08 0)
(-2.17543e-07 -9.09869e-08 0)
(-2.16312e-07 -9.22716e-08 0)
(-2.13867e-07 -9.32985e-08 0)
(-2.10462e-07 -9.41783e-08 0)
(-2.06189e-07 -9.48906e-08 0)
(-2.01288e-07 -9.53431e-08 0)
(-1.96302e-07 -9.55129e-08 0)
(-1.91885e-07 -9.55179e-08 0)
(-1.88661e-07 -9.54199e-08 0)
(-1.87026e-07 -9.50337e-08 0)
(-1.86966e-07 -9.41221e-08 0)
(-1.883e-07 -9.27477e-08 0)
(-1.91199e-07 -9.12467e-08 0)
(-1.96243e-07 -8.98208e-08 0)
(-2.03859e-07 -8.82924e-08 0)
(-2.13879e-07 -8.63248e-08 0)
(-2.25789e-07 -8.37929e-08 0)
(-2.39294e-07 -8.08643e-08 0)
(-2.5446e-07 -7.77535e-08 0)
(-2.71277e-07 -7.44838e-08 0)
(-2.89154e-07 -7.09117e-08 0)
(-3.06909e-07 -6.6945e-08 0)
(-3.23242e-07 -6.27017e-08 0)
(-3.37226e-07 -5.84564e-08 0)
(-3.48395e-07 -5.44456e-08 0)
(-3.5644e-07 -5.07323e-08 0)
(-3.60882e-07 -4.72392e-08 0)
(-3.61018e-07 -4.38837e-08 0)
(-3.56116e-07 -4.06734e-08 0)
(-3.45663e-07 -3.76968e-08 0)
(-3.29464e-07 -3.50481e-08 0)
(-3.07573e-07 -3.27589e-08 0)
(-2.80146e-07 -3.07788e-08 0)
(-2.47313e-07 -2.90068e-08 0)
(-2.09158e-07 -2.73481e-08 0)
(-1.65811e-07 -2.57625e-08 0)
(-1.17587e-07 -2.42765e-08 0)
(-6.5063e-08 -2.29548e-08 0)
(-9.05416e-09 -2.18546e-08 0)
(4.94977e-08 -2.09935e-08 0)
(1.09639e-07 -2.03482e-08 0)
(1.70459e-07 -1.98722e-08 0)
(2.31076e-07 -1.95169e-08 0)
(2.9059e-07 -1.92455e-08 0)
(3.4804e-07 -1.90463e-08 0)
(4.02421e-07 -1.89437e-08 0)
(4.52746e-07 -1.9001e-08 0)
(4.98156e-07 -1.93067e-08 0)
(5.38005e-07 -1.99528e-08 0)
(5.71868e-07 -2.10221e-08 0)
(5.99433e-07 -2.25951e-08 0)
(6.20328e-07 -2.47628e-08 0)
(6.34012e-07 -2.76165e-08 0)
(6.39824e-07 -3.12053e-08 0)
(6.37215e-07 -3.54817e-08 0)
(6.26006e-07 -4.02807e-08 0)
(6.06525e-07 -4.5364e-08 0)
(5.79522e-07 -5.05069e-08 0)
(5.45969e-07 -5.55675e-08 0)
(5.06898e-07 -6.04841e-08 0)
(4.63373e-07 -6.5216e-08 0)
(4.16514e-07 -6.96987e-08 0)
(3.67435e-07 -7.38648e-08 0)
(3.17088e-07 -7.76964e-08 0)
(2.66186e-07 -8.12306e-08 0)
(2.15306e-07 -8.45056e-08 0)
(1.65068e-07 -8.75271e-08 0)
(1.16207e-07 -9.03096e-08 0)
(6.94974e-08 -9.29254e-08 0)
(2.57268e-08 -9.54596e-08 0)
(-1.4268e-08 -9.79057e-08 0)
(-4.96545e-08 -1.00164e-07 0)
(-7.98122e-08 -1.02159e-07 0)
(-1.04423e-07 -1.03897e-07 0)
(-1.23282e-07 -1.05324e-07 0)
(-1.35935e-07 -1.06164e-07 0)
(-1.41102e-07 -1.05839e-07 0)
(-1.36143e-07 -1.02922e-07 0)
(-1.17159e-07 -9.39925e-08 0)
(-8.01634e-08 -7.35369e-08 0)
(-2.14075e-08 -3.71953e-08 0)
(7.49427e-11 -6.7522e-08 0)
(2.16549e-08 -1.38625e-07 0)
(2.26703e-08 -1.69926e-07 0)
(3.74714e-09 -1.82589e-07 0)
(-3.09159e-08 -1.88918e-07 0)
(-7.71532e-08 -1.91971e-07 0)
(-1.28463e-07 -1.94916e-07 0)
(-1.80261e-07 -1.97377e-07 0)
(-2.29903e-07 -2.01912e-07 0)
(-2.76159e-07 -2.07017e-07 0)
(-3.179e-07 -2.12034e-07 0)
(-3.54108e-07 -2.1748e-07 0)
(-3.83809e-07 -2.23686e-07 0)
(-4.06515e-07 -2.30748e-07 0)
(-4.22615e-07 -2.38444e-07 0)
(-4.33283e-07 -2.46485e-07 0)
(-4.39831e-07 -2.54586e-07 0)
(-4.43286e-07 -2.62264e-07 0)
(-4.44571e-07 -2.69011e-07 0)
(-4.43768e-07 -2.74664e-07 0)
(-4.40564e-07 -2.79405e-07 0)
(-4.35202e-07 -2.83473e-07 0)
(-4.27955e-07 -2.86907e-07 0)
(-4.18796e-07 -2.89536e-07 0)
(-4.08204e-07 -2.91242e-07 0)
(-3.9754e-07 -2.92098e-07 0)
(-3.88271e-07 -2.92212e-07 0)
(-3.81319e-07 -2.91443e-07 0)
(-3.77097e-07 -2.89427e-07 0)
(-3.75834e-07 -2.8601e-07 0)
(-3.77847e-07 -2.81532e-07 0)
(-3.83677e-07 -2.76511e-07 0)
(-3.93912e-07 -2.71098e-07 0)
(-4.08774e-07 -2.64944e-07 0)
(-4.27973e-07 -2.57615e-07 0)
(-4.5106e-07 -2.49017e-07 0)
(-4.77838e-07 -2.39412e-07 0)
(-5.08284e-07 -2.29097e-07 0)
(-5.41955e-07 -2.1818e-07 0)
(-5.77502e-07 -2.06674e-07 0)
(-6.12807e-07 -1.94738e-07 0)
(-6.45638e-07 -1.82788e-07 0)
(-6.7426e-07 -1.71336e-07 0)
(-6.97507e-07 -1.60751e-07 0)
(-7.14416e-07 -1.51136e-07 0)
(-7.2386e-07 -1.42421e-07 0)
(-7.24495e-07 -1.34539e-07 0)
(-7.15018e-07 -1.27531e-07 0)
(-6.94474e-07 -1.21503e-07 0)
(-6.62409e-07 -1.16523e-07 0)
(-6.18786e-07 -1.12532e-07 0)
(-5.63785e-07 -1.09341e-07 0)
(-4.97619e-07 -1.0669e-07 0)
(-4.20515e-07 -1.04346e-07 0)
(-3.32862e-07 -1.02177e-07 0)
(-2.35402e-07 -1.00158e-07 0)
(-1.29344e-07 -9.83345e-08 0)
(-1.62931e-08 -9.67563e-08 0)
(1.01918e-07 -9.54359e-08 0)
(2.23418e-07 -9.43305e-08 0)
(3.46391e-07 -9.33415e-08 0)
(4.69046e-07 -9.23262e-08 0)
(5.89524e-07 -9.11322e-08 0)
(7.05812e-07 -8.96628e-08 0)
(8.15778e-07 -8.79496e-08 0)
(9.17339e-07 -8.6186e-08 0)
(1.00871e-06 -8.46925e-08 0)
(1.08859e-06 -8.38285e-08 0)
(1.15616e-06 -8.39122e-08 0)
(1.21079e-06 -8.51945e-08 0)
(1.25174e-06 -8.78848e-08 0)
(1.27792e-06 -9.21704e-08 0)
(1.28814e-06 -9.8178e-08 0)
(1.2815e-06 -1.05887e-07 0)
(1.25785e-06 -1.15073e-07 0)
(1.21794e-06 -1.25353e-07 0)
(1.16318e-06 -1.36339e-07 0)
(1.09538e-06 -1.47768e-07 0)
(1.01651e-06 -1.59501e-07 0)
(9.28742e-07 -1.71412e-07 0)
(8.34376e-07 -1.83288e-07 0)
(7.35616e-07 -1.94891e-07 0)
(6.34269e-07 -2.06075e-07 0)
(5.31712e-07 -2.16828e-07 0)
(4.29143e-07 -2.27184e-07 0)
(3.27842e-07 -2.37176e-07 0)
(2.29205e-07 -2.46916e-07 0)
(1.34718e-07 -2.56635e-07 0)
(4.60682e-08 -2.66525e-07 0)
(-3.4826e-08 -2.76504e-07 0)
(-1.06203e-07 -2.86227e-07 0)
(-1.66933e-07 -2.95335e-07 0)
(-2.16411e-07 -3.03606e-07 0)
(-2.53957e-07 -3.10899e-07 0)
(-2.78308e-07 -3.1691e-07 0)
(-2.86502e-07 -3.20668e-07 0)
(-2.72552e-07 -3.18697e-07 0)
(-2.28619e-07 -3.01173e-07 0)
(-1.49275e-07 -2.47823e-07 0)
(-3.61071e-08 -1.24804e-07 0)
(-7.25431e-10 -1.13687e-07 0)
(2.3302e-08 -2.34175e-07 0)
(2.50172e-08 -2.86033e-07 0)
(1.15882e-09 -3.05202e-07 0)
(-4.15189e-08 -3.14529e-07 0)
(-9.66033e-08 -3.20792e-07 0)
(-1.57933e-07 -3.26139e-07 0)
(-2.20677e-07 -3.31714e-07 0)
(-2.81535e-07 -3.37789e-07 0)
(-3.38042e-07 -3.44168e-07 0)
(-3.89171e-07 -3.51109e-07 0)
(-4.33768e-07 -3.59088e-07 0)
(-4.70586e-07 -3.68053e-07 0)
(-4.98914e-07 -3.78142e-07 0)
(-5.19017e-07 -3.89301e-07 0)
(-5.3229e-07 -4.01203e-07 0)
(-5.4013e-07 -4.1321e-07 0)
(-5.43594e-07 -4.24484e-07 0)
(-5.44036e-07 -4.3459e-07 0)
(-5.42072e-07 -4.43568e-07 0)
(-5.37519e-07 -4.51502e-07 0)
(-5.30385e-07 -4.58375e-07 0)
(-5.20726e-07 -4.6421e-07 0)
(-5.08665e-07 -4.69014e-07 0)
(-4.95097e-07 -4.72783e-07 0)
(-4.81578e-07 -4.75468e-07 0)
(-4.69459e-07 -4.76851e-07 0)
(-4.5965e-07 -4.76538e-07 0)
(-4.52971e-07 -4.74229e-07 0)
(-4.50219e-07 -4.70024e-07 0)
(-4.51923e-07 -4.6435e-07 0)
(-4.58381e-07 -4.57549e-07 0)
(-4.6986e-07 -4.49551e-07 0)
(-4.86548e-07 -4.39987e-07 0)
(-5.08374e-07 -4.28552e-07 0)
(-5.3507e-07 -4.15206e-07 0)
(-5.66419e-07 -4.00068e-07 0)
(-6.02241e-07 -3.83248e-07 0)
(-6.4196e-07 -3.64865e-07 0)
(-6.84133e-07 -3.4522e-07 0)
(-7.26474e-07 -3.24892e-07 0)
(-7.66405e-07 -3.0461e-07 0)
(-8.01688e-07 -2.8502e-07 0)
(-8.30654e-07 -2.66506e-07 0)
(-8.5196e-07 -2.49207e-07 0)
(-8.64226e-07 -2.33167e-07 0)
(-8.65915e-07 -2.18467e-07 0)
(-8.55519e-07 -2.05265e-07 0)
(-8.31856e-07 -1.93702e-07 0)
(-7.94252e-07 -1.83796e-07 0)
(-7.42519e-07 -1.75385e-07 0)
(-6.7678e-07 -1.68171e-07 0)
(-5.97301e-07 -1.61835e-07 0)
(-5.04449e-07 -1.56144e-07 0)
(-3.98813e-07 -1.51011e-07 0)
(-2.81377e-07 -1.46472e-07 0)
(-1.53621e-07 -1.42638e-07 0)
(-1.74651e-08 -1.39625e-07 0)
(1.24925e-07 -1.37504e-07 0)
(2.7135e-07 -1.36252e-07 0)
(4.19685e-07 -1.35714e-07 0)
(5.67818e-07 -1.35614e-07 0)
(7.1349e-07 -1.35625e-07 0)
(8.54172e-07 -1.35493e-07 0)
(9.87123e-07 -1.35166e-07 0)
(1.10966e-06 -1.34844e-07 0)
(1.21953e-06 -1.34921e-07 0)
(1.31517e-06 -1.35866e-07 0)
(1.39561e-06 -1.38117e-07 0)
(1.46015e-06 -1.42042e-07 0)
(1.50791e-06 -1.47961e-07 0)
(1.53765e-06 -1.56145e-07 0)
(1.54807e-06 -1.66751e-07 0)
(1.5383e-06 -1.79723e-07 0)
(1.50835e-06 -1.94743e-07 0)
(1.45916e-06 -2.11333e-07 0)
(1.39238e-06 -2.29045e-07 0)
(1.31005e-06 -2.47579e-07 0)
(1.21451e-06 -2.66735e-07 0)
(1.10844e-06 -2.86268e-07 0)
(9.94664e-07 -3.05835e-07 0)
(8.75765e-07 -3.25105e-07 0)
(7.53798e-07 -3.43888e-07 0)
(6.30359e-07 -3.62107e-07 0)
(5.06886e-07 -3.79694e-07 0)
(3.84858e-07 -3.96623e-07 0)
(2.65829e-07 -4.13028e-07 0)
(1.51581e-07 -4.29153e-07 0)
(4.43673e-08 -4.45085e-07 0)
(-5.32322e-08 -4.60611e-07 0)
(-1.38973e-07 -4.75362e-07 0)
(-2.11501e-07 -4.88924e-07 0)
(-2.70154e-07 -5.00861e-07 0)
(-3.14193e-07 -5.10948e-07 0)
(-3.42021e-07 -5.19036e-07 0)
(-3.49926e-07 -5.2378e-07 0)
(-3.30634e-07 -5.19973e-07 0)
(-2.75105e-07 -4.92144e-07 0)
(-1.78888e-07 -4.06066e-07 0)
(-4.62576e-08 -2.02045e-07 0)
(-2.66104e-09 -1.62745e-07 0)
(2.05993e-08 -3.34221e-07 0)
(2.25444e-08 -4.09004e-07 0)
(-3.32194e-09 -4.36937e-07 0)
(-4.97539e-08 -4.49108e-07 0)
(-1.07976e-07 -4.57791e-07 0)
(-1.72631e-07 -4.65497e-07 0)
(-2.38878e-07 -4.73326e-07 0)
(-3.02655e-07 -4.80506e-07 0)
(-3.62438e-07 -4.87443e-07 0)
(-4.17306e-07 -4.94749e-07 0)
(-4.65478e-07 -5.0287e-07 0)
(-5.05409e-07 -5.12063e-07 0)
(-5.36555e-07 -5.2275e-07 0)
(-5.58993e-07 -5.34926e-07 0)
(-5.73616e-07 -5.4815e-07 0)
(-5.8157e-07 -5.6171e-07 0)
(-5.84373e-07 -5.7481e-07 0)
(-5.84009e-07 -5.87115e-07 0)
(-5.81095e-07 -5.9858e-07 0)
(-5.75199e-07 -6.09049e-07 0)
(-5.66522e-07 -6.18418e-07 0)
(-5.55438e-07 -6.26898e-07 0)
(-5.41978e-07 -6.34666e-07 0)
(-5.26735e-07 -6.41524e-07 0)
(-5.1114e-07 -6.47051e-07 0)
(-4.96654e-07 -6.5085e-07 0)
(-4.84403e-07 -6.52589e-07 0)
(-4.75451e-07 -6.52016e-07 0)
(-4.70798e-07 -6.49086e-07 0)
(-4.71032e-07 -6.43988e-07 0)
(-4.76328e-07 -6.3694e-07 0)
(-4.86767e-07 -6.27933e-07 0)
(-5.02459e-07 -6.16688e-07 0)
(-5.23385e-07 -6.02827e-07 0)
(-5.49353e-07 -5.86059e-07 0)
(-5.80191e-07 -5.66255e-07 0)
(-6.15816e-07 -5.43455e-07 0)
(-6.5585e-07 -5.17926e-07 0)
(-6.99053e-07 -4.9022e-07 0)
(-7.43175e-07 -4.61131e-07 0)
(-7.85445e-07 -4.3153e-07 0)
(-8.23308e-07 -4.02174e-07 0)
(-8.54799e-07 -3.73595e-07 0)
(-8.78389e-07 -3.46135e-07 0)
(-8.92617e-07 -3.20053e-07 0)
(-8.95896e-07 -2.95619e-07 0)
(-8.86614e-07 -2.73094e-07 0)
(-8.63408e-07 -2.52642e-07 0)
(-8.25393e-07 -2.34246e-07 0)
(-7.7223e-07 -2.17714e-07 0)
(-7.04009e-07 -2.02769e-07 0)
(-6.21082e-07 -1.8918e-07 0)
(-5.23973e-07 -1.7685e-07 0)
(-4.13434e-07 -1.65854e-07 0)
(-2.90596e-07 -1.56406e-07 0)
(-1.57057e-07 -1.48797e-07 0)
(-1.48182e-08 -1.43312e-07 0)
(1.33926e-07 -1.40132e-07 0)
(2.87012e-07 -1.39242e-07 0)
(4.42371e-07 -1.40387e-07 0)
(5.979e-07 -1.43097e-07 0)
(7.51219e-07 -1.4682e-07 0)
(8.99514e-07 -1.51095e-07 0)
(1.03965e-06 -1.55706e-07 0)
(1.16857e-06 -1.60734e-07 0)
(1.28374e-06 -1.66488e-07 0)
(1.38345e-06 -1.7338e-07 0)
(1.46673e-06 -1.81822e-07 0)
(1.53288e-06 -1.92192e-07 0)
(1.58101e-06 -2.04842e-07 0)
(1.60992e-06 -2.20074e-07 0)
(1.61844e-06 -2.38041e-07 0)
(1.60588e-06 -2.58636e-07 0)
(1.57246e-06 -2.81472e-07 0)
(1.51923e-06 -3.0603e-07 0)
(1.44782e-06 -3.31849e-07 0)
(1.36026e-06 -3.58608e-07 0)
(1.25905e-06 -3.86043e-07 0)
(1.14706e-06 -4.13824e-07 0)
(1.02727e-06 -4.41572e-07 0)
(9.02304e-07 -4.68993e-07 0)
(7.74227e-07 -4.9591e-07 0)
(6.44708e-07 -5.2216e-07 0)
(5.15261e-07 -5.475e-07 0)
(3.87337e-07 -5.71726e-07 0)
(2.62456e-07 -5.94789e-07 0)
(1.42559e-07 -6.16662e-07 0)
(3.02169e-08 -6.37119e-07 0)
(-7.17537e-08 -6.55816e-07 0)
(-1.60975e-07 -6.72529e-07 0)
(-2.3588e-07 -6.8705e-07 0)
(-2.95731e-07 -6.98993e-07 0)
(-3.39907e-07 -7.08175e-07 0)
(-3.66668e-07 -7.14576e-07 0)
(-3.72095e-07 -7.1662e-07 0)
(-3.48978e-07 -7.07631e-07 0)
(-2.88568e-07 -6.67358e-07 0)
(-1.87431e-07 -5.49343e-07 0)
(-5.05089e-08 -2.71392e-07 0)
(-4.66539e-09 -2.13786e-07 0)
(1.53063e-08 -4.36819e-07 0)
(1.56362e-08 -5.35058e-07 0)
(-1.10695e-08 -5.73248e-07 0)
(-5.9004e-08 -5.89374e-07 0)
(-1.18129e-07 -5.99862e-07 0)
(-1.82832e-07 -6.09864e-07 0)
(-2.48744e-07 -6.18599e-07 0)
(-3.12474e-07 -6.25901e-07 0)
(-3.72819e-07 -6.32481e-07 0)
(-4.28557e-07 -6.38805e-07 0)
(-4.78016e-07 -6.45324e-07 0)
(-5.19836e-07 -6.52748e-07 0)
(-5.53027e-07 -6.61849e-07 0)
(-5.77038e-07 -6.72669e-07 0)
(-5.92649e-07 -6.84821e-07 0)
(-6.01004e-07 -6.97879e-07 0)
(-6.03621e-07 -7.11248e-07 0)
(-6.02652e-07 -7.24508e-07 0)
(-5.98899e-07 -7.37436e-07 0)
(-5.92104e-07 -7.49893e-07 0)
(-5.82652e-07 -7.61876e-07 0)
(-5.70905e-07 -7.73511e-07 0)
(-5.56604e-07 -7.84752e-07 0)
(-5.40093e-07 -7.95246e-07 0)
(-5.22811e-07 -8.04502e-07 0)
(-5.06298e-07 -8.12046e-07 0)
(-4.91687e-07 -8.17367e-07 0)
(-4.80131e-07 -8.19956e-07 0)
(-4.72872e-07 -8.19556e-07 0)
(-4.70712e-07 -8.16281e-07 0)
(-4.73793e-07 -8.10381e-07 0)
(-4.81954e-07 -8.01856e-07 0)
(-4.95049e-07 -7.90314e-07 0)
(-5.12974e-07 -7.75169e-07 0)
(-5.3565e-07 -7.55924e-07 0)
(-5.63148e-07 -7.32348e-07 0)
(-5.95669e-07 -7.04484e-07 0)
(-6.33112e-07 -6.72634e-07 0)
(-6.7446e-07 -6.37358e-07 0)
(-7.17582e-07 -5.99449e-07 0)
(-7.59681e-07 -5.5985e-07 0)
(-7.98054e-07 -5.19499e-07 0)
(-8.30543e-07 -4.79212e-07 0)
(-8.55481e-07 -4.39647e-07 0)
(-8.71341e-07 -4.01339e-07 0)
(-8.76481e-07 -3.64736e-07 0)
(-8.69172e-07 -3.30174e-07 0)
(-8.47866e-07 -2.97841e-07 0)
(-8.11498e-07 -2.67761e-07 0)
(-7.59628e-07 -2.39852e-07 0)
(-6.92368e-07 -2.14025e-07 0)
(-6.10188e-07 -1.90278e-07 0)
(-5.13782e-07 -1.68768e-07 0)
(-4.04071e-07 -1.49819e-07 0)
(-2.82306e-07 -1.33893e-07 0)
(-1.50128e-07 -1.21502e-07 0)
(-9.47263e-09 -1.13092e-07 0)
(1.37646e-07 -1.0891e-07 0)
(2.89319e-07 -1.08903e-07 0)
(4.43729e-07 -1.12681e-07 0)
(5.98927e-07 -1.19589e-07 0)
(7.52507e-07 -1.28875e-07 0)
(9.01454e-07 -1.39886e-07 0)
(1.04233e-06 -1.5222e-07 0)
(1.17176e-06 -1.65758e-07 0)
(1.28702e-06 -1.80593e-07 0)
(1.38633e-06 -1.96917e-07 0)
(1.46869e-06 -2.14947e-07 0)
(1.53339e-06 -2.34929e-07 0)
(1.57958e-06 -2.57148e-07 0)
(1.60613e-06 -2.8188e-07 0)
(1.61207e-06 -3.09255e-07 0)
(1.59699e-06 -3.39132e-07 0)
(1.56129e-06 -3.71103e-07 0)
(1.50606e-06 -4.04656e-07 0)
(1.43285e-06 -4.39353e-07 0)
(1.34365e-06 -4.74864e-07 0)
(1.24098e-06 -5.1088e-07 0)
(1.12776e-06 -5.47061e-07 0)
(1.00696e-06 -5.83114e-07 0)
(8.81106e-07 -6.18873e-07 0)
(7.52278e-07 -6.54205e-07 0)
(6.22256e-07 -6.88821e-07 0)
(4.92631e-07 -7.22243e-07 0)
(3.64801e-07 -7.53973e-07 0)
(2.40262e-07 -7.83586e-07 0)
(1.21086e-07 -8.10597e-07 0)
(9.95554e-09 -8.34436e-07 0)
(-9.04378e-08 -8.54679e-07 0)
(-1.77856e-07 -8.71203e-07 0)
(-2.50617e-07 -8.84012e-07 0)
(-3.07836e-07 -8.92997e-07 0)
(-3.49014e-07 -8.98083e-07 0)
(-3.72416e-07 -8.99315e-07 0)
(-3.74256e-07 -8.95271e-07 0)
(-3.48043e-07 -8.78302e-07 0)
(-2.85879e-07 -8.24272e-07 0)
(-1.85387e-07 -6.76334e-07 0)
(-5.13646e-08 -3.32795e-07 0)
(-6.40088e-09 -2.6408e-07 0)
(8.45273e-09 -5.38261e-07 0)
(4.95517e-09 -6.59238e-07 0)
(-2.28726e-08 -7.07768e-07 0)
(-7.04579e-08 -7.285e-07 0)
(-1.29461e-07 -7.41115e-07 0)
(-1.93226e-07 -7.52352e-07 0)
(-2.56926e-07 -7.61565e-07 0)
(-3.18991e-07 -7.68836e-07 0)
(-3.78429e-07 -7.74487e-07 0)
(-4.33892e-07 -7.78906e-07 0)
(-4.83741e-07 -7.82923e-07 0)
(-5.26725e-07 -7.87466e-07 0)
(-5.61629e-07 -7.93478e-07 0)
(-5.87381e-07 -8.01268e-07 0)
(-6.04426e-07 -8.10763e-07 0)
(-6.13723e-07 -8.21818e-07 0)
(-6.1681e-07 -8.34069e-07 0)
(-6.1605e-07 -8.47239e-07 0)
(-6.12341e-07 -8.61107e-07 0)
(-6.05473e-07 -8.75409e-07 0)
(-5.95916e-07 -8.90006e-07 0)
(-5.8401e-07 -9.04882e-07 0)
(-5.69311e-07 -9.19874e-07 0)
(-5.51971e-07 -9.34536e-07 0)
(-5.33317e-07 -9.48234e-07 0)
(-5.14808e-07 -9.6023e-07 0)
(-4.97546e-07 -9.69721e-07 0)
(-4.82855e-07 -9.76002e-07 0)
(-4.72355e-07 -9.78732e-07 0)
(-4.67142e-07 -9.77987e-07 0)
(-4.67284e-07 -9.73951e-07 0)
(-4.72239e-07 -9.66503e-07 0)
(-4.81539e-07 -9.55115e-07 0)
(-4.95052e-07 -9.39111e-07 0)
(-5.1292e-07 -9.17983e-07 0)
(-5.35499e-07 -8.91496e-07 0)
(-5.6324e-07 -8.59624e-07 0)
(-5.96277e-07 -8.22496e-07 0)
(-6.33849e-07 -7.80459e-07 0)
(-6.74053e-07 -7.34172e-07 0)
(-7.14229e-07 -6.84609e-07 0)
(-7.51681e-07 -6.32931e-07 0)
(-7.84162e-07 -5.80303e-07 0)
(-8.09864e-07 -5.27737e-07 0)
(-8.27109e-07 -4.7603e-07 0)
(-8.34088e-07 -4.25767e-07 0)
(-8.28903e-07 -3.77357e-07 0)
(-8.09858e-07 -3.31076e-07 0)
(-7.75797e-07 -2.87129e-07 0)
(-7.26268e-07 -2.45712e-07 0)
(-6.61454e-07 -2.07077e-07 0)
(-5.81959e-07 -1.7158e-07 0)
(-4.88634e-07 -1.39704e-07 0)
(-3.82538e-07 -1.12047e-07 0)
(-2.64992e-07 -8.92759e-08 0)
(-1.37594e-07 -7.20316e-08 0)
(-2.10323e-09 -6.08098e-08 0)
(1.39763e-07 -5.58339e-08 0)
(2.86454e-07 -5.69681e-08 0)
(4.36479e-07 -6.37127e-08 0)
(5.88079e-07 -7.53005e-08 0)
(7.38853e-07 -9.08726e-08 0)
(8.85616e-07 -1.09662e-07 0)
(1.02467e-06 -1.3111e-07 0)
(1.15243e-06 -1.54867e-07 0)
(1.26601e-06 -1.80715e-07 0)
(1.36358e-06 -2.08497e-07 0)
(1.44409e-06 -2.38104e-07 0)
(1.50675e-06 -2.69541e-07 0)
(1.55066e-06 -3.02957e-07 0)
(1.57476e-06 -3.38566e-07 0)
(1.57826e-06 -3.76464e-07 0)
(1.56102e-06 -4.16489e-07 0)
(1.52363e-06 -4.5824e-07 0)
(1.46717e-06 -5.01234e-07 0)
(1.39312e-06 -5.45058e-07 0)
(1.30341e-06 -5.89372e-07 0)
(1.20055e-06 -6.33853e-07 0)
(1.08743e-06 -6.78231e-07 0)
(9.66868e-07 -7.22386e-07 0)
(8.41356e-07 -7.66333e-07 0)
(7.13099e-07 -8.09971e-07 0)
(5.8413e-07 -8.52862e-07 0)
(4.56195e-07 -8.94258e-07 0)
(3.30718e-07 -9.33283e-07 0)
(2.09224e-07 -9.68976e-07 0)
(9.38129e-08 -1.00031e-06 0)
(-1.29941e-08 -1.02644e-06 0)
(-1.08819e-07 -1.04697e-06 0)
(-1.91673e-07 -1.06183e-06 0)
(-2.59889e-07 -1.07117e-06 0)
(-3.12396e-07 -1.07531e-06 0)
(-3.48607e-07 -1.07441e-06 0)
(-3.67071e-07 -1.06858e-06 0)
(-3.64542e-07 -1.05657e-06 0)
(-3.35705e-07 -1.03011e-06 0)
(-2.73869e-07 -9.61979e-07 0)
(-1.77326e-07 -7.86655e-07 0)
(-5.03806e-08 -3.85925e-07 0)
(-7.97471e-09 -3.11702e-07 0)
(3.31145e-10 -6.35225e-07 0)
(-8.57827e-09 -7.77409e-07 0)
(-3.83595e-08 -8.34662e-07 0)
(-8.52614e-08 -8.5947e-07 0)
(-1.42515e-07 -8.75039e-07 0)
(-2.03915e-07 -8.8683e-07 0)
(-2.65095e-07 -8.96281e-07 0)
(-3.24897e-07 -9.03402e-07 0)
(-3.82318e-07 -9.08002e-07 0)
(-4.36442e-07 -9.10434e-07 0)
(-4.86051e-07 -9.11825e-07 0)
(-5.29879e-07 -9.13236e-07 0)
(-5.66318e-07 -9.15659e-07 0)
(-5.93809e-07 -9.19624e-07 0)
(-6.12678e-07 -9.25514e-07 0)
(-6.23779e-07 -9.3369e-07 0)
(-6.285e-07 -9.44174e-07 0)
(-6.29134e-07 -9.56764e-07 0)
(-6.26497e-07 -9.71138e-07 0)
(-6.20416e-07 -9.86942e-07 0)
(-6.11527e-07 -1.00397e-06 0)
(-6.00171e-07 -1.02212e-06 0)
(-5.85659e-07 -1.04104e-06 0)
(-5.67862e-07 -1.06006e-06 0)
(-5.47927e-07 -1.07826e-06 0)
(-5.27222e-07 -1.09464e-06 0)
(-5.06913e-07 -1.10823e-06 0)
(-4.88612e-07 -1.11819e-06 0)
(-4.74341e-07 -1.12409e-06 0)
(-4.65423e-07 -1.12585e-06 0)
(-4.61804e-07 -1.12346e-06 0)
(-4.62612e-07 -1.11669e-06 0)
(-4.67148e-07 -1.10506e-06 0)
(-4.75323e-07 -1.08802e-06 0)
(-4.87494e-07 -1.06518e-06 0)
(-5.04209e-07 -1.0363e-06 0)
(-5.26037e-07 -1.00121e-06 0)
(-5.53251e-07 -9.59759e-07 0)
(-5.85367e-07 -9.11966e-07 0)
(-6.20879e-07 -8.5827e-07 0)
(-6.57497e-07 -7.99626e-07 0)
(-6.92711e-07 -7.37381e-07 0)
(-7.24226e-07 -6.72987e-07 0)
(-7.50016e-07 -6.07729e-07 0)
(-7.68133e-07 -5.42593e-07 0)
(-7.76544e-07 -4.78289e-07 0)
(-7.73211e-07 -4.1536e-07 0)
(-7.56381e-07 -3.54303e-07 0)
(-7.2491e-07 -2.95655e-07 0)
(-6.78407e-07 -2.4004e-07 0)
(-6.17148e-07 -1.88169e-07 0)
(-5.41834e-07 -1.4082e-07 0)
(-4.53399e-07 -9.88024e-08 0)
(-3.52945e-07 -6.29197e-08 0)
(-2.41761e-07 -3.39167e-08 0)
(-1.21315e-07 -1.24112e-08 0)
(6.87916e-09 1.192e-09 0)
(1.41441e-07 6.78612e-09 0)
(2.81188e-07 4.61005e-09 0)
(4.24941e-07 -4.7762e-09 0)
(5.71113e-07 -2.05969e-08 0)
(7.17303e-07 -4.20129e-08 0)
(8.60202e-07 -6.82543e-08 0)
(9.95952e-07 -9.86718e-08 0)
(1.12084e-06 -1.32699e-07 0)
(1.23195e-06 -1.69781e-07 0)
(1.32738e-06 -2.09364e-07 0)
(1.40598e-06 -2.50976e-07 0)
(1.46679e-06 -2.94356e-07 0)
(1.50874e-06 -3.39493e-07 0)
(1.53077e-06 -3.86511e-07 0)
(1.53227e-06 -4.35443e-07 0)
(1.51334e-06 -4.86074e-07 0)
(1.47471e-06 -5.37978e-07 0)
(1.41748e-06 -5.9067e-07 0)
(1.34305e-06 -6.43717e-07 0)
(1.25333e-06 -6.9674e-07 0)
(1.15073e-06 -7.49418e-07 0)
(1.03801e-06 -8.01588e-07 0)
(9.17801e-07 -8.53335e-07 0)
(7.92633e-07 -9.04829e-07 0)
(6.65018e-07 -9.55983e-07 0)
(5.37386e-07 -1.00623e-06 0)
(4.11766e-07 -1.05463e-06 0)
(2.89769e-07 -1.09996e-06 0)
(1.7304e-07 -1.14075e-06 0)
(6.35302e-08 -1.17547e-06 0)
(-3.67225e-08 -1.20301e-06 0)
(-1.2581e-07 -1.22298e-06 0)
(-2.02028e-07 -1.23528e-06 0)
(-2.63955e-07 -1.24007e-06 0)
(-3.10424e-07 -1.23803e-06 0)
(-3.40582e-07 -1.22979e-06 0)
(-3.53173e-07 -1.21592e-06 0)
(-3.45799e-07 -1.19541e-06 0)
(-3.147e-07 -1.15949e-06 0)
(-2.54572e-07 -1.07814e-06 0)
(-1.6441e-07 -8.78764e-07 0)
(-4.79375e-08 -4.29924e-07 0)
(-1.00175e-08 -3.54035e-07 0)
(-9.32172e-09 -7.22563e-07 0)
(-2.3641e-08 -8.84117e-07 0)
(-5.58231e-08 -9.48872e-07 0)
(-1.02785e-07 -9.7683e-07 0)
(-1.57709e-07 -9.94209e-07 0)
(-2.1543e-07 -1.00694e-06 0)
(-2.73524e-07 -1.01685e-06 0)
(-3.30286e-07 -1.0237e-06 0)
(-3.84926e-07 -1.02732e-06 0)
(-4.37176e-07 -1.02828e-06 0)
(-4.86007e-07 -1.02763e-06 0)
(-5.30012e-07 -1.02628e-06 0)
(-5.6745e-07 -1.02519e-06 0)
(-5.96644e-07 -1.02533e-06 0)
(-6.17875e-07 -1.02764e-06 0)
(-6.3174e-07 -1.0329e-06 0)
(-6.39216e-07 -1.04139e-06 0)
(-6.4232e-07 -1.05301e-06 0)
(-6.41799e-07 -1.06746e-06 0)
(-6.37567e-07 -1.08444e-06 0)
(-6.30333e-07 -1.10373e-06 0)
(-6.20309e-07 -1.12501e-06 0)
(-6.06478e-07 -1.14762e-06 0)
(-5.88417e-07 -1.17061e-06 0)
(-5.67144e-07 -1.19284e-06 0)
(-5.44032e-07 -1.21317e-06 0)
(-5.20363e-07 -1.23047e-06 0)
(-4.98007e-07 -1.24379e-06 0)
(-4.79312e-07 -1.25243e-06 0)
(-4.65812e-07 -1.25604e-06 0)
(-4.57437e-07 -1.25444e-06 0)
(-4.53155e-07 -1.24741e-06 0)
(-4.52172e-07 -1.23466e-06 0)
(-4.54452e-07 -1.21593e-06 0)
(-4.60453e-07 -1.19101e-06 0)
(-4.70747e-07 -1.15971e-06 0)
(-4.85857e-07 -1.12169e-06 0)
(-5.06121e-07 -1.07653e-06 0)
(-5.31373e-07 -1.02395e-06 0)
(-5.60643e-07 -9.64157e-07 0)
(-5.92185e-07 -8.97999e-07 0)
(-6.23803e-07 -8.26841e-07 0)
(-6.53194e-07 -7.52239e-07 0)
(-6.78092e-07 -6.75616e-07 0)
(-6.96247e-07 -5.98105e-07 0)
(-7.05411e-07 -5.20582e-07 0)
(-7.03473e-07 -4.43818e-07 0)
(-6.88734e-07 -3.68635e-07 0)
(-6.60166e-07 -2.96009e-07 0)
(-6.17492e-07 -2.27066e-07 0)
(-5.61052e-07 -1.63014e-07 0)
(-4.91546e-07 -1.05037e-07 0)
(-4.09849e-07 -5.42006e-08 0)
(-3.16952e-07 -1.13936e-08 0)
(-2.13987e-07 2.27011e-08 0)
(-1.02209e-07 4.76249e-08 0)
(1.71397e-08 6.31668e-08 0)
(1.42989e-07 6.93868e-08 0)
(2.74457e-07 6.66173e-08 0)
(4.10599e-07 5.54151e-08 0)
(5.49937e-07 3.64686e-08 0)
(6.90069e-07 1.04936e-08 0)
(8.27622e-07 -2.18257e-08 0)
(9.58702e-07 -5.98172e-08 0)
(1.07962e-06 -1.02751e-07 0)
(1.1875e-06 -1.49791e-07 0)
(1.2804e-06 -2.00057e-07 0)
(1.357e-06 -2.52788e-07 0)
(1.41605e-06 -3.07511e-07 0)
(1.45625e-06 -3.64076e-07 0)
(1.47652e-06 -4.22478e-07 0)
(1.4764e-06 -4.82611e-07 0)
(1.45621e-06 -5.44125e-07 0)
(1.41681e-06 -6.06482e-07 0)
(1.3593e-06 -6.69108e-07 0)
(1.28504e-06 -7.31479e-07 0)
(1.19585e-06 -7.93128e-07 0)
(1.09401e-06 -8.53721e-07 0)
(9.81996e-07 -9.13197e-07 0)
(8.62301e-07 -9.71786e-07 0)
(7.37571e-07 -1.02974e-06 0)
(6.10743e-07 -1.08693e-06 0)
(4.84712e-07 -1.14273e-06 0)
(3.61873e-07 -1.19608e-06 0)
(2.44168e-07 -1.24559e-06 0)
(1.33443e-07 -1.28952e-06 0)
(3.14105e-08 -1.32606e-06 0)
(-6.05523e-08 -1.35399e-06 0)
(-1.41068e-07 -1.37277e-06 0)
(-2.08698e-07 -1.38225e-06 0)
(-2.62398e-07 -1.38247e-06 0)
(-3.01265e-07 -1.37409e-06 0)
(-3.24415e-07 -1.35821e-06 0)
(-3.3082e-07 -1.33606e-06 0)
(-3.18775e-07 -1.30707e-06 0)
(-2.85932e-07 -1.26218e-06 0)
(-2.28607e-07 -1.16915e-06 0)
(-1.46941e-07 -9.50178e-07 0)
(-4.40938e-08 -4.63705e-07 0)
(-1.2762e-08 -3.89496e-07 0)
(-2.10261e-08 -7.95498e-07 0)
(-4.09659e-08 -9.73678e-07 0)
(-7.54073e-08 -1.0451e-06 0)
(-1.21586e-07 -1.07615e-06 0)
(-1.73818e-07 -1.09386e-06 0)
(-2.27892e-07 -1.10742e-06 0)
(-2.82191e-07 -1.11774e-06 0)
(-3.3527e-07 -1.1244e-06 0)
(-3.86743e-07 -1.12752e-06 0)
(-4.36654e-07 -1.12769e-06 0)
(-4.84008e-07 -1.12563e-06 0)
(-5.27426e-07 -1.12211e-06 0)
(-5.65357e-07 -1.11822e-06 0)
(-5.96239e-07 -1.11528e-06 0)
(-6.20217e-07 -1.11463e-06 0)
(-6.37479e-07 -1.11727e-06 0)
(-6.48545e-07 -1.12374e-06 0)
(-6.55109e-07 -1.13418e-06 0)
(-6.578e-07 -1.14844e-06 0)
(-6.56538e-07 -1.16629e-06 0)
(-6.51923e-07 -1.18743e-06 0)
(-6.43869e-07 -1.21125e-06 0)
(-6.31047e-07 -1.23681e-06 0)
(-6.12859e-07 -1.26296e-06 0)
(-5.90266e-07 -1.28852e-06 0)
(-5.6464e-07 -1.31222e-06 0)
(-5.37324e-07 -1.33277e-06 0)
(-5.10367e-07 -1.34892e-06 0)
(-4.86408e-07 -1.35967e-06 0)
(-4.67263e-07 -1.36436e-06 0)
(-4.5302e-07 -1.36265e-06 0)
(-4.42701e-07 -1.35442e-06 0)
(-4.35547e-07 -1.33964e-06 0)
(-4.31561e-07 -1.31836e-06 0)
(-4.31167e-07 -1.29063e-06 0)
(-4.34778e-07 -1.25632e-06 0)
(-4.42734e-07 -1.21506e-06 0)
(-4.55367e-07 -1.16631e-06 0)
(-4.72827e-07 -1.10959e-06 0)
(-4.94729e-07 -1.04493e-06 0)
(-5.19945e-07 -9.72945e-07 0)
(-5.46675e-07 -8.94859e-07 0)
(-5.72685e-07 -8.12142e-07 0)
(-5.95528e-07 -7.26227e-07 0)
(-6.12712e-07 -6.3835e-07 0)
(-6.21844e-07 -5.49585e-07 0)
(-6.20836e-07 -4.60995e-07 0)
(-6.0814e-07 -3.73793e-07 0)
(-5.82915e-07 -2.89412e-07 0)
(-5.45008e-07 -2.09456e-07 0)
(-4.94748e-07 -1.35549e-07 0)
(-4.32695e-07 -6.91638e-08 0)
(-3.59487e-07 -1.14892e-08 0)
(-2.7584e-07 3.66216e-08 0)
(-1.82612e-07 7.4639e-08 0)
(-8.07957e-08 1.02311e-07 0)
(2.86167e-08 1.19624e-07 0)
(1.4479e-07 1.26767e-07 0)
(2.67039e-07 1.24109e-07 0)
(3.94545e-07 1.12136e-07 0)
(5.2588e-07 9.13902e-08 0)
(6.58641e-07 6.24221e-08 0)
(7.89474e-07 2.57956e-08 0)
(9.14567e-07 -1.7839e-08 0)
(1.03037e-06 -6.76594e-08 0)
(1.13412e-06 -1.22659e-07 0)
(1.22385e-06 -1.81765e-07 0)
(1.29798e-06 -2.44061e-07 0)
(1.35495e-06 -3.08953e-07 0)
(1.39321e-06 -3.76164e-07 0)
(1.41169e-06 -4.45512e-07 0)
(1.41009e-06 -5.16664e-07 0)
(1.38897e-06 -5.89029e-07 0)
(1.34926e-06 -6.61865e-07 0)
(1.29206e-06 -7.34421e-07 0)
(1.21866e-06 -8.06003e-07 0)
(1.13077e-06 -8.76e-07 0)
(1.03041e-06 -9.44023e-07 0)
(9.19743e-07 -1.01005e-06 0)
(8.01117e-07 -1.07437e-06 0)
(6.77397e-07 -1.13723e-06 0)
(5.51986e-07 -1.19846e-06 0)
(4.28237e-07 -1.25744e-06 0)
(3.08934e-07 -1.31316e-06 0)
(1.96395e-07 -1.36418e-06 0)
(9.26482e-08 -1.4087e-06 0)
(-8.65703e-10 -1.445e-06 0)
(-8.33817e-08 -1.47182e-06 0)
(-1.54077e-07 -1.48843e-06 0)
(-2.11799e-07 -1.49463e-06 0)
(-2.55773e-07 -1.4905e-06 0)
(-2.85549e-07 -1.47653e-06 0)
(-3.00644e-07 -1.45399e-06 0)
(-3.00357e-07 -1.42444e-06 0)
(-2.83679e-07 -1.38774e-06 0)
(-2.49675e-07 -1.3348e-06 0)
(-1.96468e-07 -1.23226e-06 0)
(-1.2539e-07 -9.98975e-07 0)
(-3.89433e-08 -4.86467e-07 0)
(-1.55517e-08 -4.17721e-07 0)
(-3.35533e-08 -8.52889e-07 0)
(-5.98138e-08 -1.04397e-06 0)
(-9.70372e-08 -1.12003e-06 0)
(-1.41645e-07 -1.15272e-06 0)
(-1.90332e-07 -1.17093e-06 0)
(-2.40845e-07 -1.18482e-06 0)
(-2.90961e-07 -1.19513e-06 0)
(-3.40069e-07 -1.20159e-06 0)
(-3.88186e-07 -1.20446e-06 0)
(-4.35345e-07 -1.20416e-06 0)
(-4.80576e-07 -1.2012e-06 0)
(-5.228e-07 -1.19624e-06 0)
(-5.60845e-07 -1.1905e-06 0)
(-5.93288e-07 -1.18544e-06 0)
(-6.20092e-07 -1.18255e-06 0)
(-6.41059e-07 -1.183e-06 0)
(-6.56315e-07 -1.18762e-06 0)
(-6.67191e-07 -1.19685e-06 0)
(-6.74056e-07 -1.2107e-06 0)
(-6.76673e-07 -1.22892e-06 0)
(-6.75388e-07 -1.25109e-06 0)
(-6.69767e-07 -1.27643e-06 0)
(-6.58249e-07 -1.30384e-06 0)
(-6.40168e-07 -1.33216e-06 0)
(-6.16432e-07 -1.36019e-06 0)
(-5.88315e-07 -1.38659e-06 0)
(-5.57104e-07 -1.40983e-06 0)
(-5.24961e-07 -1.42832e-06 0)
(-4.94818e-07 -1.44072e-06 0)
(-4.68883e-07 -1.44608e-06 0)
(-4.47606e-07 -1.44389e-06 0)
(-4.30274e-07 -1.43408e-06 0)
(-4.16271e-07 -1.41681e-06 0)
(-4.05617e-07 -1.39237e-06 0)
(-3.98605e-07 -1.36106e-06 0)
(-3.95394e-07 -1.32292e-06 0)
(-3.96066e-07 -1.27772e-06 0)
(-4.00875e-07 -1.22499e-06 0)
(-4.10209e-07 -1.16428e-06 0)
(-4.24199e-07 -1.09546e-06 0)
(-4.42307e-07 -1.01896e-06 0)
(-4.63166e-07 -9.35729e-07 0)
(-4.84701e-07 -8.47031e-07 0)
(-5.04412e-07 -7.54203e-07 0)
(-5.19689e-07 -6.58535e-07 0)
(-5.28112e-07 -5.613e-07 0)
(-5.27713e-07 -4.63874e-07 0)
(-5.17164e-07 -3.67851e-07 0)
(-4.95829e-07 -2.75052e-07 0)
(-4.63621e-07 -1.87405e-07 0)
(-4.2075e-07 -1.06755e-07 0)
(-3.67481e-07 -3.4666e-08 0)
(-3.04068e-07 2.77003e-08 0)
(-2.30839e-07 7.95992e-08 0)
(-1.48326e-07 1.20643e-07 0)
(-5.72648e-08 1.50711e-07 0)
(4.15457e-08 1.69876e-07 0)
(1.47418e-07 1.78351e-07 0)
(2.59769e-07 1.76451e-07 0)
(3.77829e-07 1.6455e-07 0)
(5.00184e-07 1.43042e-07 0)
(6.2445e-07 1.12329e-07 0)
(7.47358e-07 7.28711e-08 0)
(8.65269e-07 2.52811e-08 0)
(9.7485e-07 -2.95904e-08 0)
(1.07347e-06 -9.06735e-08 0)
(1.15911e-06 -1.56836e-07 0)
(1.22996e-06 -2.27112e-07 0)
(1.28412e-06 -3.00849e-07 0)
(1.3199e-06 -3.77635e-07 0)
(1.33626e-06 -4.5706e-07 0)
(1.33315e-06 -5.3849e-07 0)
(1.31131e-06 -6.21045e-07 0)
(1.27174e-06 -7.03733e-07 0)
(1.21551e-06 -7.8559e-07 0)
(1.14383e-06 -8.65713e-07 0)
(1.05821e-06 -9.43313e-07 0)
(9.60352e-07 -1.01787e-06 0)
(8.52051e-07 -1.0893e-06 0)
(7.35529e-07 -1.15779e-06 0)
(6.13882e-07 -1.22349e-06 0)
(4.90915e-07 -1.28623e-06 0)
(3.70372e-07 -1.34557e-06 0)
(2.55463e-07 -1.40075e-06 0)
(1.48921e-07 -1.45051e-06 0)
(5.28773e-08 -1.49319e-06 0)
(-3.15137e-08 -1.5273e-06 0)