/*--------------------------------*- C++ -*----------------------------------*\
| =========                 |                                                 |
| \\      /  F ield         | OpenFOAM: The Open Source CFD Toolbox           |
|  \\    /   O peration     | Version:  2406                                  |
|   \\  /    A nd           | Website:  www.openfoam.com                      |
|    \\/     M anipulation  |                                                 |
\*---------------------------------------------------------------------------*/
FoamFile
{
    version     2.0;
    format      ascii;
    arch        "LSB;label=32;scalar=64";
    class       volScalarField;
    location    "10";
    object      alpha.grout;
}
// * * * * * * * * * * * * * * * * * * * * * * * * * * * * * * * * * * * * * //

dimensions      [0 0 0 0 0 0 0];

internalField   nonuniform List<scalar> 
10000
(
0.999849
0.999542
0.999336
0.999233
0.999185
0.999123
0.999086
0.999036
0.99903
0.999021
0.999002
0.998981
0.99895
0.998926
0.998896
0.998873
0.998847
0.998815
0.998789
0.998765
0.998739
0.998715
0.998696
0.998679
0.998662
0.998649
0.998644
0.998642
0.99864
0.998638
0.99864
0.998656
0.998676
0.998693
0.998713
0.998744
0.99879
0.998842
0.998893
0.998937
0.998982
0.99903
0.999083
0.999136
0.999183
0.999226
0.999268
0.999314
0.999362
0.999408
0.999447
0.999477
0.999499
0.999517
0.999535
0.999554
0.999572
0.999585
0.99959
0.999588
0.999581
0.999573
0.999567
0.999563
0.99956
0.999555
0.999547
0.999535
0.999521
0.999504
0.999485
0.999463
0.999435
0.999403
0.99937
0.999336
0.999299
0.999259
0.999215
0.99917
0.999125
0.999079
0.999032
0.998985
0.998938
0.998894
0.998851
0.99881
0.99877
0.998735
0.998705
0.998681
0.998667
0.99867
0.998697
0.99875
0.998847
0.999019
0.999332
0.999862
0.999929
0.99964
0.999388
0.999163
0.999096
0.999024
0.998969
0.99894
0.998883
0.998858
0.998854
0.998858
0.998842
0.998842
0.998838
0.998828
0.998817
0.998808
0.998795
0.998777
0.998768
0.99876
0.998742
0.99872
0.998711
0.998709
0.998699
0.99868
0.998662
0.998654
0.998655
0.998653
0.998648
0.998648
0.998665
0.998702
0.998748
0.998793
0.998835
0.998879
0.998931
0.998991
0.999057
0.999122
0.999186
0.999254
0.99933
0.999415
0.999503
0.999587
0.999659
0.99972
0.999774
0.999825
0.999877
0.999925
0.999966
0.999994
1.00001
1.00001
0.999997
0.999984
0.999968
0.999948
0.99992
0.999883
0.999836
0.999781
0.999721
0.999657
0.999587
0.999511
0.999431
0.999348
0.999268
0.99919
0.999112
0.999035
0.99896
0.998891
0.998827
0.998766
0.998709
0.998656
0.998611
0.998572
0.998538
0.99851
0.998493
0.998487
0.998492
0.998511
0.998544
0.998597
0.998683
0.998808
0.998993
0.999277
0.99969
1.0002
0.99997
0.999632
0.999391
0.999161
0.99898
0.998893
0.998838
0.998799
0.998775
0.99877
0.998764
0.998778
0.998787
0.998791
0.998811
0.998834
0.998835
0.998831
0.998843
0.998851
0.998843
0.998828
0.998819
0.998819
0.998815
0.998799
0.998775
0.998754
0.998741
0.998725
0.998702
0.998677
0.998658
0.998656
0.99867
0.998696
0.99873
0.998769
0.998812
0.998861
0.998918
0.998983
0.999055
0.999132
0.999217
0.999312
0.999419
0.999535
0.999654
0.999768
0.999873
0.999967
1.00005
1.00014
1.00022
1.00029
1.00035
1.00039
1.00041
1.00042
1.00041
1.00039
1.00036
1.00033
1.00027
1.0002
1.00012
1.00002
0.999921
0.999811
0.999694
0.99957
0.999442
0.999315
0.999192
0.999073
0.998959
0.99885
0.998749
0.998659
0.998579
0.998505
0.99844
0.998385
0.998342
0.998309
0.998285
0.998273
0.998275
0.99829
0.99832
0.998374
0.998454
0.998561
0.998706
0.998897
0.999137
0.999472
0.999923
1.0004
1.00001
0.999661
0.999379
0.999164
0.998962
0.998825
0.998791
0.998723
0.998697
0.998709
0.99872
0.998725
0.998755
0.998799
0.998824
0.998843
0.998867
0.998897
0.998915
0.998913
0.998913
0.998922
0.998925
0.998916
0.998904
0.99889
0.998872
0.99885
0.998824
0.998792
0.998758
0.998727
0.998707
0.998699
0.998702
0.998716
0.998742
0.998778
0.998821
0.998869
0.998924
0.998989
0.999066
0.999157
0.99926
0.999375
0.999502
0.999638
0.999778
0.999915
1.00004
1.00017
1.00028
1.00039
1.00049
1.00057
1.00065
1.0007
1.00073
1.00074
1.00073
1.00071
1.00068
1.00062
1.00055
1.00045
1.00034
1.00021
1.00008
0.999933
0.99978
0.99962
0.999458
0.999299
0.999144
0.998996
0.998855
0.998724
0.998606
0.998503
0.998412
0.99833
0.998261
0.998207
0.998168
0.998138
0.998128
0.998142
0.998168
0.998208
0.998267
0.99835
0.998461
0.998596
0.99877
0.998994
0.999263
0.999609
1.00006
1.00049
0.999999
0.999639
0.999355
0.999158
0.998974
0.998824
0.998741
0.998712
0.998694
0.998693
0.998708
0.998747
0.998782
0.998818
0.998861
0.998906
0.998936
0.998967
0.998993
0.999007
0.99902
0.999032
0.999032
0.999025
0.99902
0.999011
0.998989
0.998958
0.998925
0.998889
0.998852
0.998816
0.998789
0.998773
0.99877
0.99878
0.998802
0.998834
0.998871
0.998913
0.998964
0.999028
0.99911
0.999209
0.999322
0.999449
0.999586
0.999733
0.999885
1.00004
1.00018
1.00032
1.00046
1.00058
1.00069
1.00079
1.00087
1.00092
1.00096
1.00098
1.00098
1.00096
1.00092
1.00085
1.00076
1.00065
1.00051
1.00037
1.00021
1.00004
0.999864
0.999679
0.999494
0.999312
0.999137
0.998969
0.99881
0.998666
0.998538
0.998427
0.998329
0.998244
0.998174
0.998122
0.998081
0.998072
0.998072
0.998085
0.998133
0.998201
0.99829
0.998398
0.998532
0.998692
0.99888
0.999112
0.999382
0.999709
1.00013
1.00052
0.999984
0.99965
0.999347
0.999147
0.998973
0.998887
0.998767
0.998731
0.99873
0.998729
0.998749
0.998784
0.998833
0.998879
0.998925
0.998973
0.999012
0.999055
0.999091
0.999108
0.999125
0.999143
0.999151
0.999151
0.99915
0.99914
0.999116
0.999083
0.999051
0.999016
0.998975
0.998934
0.998901
0.998883
0.998879
0.998888
0.998905
0.998928
0.998958
0.998994
0.999041
0.999105
0.999187
0.999287
0.999403
0.999531
0.99967
0.99982
0.999977
1.00014
1.00029
1.00044
1.00058
1.00071
1.00083
1.00093
1.00101
1.00107
1.00112
1.00114
1.00115
1.00113
1.00109
1.00101
1.00091
1.00079
1.00064
1.00049
1.00031
1.00013
0.999938
0.999739
0.99954
0.999346
0.999157
0.998977
0.99881
0.998659
0.998527
0.998412
0.998312
0.998228
0.998162
0.998116
0.998091
0.998084
0.998103
0.998146
0.998203
0.998283
0.998384
0.9985
0.99864
0.998812
0.999009
0.999244
0.999509
0.999807
1.00018
1.00052
0.999952
0.999681
0.99939
0.999192
0.999019
0.998921
0.998862
0.998821
0.998803
0.99881
0.99884
0.998879
0.998925
0.998968
0.999019
0.999077
0.999121
0.999167
0.999206
0.999227
0.999252
0.999281
0.999295
0.999297
0.999299
0.999294
0.999273
0.999245
0.999215
0.999181
0.999138
0.999094
0.999061
0.999045
0.999042
0.999047
0.999057
0.999071
0.999093
0.999124
0.999168
0.999228
0.999306
0.9994
0.999509
0.999631
0.999766
0.999913
1.00007
1.00023
1.00038
1.00053
1.00067
1.0008
1.00091
1.00101
1.0011
1.00117
1.00121
1.00124
1.00125
1.00124
1.0012
1.00112
1.00102
1.00089
1.00074
1.00058
1.0004
1.00021
1.00001
0.99981
0.999605
0.999405
0.999211
0.999027
0.998857
0.998707
0.998577
0.998463
0.998367
0.998289
0.998233
0.998197
0.998181
0.998188
0.99822
0.998274
0.998346
0.998439
0.998552
0.998676
0.998813
0.998974
0.999158
0.999382
0.999633
0.999897
1.00022
1.0005
0.9999
0.999661
0.999422
0.999249
0.999135
0.998996
0.998958
0.998924
0.998915
0.998927
0.998956
0.998988
0.999034
0.999079
0.999135
0.999194
0.999237
0.999282
0.999325
0.999355
0.999389
0.999425
0.999443
0.99945
0.99946
0.999464
0.999452
0.99943
0.999404
0.999371
0.99933
0.999288
0.99926
0.999247
0.999244
0.999244
0.999246
0.999252
0.999268
0.999296
0.999336
0.999389
0.999456
0.999538
0.999634
0.999746
0.999872
1.00001
1.00016
1.0003
1.00045
1.00059
1.00072
1.00084
1.00095
1.00105
1.00114
1.0012
1.00125
1.00129
1.0013
1.00129
1.00125
1.00117
1.00107
1.00094
1.0008
1.00064
1.00046
1.00027
1.00007
0.999872
0.999669
0.99947
0.999276
0.999094
0.998928
0.998783
0.998658
0.998551
0.998463
0.998398
0.998355
0.998332
0.998329
0.998349
0.998391
0.998453
0.998534
0.998632
0.99875
0.998883
0.999025
0.999182
0.999351
0.999545
0.999765
0.999983
1.00025
1.00046
0.999858
0.999669
0.999481
0.999318
0.999222
0.999147
0.999101
0.999074
0.999073
0.999087
0.999114
0.999144
0.999191
0.999237
0.999291
0.999346
0.999385
0.999433
0.999482
0.999518
0.999558
0.999597
0.99962
0.999637
0.999659
0.999674
0.999671
0.999654
0.999632
0.999604
0.999569
0.999533
0.999508
0.999496
0.99949
0.999483
0.999477
0.999477
0.999489
0.999512
0.999545
0.999587
0.99964
0.999706
0.999788
0.999886
0.999999
1.00012
1.00025
1.00039
1.00052
1.00064
1.00076
1.00087
1.00098
1.00107
1.00115
1.00121
1.00126
1.0013
1.00132
1.00131
1.00127
1.00119
1.00109
1.00097
1.00084
1.00068
1.00052
1.00033
1.00014
0.999948
0.999752
0.999559
0.999373
0.999198
0.999041
0.998905
0.998788
0.998689
0.998612
0.99856
0.998531
0.998523
0.998539
0.998576
0.998631
0.998703
0.998792
0.998891
0.999
0.999127
0.999265
0.999416
0.99957
0.999732
0.999912
1.00007
1.00026
1.0004
0.99982
0.999671
0.999541
0.999435
0.99932
0.999302
0.999264
0.999248
0.999254
0.99927
0.999297
0.999328
0.999376
0.999417
0.999465
0.999516
0.999555
0.999607
0.999659
0.999697
0.99974
0.999785
0.999817
0.999846
0.99988
0.999906
0.999911
0.999901
0.999886
0.999868
0.99984
0.999811
0.999788
0.999774
0.999763
0.999749
0.999737
0.999732
0.999738
0.999755
0.999779
0.999807
0.999844
0.999893
0.99996
1.00004
1.00014
1.00025
1.00036
1.00047
1.00058
1.00069
1.00079
1.00089
1.00098
1.00107
1.00114
1.0012
1.00125
1.00129
1.00131
1.0013
1.00126
1.00119
1.0011
1.00099
1.00086
1.00072
1.00056
1.00039
1.00021
1.00003
0.999843
0.999661
0.999486
0.999324
0.99918
0.999056
0.998951
0.998865
0.998803
0.998764
0.998747
0.998752
0.998782
0.998834
0.998901
0.998983
0.999082
0.99919
0.999303
0.999423
0.999546
0.999679
0.99981
0.999933
1.00006
1.00015
1.00026
1.00032
0.999785
0.999669
0.999578
0.999533
0.999487
0.999457
0.999441
0.999444
0.999459
0.999479
0.99951
0.999539
0.999586
0.999621
0.999666
0.999715
0.999755
0.999808
0.999859
0.999898
0.999945
0.999998
1.00004
1.00008
1.00013
1.00016
1.00017
1.00017
1.00017
1.00016
1.00014
1.00012
1.00009
1.00008
1.00006
1.00004
1.00002
1.00001
1.00001
1.00002
1.00003
1.00004
1.00007
1.0001
1.00015
1.00022
1.0003
1.00038
1.00047
1.00056
1.00065
1.00073
1.00082
1.00091
1.00099
1.00107
1.00113
1.00119
1.00123
1.00127
1.00128
1.00127
1.00124
1.00118
1.00109
1.00099
1.00088
1.00075
1.00061
1.00045
1.00029
1.00012
0.999949
0.999782
0.999622
0.999475
0.999347
0.999237
0.999147
0.999077
0.999033
0.999013
0.999013
0.999034
0.999077
0.999139
0.999216
0.999304
0.999406
0.999514
0.999628
0.999744
0.999856
0.999967
1.00006
1.00014
1.00021
1.00023
1.00025
1.00024
0.999742
0.999708
0.999677
0.999633
0.999659
0.999637
0.99965
0.99967
0.999692
0.999717
0.999752
0.99978
0.999825
0.999856
0.999899
0.999946
0.999984
1.00003
1.00008
1.00012
1.00018
1.00024
1.00029
1.00034
1.0004
1.00044
1.00046
1.00048
1.00049
1.00049
1.00048
1.00045
1.00043
1.00041
1.00039
1.00036
1.00034
1.00032
1.00031
1.00031
1.0003
1.0003
1.00031
1.00033
1.00036
1.00041
1.00047
1.00053
1.0006
1.00066
1.00072
1.00079
1.00087
1.00094
1.00101
1.00108
1.00113
1.00118
1.00122
1.00125
1.00126
1.00126
1.00122
1.00117
1.0011
1.00101
1.00091
1.0008
1.00067
1.00053
1.00038
1.00023
1.00008
0.999937
0.999795
0.999666
0.999554
0.999459
0.99938
0.999322
0.999289
0.99928
0.999292
0.999327
0.999384
0.999457
0.999545
0.999645
0.999751
0.999861
0.999972
1.00008
1.00017
1.00026
1.00032
1.00034
1.00034
1.00029
1.00024
1.00015
0.999682
0.999698
0.999738
0.999757
0.999776
0.999805
0.999844
0.999876
0.999906
0.999936
0.999973
1
1.00004
1.00007
1.00012
1.00016
1.0002
1.00025
1.0003
1.00034
1.0004
1.00047
1.00053
1.00059
1.00066
1.00071
1.00075
1.00078
1.00081
1.00082
1.00082
1.0008
1.00078
1.00075
1.00073
1.0007
1.00067
1.00064
1.00062
1.0006
1.00058
1.00056
1.00055
1.00055
1.00057
1.0006
1.00063
1.00067
1.00071
1.00075
1.0008
1.00085
1.00091
1.00097
1.00103
1.00108
1.00112
1.00116
1.00119
1.00122
1.00123
1.00122
1.00119
1.00114
1.00108
1.00101
1.00093
1.00083
1.00072
1.00059
1.00047
1.00034
1.00021
1.00008
0.999955
0.999848
0.999756
0.999679
0.999618
0.999577
0.99956
0.999564
0.999588
0.999637
0.999705
0.999782
0.999873
0.99998
1.00009
1.00021
1.00032
1.00041
1.00049
1.00053
1.00056
1.00052
1.00047
1.00035
1.00022
1.00006
0.999665
0.999738
0.999794
0.999903
0.999936
1.00001
1.00006
1.0001
1.00014
1.00018
1.00022
1.00025
1.00029
1.00032
1.00036
1.0004
1.00043
1.00048
1.00053
1.00058
1.00065
1.00072
1.00079
1.00086
1.00094
1.001
1.00106
1.0011
1.00114
1.00117
1.00117
1.00116
1.00114
1.00112
1.00109
1.00106
1.00102
1.00097
1.00094
1.0009
1.00086
1.00083
1.0008
1.00078
1.00078
1.00079
1.0008
1.00081
1.00083
1.00085
1.00087
1.00091
1.00095
1.001
1.00105
1.00109
1.00112
1.00115
1.00118
1.0012
1.00121
1.0012
1.00118
1.00114
1.00109
1.00104
1.00097
1.00089
1.0008
1.00069
1.00058
1.00047
1.00036
1.00025
1.00015
1.00006
0.999981
0.999919
0.999872
0.999845
0.999837
0.999846
0.999875
0.999929
1
1.0001
1.0002
1.00031
1.00042
1.00054
1.00064
1.00073
1.00078
1.00079
1.00078
1.0007
1.0006
1.00042
1.0002
0.999968
0.999618
0.999763
0.999878
0.999992
1.00009
1.00019
1.00025
1.0003
1.00035
1.00039
1.00043
1.00046
1.0005
1.00052
1.00056
1.0006
1.00063
1.00068
1.00074
1.00079
1.00087
1.00095
1.00102
1.0011
1.00119
1.00127
1.00134
1.0014
1.00145
1.00149
1.00151
1.0015
1.00149
1.00147
1.00144
1.0014
1.00135
1.00129
1.00124
1.00118
1.00112
1.00107
1.00102
1.00098
1.00095
1.00094
1.00093
1.00092
1.00091
1.00091
1.00092
1.00094
1.00098
1.00102
1.00105
1.00108
1.0011
1.00112
1.00114
1.00116
1.00117
1.00117
1.00115
1.00112
1.00109
1.00105
1.001
1.00094
1.00086
1.00077
1.00068
1.00059
1.00049
1.0004
1.00032
1.00025
1.00019
1.00014
1.0001
1.00009
1.0001
1.00012
1.00016
1.00022
1.00029
1.00039
1.0005
1.00061
1.00073
1.00084
1.00093
1.00101
1.00105
1.00103
1.00099
1.00087
1.00071
1.00048
1.00019
0.999886
0.999593
0.999759
0.999971
1.00009
1.00025
1.00035
1.00042
1.00049
1.00054
1.00058
1.00062
1.00064
1.00068
1.0007
1.00073
1.00077
1.0008
1.00086
1.00091
1.00098
1.00105
1.00114
1.00122
1.00131
1.00141
1.0015
1.00158
1.00166
1.00173
1.00178
1.00181
1.00182
1.00181
1.0018
1.00176
1.00171
1.00164
1.00157
1.0015
1.00142
1.00134
1.00127
1.00119
1.00113
1.00109
1.00105
1.00101
1.00098
1.00095
1.00093
1.00093
1.00094
1.00097
1.00099
1.00102
1.00104
1.00105
1.00107
1.00108
1.0011
1.00112
1.00112
1.00111
1.0011
1.00108
1.00106
1.00103
1.00098
1.00091
1.00084
1.00077
1.00069
1.00061
1.00054
1.00047
1.00042
1.00038
1.00035
1.00033
1.00033
1.00034
1.00037
1.00041
1.00048
1.00056
1.00065
1.00077
1.00088
1.001
1.0011
1.00119
1.00125
1.00127
1.00123
1.00117
1.00102
1.00082
1.00053
1.00018
0.999808
0.9996
0.999817
1.00004
1.00024
1.00039
1.0005
1.0006
1.00067
1.00072
1.00076
1.00078
1.0008
1.00083
1.00084
1.00087
1.00091
1.00095
1.001
1.00106
1.00112
1.00121
1.0013
1.00139
1.00149
1.00159
1.0017
1.00179
1.00188
1.00196
1.00203
1.00207
1.00209
1.0021
1.00209
1.00205
1.00199
1.00191
1.00182
1.00172
1.00163
1.00153
1.00143
1.00133
1.00125
1.00118
1.00111
1.00105
1.001
1.00095
1.00092
1.0009
1.0009
1.00092
1.00094
1.00096
1.00097
1.00097
1.00099
1.00101
1.00103
1.00105
1.00107
1.00107
1.00108
1.00108
1.00107
1.00106
1.00102
1.00097
1.00091
1.00085
1.00079
1.00072
1.00066
1.00061
1.00057
1.00055
1.00053
1.00052
1.00053
1.00055
1.00058
1.00063
1.00071
1.00079
1.00089
1.001
1.00111
1.00122
1.00132
1.0014
1.00144
1.00146
1.00141
1.00132
1.00114
1.00091
1.00057
1.00016
0.999736
0.999584
0.999872
1.00009
1.00034
1.00049
1.00063
1.00073
1.0008
1.00084
1.00087
1.00089
1.0009
1.00092
1.00093
1.00095
1.00098
1.00102
1.00108
1.00114
1.00121
1.0013
1.00139
1.00149
1.0016
1.00172
1.00183
1.00194
1.00204
1.00214
1.00222
1.00227
1.00231
1.00232
1.00231
1.00227
1.0022
1.0021
1.002
1.00189
1.00178
1.00166
1.00153
1.00141
1.0013
1.00121
1.00112
1.00104
1.00096
1.0009
1.00085
1.00082
1.00081
1.00081
1.00082
1.00083
1.00083
1.00083
1.00085
1.00087
1.0009
1.00093
1.00096
1.00098
1.001
1.00102
1.00103
1.00103
1.00101
1.00097
1.00093
1.00088
1.00083
1.00078
1.00073
1.0007
1.00067
1.00066
1.00066
1.00067
1.00069
1.00072
1.00076
1.00081
1.00089
1.00097
1.00107
1.00118
1.00128
1.00139
1.00147
1.00155
1.00158
1.0016
1.00153
1.00143
1.00123
1.00096
1.00059
1.00013
0.999675
0.999602
0.999894
1.00018
1.00041
1.00059
1.00074
1.00084
1.0009
1.00093
1.00095
1.00096
1.00096
1.00097
1.00097
1.00099
1.00101
1.00105
1.0011
1.00117
1.00124
1.00134
1.00144
1.00155
1.00166
1.00179
1.00191
1.00202
1.00214
1.00225
1.00234
1.00241
1.00246
1.00248
1.00247
1.00243
1.00235
1.00225
1.00213
1.00201
1.00188
1.00174
1.00159
1.00145
1.00132
1.0012
1.00109
1.00098
1.00088
1.00079
1.00073
1.00068
1.00066
1.00065
1.00064
1.00064
1.00064
1.00065
1.00066
1.00069
1.00073
1.00078
1.00082
1.00085
1.00089
1.00093
1.00096
1.00097
1.00095
1.00093
1.0009
1.00086
1.00083
1.00079
1.00076
1.00074
1.00073
1.00073
1.00074
1.00076
1.00079
1.00083
1.00088
1.00094
1.00101
1.0011
1.00119
1.00129
1.00139
1.00148
1.00157
1.00164
1.00167
1.00168
1.00161
1.00149
1.00127
1.00097
1.00058
1.0001
0.999627
0.999656
0.999938
1.00027
1.00049
1.00068
1.00083
1.00092
1.00097
1.001
1.001
1.001
1.00099
1.00099
1.00098
1.00099
1.00101
1.00104
1.00109
1.00115
1.00123
1.00133
1.00144
1.00155
1.00167
1.0018
1.00193
1.00205
1.00218
1.0023
1.0024
1.00248
1.00253
1.00256
1.00255
1.00251
1.00243
1.00233
1.0022
1.00207
1.00193
1.00177
1.00161
1.00145
1.00129
1.00115
1.00101
1.00088
1.00076
1.00065
1.00057
1.0005
1.00046
1.00044
1.00043
1.00042
1.00041
1.00042
1.00044
1.00048
1.00053
1.00059
1.00064
1.0007
1.00075
1.00081
1.00085
1.00087
1.00087
1.00086
1.00084
1.00082
1.0008
1.00077
1.00075
1.00074
1.00075
1.00076
1.00077
1.0008
1.00084
1.00088
1.00094
1.001
1.00108
1.00116
1.00125
1.00134
1.00143
1.00152
1.0016
1.00167
1.00169
1.0017
1.00162
1.00149
1.00126
1.00095
1.00056
1.00008
0.999595
0.999683
1
1.0003
1.00054
1.00074
1.00087
1.00095
1.00099
1.00101
1.00101
1.00099
1.00096
1.00095
1.00093
1.00093
1.00094
1.00097
1.00101
1.00108
1.00116
1.00125
1.00136
1.00148
1.0016
1.00173
1.00187
1.002
1.00213
1.00226
1.00237
1.00246
1.00252
1.00255
1.00254
1.0025
1.00242
1.00232
1.0022
1.00206
1.00191
1.00174
1.00156
1.00138
1.00121
1.00105
1.00089
1.00074
1.0006
1.00047
1.00036
1.00028
1.00023
1.00019
1.00016
1.00014
1.00014
1.00014
1.00017
1.00022
1.00028
1.00034
1.00041
1.00048
1.00055
1.00062
1.00068
1.00072
1.00073
1.00074
1.00074
1.00073
1.00071
1.0007
1.00069
1.0007
1.00071
1.00073
1.00075
1.00079
1.00084
1.00089
1.00095
1.00102
1.00109
1.00117
1.00125
1.00134
1.00142
1.00151
1.00158
1.00164
1.00166
1.00165
1.00157
1.00143
1.0012
1.00091
1.00053
1.00005
0.999576
0.999721
1.00006
1.00032
1.00057
1.00075
1.00087
1.00094
1.00098
1.00098
1.00097
1.00094
1.0009
1.00087
1.00084
1.00083
1.00083
1.00085
1.00089
1.00095
1.00103
1.00113
1.00123
1.00134
1.00147
1.0016
1.00174
1.00187
1.00201
1.00214
1.00226
1.00235
1.00241
1.00245
1.00245
1.00241
1.00234
1.00224
1.00212
1.00198
1.00182
1.00165
1.00147
1.00128
1.0011
1.00092
1.00075
1.00058
1.00042
1.00027
1.00015
1.00005
0.999977
0.999924
0.999886
0.999858
0.999844
0.99985
0.999879
0.999931
0.999997
1.00007
1.00014
1.00022
1.00031
1.00039
1.00046
1.00051
1.00055
1.00057
1.00058
1.0006
1.0006
1.0006
1.0006
1.00062
1.00064
1.00067
1.0007
1.00075
1.0008
1.00085
1.00092
1.00099
1.00106
1.00113
1.00121
1.00129
1.00137
1.00144
1.0015
1.00156
1.00156
1.00155
1.00146
1.00133
1.00112
1.00084
1.00048
1.00002
0.999565
0.999808
1.0001
1.00037
1.0006
1.00075
1.00085
1.00092
1.00094
1.00094
1.00091
1.00086
1.00082
1.00077
1.00073
1.00071
1.0007
1.00072
1.00075
1.0008
1.00087
1.00096
1.00106
1.00117
1.00129
1.00142
1.00155
1.00169
1.00182
1.00196
1.00207
1.00216
1.00223
1.00227
1.00228
1.00225
1.00219
1.0021
1.00199
1.00185
1.0017
1.00153
1.00134
1.00115
1.00097
1.00078
1.0006
1.00041
1.00024
1.00008
0.999942
0.999829
0.999742
0.999675
0.999624
0.999587
0.999567
0.99957
0.999599
0.999652
0.999719
0.999795
0.999875
0.999961
1.00005
1.00015
1.00023
1.00029
1.00034
1.00038
1.00042
1.00044
1.00046
1.00047
1.00049
1.00052
1.00055
1.00058
1.00062
1.00067
1.00073
1.00078
1.00085
1.00092
1.00098
1.00105
1.00112
1.00119
1.00126
1.00132
1.00138
1.00142
1.00141
1.0014
1.00131
1.00119
1.001
1.00073
1.0004
0.999978
0.999563
0.999894
1.00014
1.00041
1.00059
1.00072
1.00081
1.00086
1.00087
1.00085
1.00081
1.00075
1.00069
1.00064
1.00059
1.00056
1.00054
1.00054
1.00057
1.00061
1.00067
1.00075
1.00084
1.00094
1.00106
1.00118
1.00131
1.00144
1.00157
1.0017
1.00182
1.00191
1.00198
1.00203
1.00204
1.00203
1.00197
1.0019
1.0018
1.00168
1.00153
1.00137
1.00119
1.001
1.00081
1.00062
1.00043
1.00025
1.00006
0.999894
0.999744
0.99962
0.999519
0.999439
0.999376
0.99933
0.999303
0.999301
0.999326
0.999374
0.999438
0.999511
0.99959
0.999678
0.999776
0.999877
0.999969
1.00004
1.00011
1.00017
1.00022
1.00027
1.0003
1.00033
1.00036
1.0004
1.00044
1.00047
1.00051
1.00057
1.00062
1.00068
1.00074
1.00081
1.00087
1.00093
1.001
1.00105
1.00112
1.00117
1.00121
1.00123
1.00122
1.0012
1.00112
1.00101
1.00084
1.0006
1.00031
0.999933
0.999574
0.999952
1.00018
1.00041
1.00055
1.00066
1.00074
1.00076
1.00075
1.00071
1.00066
1.00059
1.00053
1.00046
1.00041
1.00036
1.00034
1.00033
1.00035
1.00038
1.00043
1.0005
1.00058
1.00067
1.00077
1.00089
1.00101
1.00114
1.00126
1.00139
1.0015
1.0016
1.00167
1.00172
1.00175
1.00174
1.0017
1.00164
1.00156
1.00145
1.00132
1.00116
1.00099
1.00082
1.00063
1.00045
1.00026
1.00007
0.999886
0.999711
0.999553
0.999419
0.999308
0.999217
0.999143
0.999086
0.999051
0.999042
0.999061
0.999101
0.999157
0.999221
0.999293
0.999378
0.999476
0.999581
0.999681
0.99977
0.99985
0.999928
1
1.00007
1.00012
1.00016
1.00021
1.00027
1.00031
1.00035
1.0004
1.00046
1.00051
1.00056
1.00062
1.00068
1.00073
1.00079
1.00085
1.00089
1.00095
1.00097
1.001
1.00101
1.00099
1.00096
1.0009
1.0008
1.00065
1.00044
1.0002
0.99989
0.999597
1.00003
1.00024
1.00039
1.00051
1.0006
1.00064
1.00064
1.00061
1.00056
1.00049
1.00042
1.00034
1.00027
1.0002
1.00015
1.00012
1.0001
1.0001
1.00012
1.00016
1.00021
1.00028
1.00037
1.00046
1.00057
1.00068
1.0008
1.00092
1.00104
1.00115
1.00125
1.00133
1.00138
1.00141
1.00142
1.0014
1.00135
1.00128
1.00119
1.00108
1.00094
1.00079
1.00062
1.00045
1.00027
1.00009
0.999903
0.999717
0.99954
0.999379
0.999239
0.99912
0.99902
0.998937
0.998872
0.99883
0.998814
0.998824
0.998855
0.998899
0.998952
0.999016
0.999095
0.999191
0.999295
0.999399
0.999495
0.999589
0.999685
0.999781
0.999864
0.999934
0.999998
1.00006
1.00013
1.00018
1.00023
1.00028
1.00034
1.00039
1.00044
1.00049
1.00054
1.00059
1.00064
1.00068
1.00071
1.00074
1.00075
1.00075
1.00075
1.00073
1.0007
1.00065
1.00056
1.00044
1.00027
1.00009
0.999851
0.999627
1.00014
1.00028
1.00039
1.00048
1.00053
1.00053
1.0005
1.00046
1.00039
1.00032
1.00023
1.00014
1.00006
0.999984
0.999923
0.999878
0.999849
0.99984
0.999848
0.999873
0.999915
0.999972
1.00004
1.00013
1.00022
1.00033
1.00044
1.00056
1.00067
1.00078
1.00088
1.00097
1.00103
1.00107
1.00108
1.00108
1.00105
1.001
1.00093
1.00083
1.00072
1.00058
1.00043
1.00027
1.0001
0.99992
0.999737
0.999553
0.999378
0.999216
0.999072
0.998948
0.998842
0.998753
0.998683
0.998636
0.998614
0.998617
0.998639
0.998673
0.998717
0.998772
0.998846
0.998938
0.999042
0.999147
0.999249
0.999352
0.999461
0.999571
0.999671
0.999757
0.999838
0.99992
0.999996
1.00006
1.00011
1.00017
1.00022
1.00026
1.0003
1.00035
1.00038
1.00042
1.00045
1.00048
1.00049
1.0005
1.00049
1.00048
1.00047
1.00045
1.00042
1.00037
1.00029
1.00021
1.00009
0.999976
0.999811
0.999661
1.00024
1.00031
1.00039
1.00043
1.00044
1.0004
1.00035
1.00029
1.0002
1.00011
1.00001
0.999916
0.999821
0.999735
0.999663
0.999606
0.999565
0.999544
0.999541
0.999554
0.999585
0.999632
0.999694
0.999768
0.999856
0.999956
1.00006
1.00018
1.00029
1.00041
1.00051
1.0006
1.00067
1.00071
1.00074
1.00075
1.00074
1.0007
1.00065
1.00057
1.00047
1.00035
1.00022
1.00007
0.999906
0.999735
0.999556
0.999377
0.999204
0.999042
0.998897
0.99877
0.99866
0.998568
0.998496
0.998447
0.998422
0.99842
0.998435
0.998462
0.998499
0.998549
0.998619
0.998709
0.998813
0.998919
0.999024
0.999133
0.999251
0.999372
0.999483
0.999583
0.999678
0.999773
0.999858
0.999924
0.99998
1.00003
1.00008
1.00011
1.00014
1.00018
1.00021
1.00022
1.00025
1.00025
1.00024
1.00023
1.00021
1.00019
1.00017
1.00014
1.00011
1.00007
1.00001
0.99997
0.999907
0.999853
0.999765
0.999698
1.00031
1.00034
1.00037
1.00036
1.00032
1.00026
1.00018
1.00009
0.999993
0.999886
0.999772
0.999661
0.999555
0.999458
0.999375
0.999307
0.999256
0.999224
0.99921
0.999213
0.999234
0.999272
0.999324
0.999391
0.999473
0.99957
0.999679
0.999795
0.999913
1.00002
1.00013
1.00022
1.0003
1.00036
1.00039
1.00041
1.00042
1.0004
1.00036
1.0003
1.00022
1.00012
0.999994
0.999855
0.999702
0.999537
0.999364
0.99919
0.99902
0.99886
0.998714
0.998585
0.998473
0.99838
0.998308
0.998259
0.998234
0.99823
0.998241
0.998264
0.998297
0.998345
0.998413
0.998501
0.998603
0.998709
0.998816
0.998929
0.999053
0.999181
0.999301
0.99941
0.999517
0.999622
0.999715
0.999784
0.99984
0.999894
0.999935
0.999957
0.999979
1.00001
1.00002
1.00002
1.00002
1
0.999973
0.999951
0.99991
0.999878
0.999846
0.999811
0.999777
0.999752
0.999725
0.999724
0.999711
0.99972
0.999716
0.999739
1.00038
1.00038
1.00035
1.00028
1.0002
1.00011
1.00001
0.999901
0.999779
0.999654
0.999527
0.999404
0.999289
0.999181
0.999089
0.999011
0.998949
0.998907
0.998882
0.998876
0.998887
0.998915
0.998959
0.999019
0.999097
0.999192
0.999301
0.99942
0.999542
0.999663
0.999775
0.999874
0.999958
1.00002
1.00007
1.0001
1.00012
1.00012
1.00009
1.00005
0.999985
0.999896
0.999786
0.999659
0.999514
0.999356
0.99919
0.99902
0.998854
0.998697
0.998551
0.99842
0.998307
0.998214
0.998142
0.998094
0.998069
0.998065
0.998075
0.998097
0.998131
0.998179
0.998247
0.998335
0.998434
0.998538
0.998644
0.998759
0.998885
0.999017
0.999143
0.999259
0.999374
0.999486
0.999583
0.999653
0.999709
0.999759
0.999794
0.999808
0.999821
0.999836
0.999829
0.99981
0.999793
0.999753
0.999702
0.999661
0.999605
0.999559
0.999513
0.999472
0.999439
0.999433
0.999433
0.999471
0.999505
0.999581
0.999668
0.99978
1.00046
1.00042
1.00032
1.00022
1.00011
0.99999
0.999858
0.999723
0.999581
0.999443
0.999304
0.999172
0.999048
0.998931
0.998831
0.998743
0.998673
0.99862
0.998584
0.998565
0.998566
0.998584
0.998619
0.998673
0.998747
0.99884
0.99895
0.999071
0.999198
0.999325
0.999444
0.999552
0.999644
0.99972
0.999778
0.999822
0.999852
0.999866
0.999861
0.999833
0.999783
0.99971
0.999614
0.999498
0.999363
0.999214
0.999056
0.998894
0.998733
0.998579
0.998433
0.998301
0.998186
0.998091
0.998019
0.997972
0.997947
0.997941
0.997954
0.997978
0.998015
0.998067
0.998139
0.998227
0.998325
0.998426
0.99853
0.998644
0.998772
0.998905
0.999032
0.999152
0.99927
0.999384
0.99948
0.999548
0.9996
0.999646
0.999674
0.99968
0.999681
0.999681
0.999655
0.999613
0.999573
0.99951
0.99944
0.999379
0.999306
0.999242
0.999181
0.999137
0.999109
0.999121
0.999144
0.999215
0.9993
0.999447
0.999622
0.999819
1.00054
1.00043
1.0003
1.00016
1.00002
0.999872
0.999714
0.999559
0.999403
0.999255
0.999109
0.998971
0.998843
0.998721
0.998614
0.998518
0.998438
0.998376
0.998328
0.998297
0.998284
0.998291
0.998316
0.998362
0.998431
0.998522
0.998631
0.998754
0.998885
0.999017
0.999143
0.99926
0.999361
0.999447
0.999518
0.999576
0.99962
0.99965
0.999662
0.999652
0.99962
0.999565
0.999485
0.999383
0.999262
0.999124
0.998977
0.998826
0.998674
0.998524
0.99838
0.998247
0.998129
0.998031
0.997957
0.997906
0.997877
0.997875
0.997884
0.997911
0.997952
0.99801
0.998086
0.998176
0.998274
0.998374
0.998477
0.998591
0.998718
0.99885
0.998978
0.999097
0.999214
0.999326
0.999417
0.999481
0.999528
0.999568
0.999588
0.999584
0.999573
0.999555
0.999507
0.999443
0.99938
0.999295
0.999205
0.999121
0.999028
0.998945
0.998872
0.998826
0.998801
0.998826
0.998866
0.998969
0.999108
0.999322
0.999577
0.999852
1.00059
1.00043
1.00027
1.0001
0.99993
0.999755
0.999578
0.999411
0.999249
0.999096
0.998949
0.99881
0.99868
0.998557
0.998447
0.998346
0.998258
0.998186
0.998128
0.998084
0.998059
0.998053
0.998066
0.998103
0.998165
0.99825
0.998356
0.998478
0.99861
0.998745
0.998878
0.999002
0.999114
0.999213
0.999298
0.999373
0.999435
0.999483
0.999514
0.999526
0.999515
0.99948
0.99942
0.999337
0.999233
0.999112
0.99898
0.998842
0.998701
0.998557
0.998415
0.99828
0.998157
0.998054
0.997973
0.997917
0.997883
0.997875
0.997878
0.997903
0.997946
0.998005
0.998083
0.998173
0.998271
0.998372
0.998476
0.998591
0.998719
0.998852
0.99898
0.999098
0.999212
0.999318
0.999404
0.999463
0.999506
0.99954
0.999554
0.99954
0.999515
0.999478
0.999409
0.999324
0.999237
0.999131
0.999019
0.99891
0.998795
0.998693
0.998607
0.998557
0.99853
0.998559
0.998613
0.998749
0.998937
0.999206
0.999531
0.999878
1.00061
1.00042
1.00023
1.00004
0.999843
0.999653
0.999468
0.999299
0.999137
0.998985
0.998841
0.998705
0.998577
0.998457
0.998346
0.998243
0.998151
0.99807
0.998001
0.997947
0.99791
0.997891
0.997889
0.997917
0.997968
0.998045
0.998144
0.998261
0.99839
0.998527
0.998664
0.998797
0.99892
0.999034
0.999138
0.999231
0.999314
0.999385
0.999439
0.999474
0.999489
0.999479
0.999444
0.999382
0.999298
0.999198
0.999086
0.998965
0.998838
0.998703
0.998564
0.998426
0.998297
0.998185
0.998096
0.99803
0.997986
0.99796
0.99796
0.997977
0.998015
0.998072
0.998146
0.998232
0.998328
0.998429
0.998537
0.998656
0.998786
0.99892
0.999048
0.999165
0.999276
0.999377
0.999458
0.999514
0.999554
0.999583
0.999589
0.999564
0.999524
0.999468
0.99938
0.999275
0.999166
0.999037
0.9989
0.998763
0.998626
0.998504
0.998402
0.998343
0.998306
0.998335
0.998404
0.998568
0.998791
0.999102
0.999488
0.999898
1.00062
1.00042
1.0002
0.99999
0.999784
0.999591
0.99941
0.999244
0.999087
0.998941
0.998802
0.998673
0.998549
0.998436
0.998325
0.998221
0.998128
0.99804
0.997961
0.997896
0.997847
0.997813
0.997804
0.997813
0.997854
0.997919
0.998007
0.998115
0.998239
0.998374
0.998515
0.998655
0.998792
0.998923
0.999046
0.999163
0.999269
0.999364
0.999445
0.999507
0.999548
0.999564
0.999554
0.999517
0.999458
0.999381
0.999292
0.999192
0.99908
0.998956
0.998821
0.998681
0.998546
0.998426
0.998326
0.998248
0.998191
0.998153
0.998137
0.998143
0.998173
0.998223
0.99829
0.998371
0.998462
0.998564
0.998676
0.998799
0.998932
0.999067
0.999194
0.99931