/*--------------------------------*- C++ -*----------------------------------*\
| =========                 |                                                 |
| \\      /  F ield         | OpenFOAM: The Open Source CFD Toolbox           |
|  \\    /   O peration     | Version:  2406                                  |
|   \\  /    A nd           | Website:  www.openfoam.com                      |
|    \\/     M anipulation  |                                                 |
\*---------------------------------------------------------------------------*/
FoamFile
{
    version     2.0;
    format      ascii;
    arch        "LSB;label=32;scalar=64";
    class       surfaceScalarField;
    location    "10";
    object      alphaPhi0.grout;
}
// * * * * * * * * * * * * * * * * * * * * * * * * * * * * * * * * * * * * * //

dimensions      [0 3 -1 0 0 0 0];

oriented        oriented;

internalField   nonuniform List<scalar> 
19800
(
-6.88356e-10
1.57446e-09
-1.27682e-09
3.21018e-09
-1.38289e-09
3.99437e-09
-1.09094e-09
4.28407e-09
-5.53493e-10
4.42213e-09
1.87826e-10
4.53108e-09
1.03479e-09
4.65207e-09
1.9577e-09
4.79538e-09
2.86567e-09
4.91161e-09
3.72607e-09
5.05287e-09
4.52212e-09
5.23186e-09
5.23591e-09
5.43831e-09
5.88215e-09
5.66074e-09
6.43307e-09
5.89642e-09
6.89977e-09
6.13648e-09
7.27094e-09
6.36976e-09
7.561e-09
6.6057e-09
7.78567e-09
6.84354e-09
7.93957e-09
7.06569e-09
8.03438e-09
7.27147e-09
8.08163e-09
7.46765e-09
8.08575e-09
7.64554e-09
8.05462e-09
7.79659e-09
7.99907e-09
7.92533e-09
7.92942e-09
8.03403e-09
7.85446e-09
8.1114e-09
7.78537e-09
8.14691e-09
7.73824e-09
8.14597e-09
7.73603e-09
8.12065e-09
7.78909e-09
8.05879e-09
7.91085e-09
7.98067e-09
8.07946e-09
7.84777e-09
8.3098e-09
7.687e-09
8.60897e-09
7.51306e-09
8.96299e-09
7.32527e-09
9.33963e-09
7.11108e-09
9.71109e-09
6.86119e-09
1.00691e-08
6.58752e-09
1.04194e-08
6.30885e-09
1.07632e-08
6.03687e-09
1.10849e-08
5.77275e-09
1.13581e-08
5.51475e-09
1.15595e-08
5.26685e-09
1.16759e-08
5.03956e-09
1.16975e-08
4.84299e-09
1.16068e-08
4.67927e-09
1.13759e-08
4.5422e-09
1.09732e-08
4.42414e-09
1.03771e-08
4.32213e-09
9.58455e-09
4.23921e-09
8.60882e-09
4.18062e-09
7.46887e-09
4.14888e-09
6.17905e-09
4.14111e-09
4.74494e-09
4.14974e-09
3.16724e-09
4.16569e-09
1.45059e-09
4.18234e-09
-3.88499e-10
4.19778e-09
-2.32e-09
4.21398e-09
-4.30606e-09
4.23238e-09
-6.30956e-09
4.25363e-09
-8.30047e-09
4.27197e-09
-1.02562e-08
4.27664e-09
-1.2157e-08
4.25973e-09
-1.39799e-08
4.21623e-09
-1.56955e-08
4.14671e-09
-1.72699e-08
4.05672e-09
-1.86697e-08
3.95401e-09
-1.98678e-08
3.84534e-09
-2.08449e-08
3.73498e-09
-2.15882e-08
3.62572e-09
-2.20878e-08
3.5212e-09
-2.23352e-08
3.42714e-09
-2.23174e-08
3.35026e-09
-2.20388e-08
3.29692e-09
-2.15153e-08
3.27079e-09
-2.07646e-08
3.27319e-09
-1.98057e-08
3.30632e-09
-1.8658e-08
3.37364e-09
-1.73429e-08
3.47755e-09
-1.58865e-08
3.61682e-09
-1.43174e-08
3.78719e-09
-1.26628e-08
3.9846e-09
-1.0946e-08
4.20723e-09
-9.19037e-09
4.45355e-09
-7.42238e-09
4.71954e-09
-5.66966e-09
4.99945e-09
-3.95643e-09
5.28909e-09
-2.30316e-09
5.58614e-09
-7.31235e-10
5.88639e-09
7.34242e-10
6.18227e-09
2.06868e-09
6.46641e-09
3.24938e-09
6.73183e-09
4.24611e-09
6.96653e-09
5.00887e-09
7.15781e-09
5.46036e-09
7.29852e-09
5.51288e-09
7.35787e-09
5.0423e-09
7.25739e-09
3.90993e-09
6.79952e-09
2.02722e-09
5.54686e-09
2.82387e-09
-1.12432e-09
3.24379e-09
-2.27429e-09
6.53394e-09
-2.62391e-09
8.00106e-09
-2.07599e-09
8.56038e-09
-9.8974e-10
8.71827e-09
5.07446e-10
8.8681e-09
2.23852e-09
9.07989e-09
4.05331e-09
9.33176e-09
5.91274e-09
9.64544e-09
7.69722e-09
9.98646e-09
9.34307e-09
1.03457e-08
1.08138e-08
1.07451e-08
1.21352e-08
1.11824e-08
1.32615e-08
1.16311e-08
1.41963e-08
1.20977e-08
1.49491e-08
1.25663e-08
1.55357e-08
1.30471e-08
1.59837e-08
1.34954e-08
1.62877e-08
1.39361e-08
1.64741e-08
1.43499e-08
1.65497e-08
1.4724e-08
1.65282e-08
1.50663e-08
1.64433e-08
1.53829e-08
1.63121e-08
1.56596e-08
1.61362e-08
1.58733e-08
1.59359e-08
1.60156e-08
1.57562e-08
1.60973e-08
1.56398e-08
1.61263e-08
1.56101e-08
1.6093e-08
1.56796e-08
1.59826e-08
1.58612e-08
1.57954e-08
1.61798e-08
1.55489e-08
1.66384e-08
1.52446e-08
1.72346e-08
1.4923e-08
1.792e-08
1.45345e-08
1.86366e-08
1.40888e-08
1.93594e-08
1.35936e-08
2.00794e-08
1.30694e-08
2.07969e-08
1.25347e-08
2.14988e-08
1.1998e-08
2.21503e-08
1.14627e-08
2.27083e-08
1.0938e-08
2.31353e-08
1.04412e-08
2.34026e-08
9.99077e-09
2.34784e-08
9.59612e-09
2.33182e-08
9.25519e-09
2.28645e-08
8.96044e-09
2.20609e-08
8.70647e-09
2.08727e-08
8.49375e-09
1.92968e-08
8.32711e-09
1.73548e-08
8.21079e-09
1.50764e-08
8.14361e-09
1.24839e-08
8.11673e-09
9.58736e-09
8.11924e-09
6.39264e-09
8.13729e-09
2.91647e-09
8.16359e-09
-8.02586e-10
8.19651e-09
-4.70412e-09
8.23717e-09
-8.7165e-09
8.28669e-09
-1.27713e-08
8.3357e-09
-1.68118e-08
8.37209e-09
-2.07912e-08
8.38387e-09
-2.46643e-08
8.35513e-09
-2.83775e-08
8.27814e-09
-3.18661e-08
8.15425e-09
-3.50599e-08
7.99268e-09
-3.78937e-08
7.80578e-09
-4.03157e-08
7.60444e-09
-4.22885e-08
7.39802e-09
-4.37842e-08
7.19094e-09
-4.47796e-08
6.99214e-09
-4.52547e-08
6.81287e-09
-4.51943e-08
6.66546e-09
-4.4604e-08
6.56044e-09
-4.35149e-08
6.5053e-09
-4.19633e-08
6.50583e-09
-3.99868e-08
6.56851e-09
-3.7626e-08
6.69979e-09
-3.49292e-08
6.90231e-09
-3.19523e-08
7.17262e-09
-2.8752e-08
7.50379e-09
-2.53798e-08
7.89007e-09
-2.18833e-08
8.32781e-09
-1.83133e-08
8.81178e-09
-1.47248e-08
9.33304e-09
-1.11704e-08
9.88181e-09
-7.69673e-09
1.04505e-08
-4.34801e-09
1.10309e-08
-1.17191e-09
1.16092e-08
1.78252e-09
1.21683e-08
4.46642e-09
1.26962e-08
6.82391e-09
1.31851e-08
8.78647e-09
1.36228e-08
1.02548e-08
1.39936e-08
1.10742e-08
1.4279e-08
1.10544e-08
1.44355e-08
9.94984e-09
1.43151e-08
7.50568e-09
1.35278e-08
3.70988e-09
1.11835e-08
5.63726e-09
-1.35834e-09
4.89842e-09
-2.64318e-09
9.91043e-09
-3.05984e-09
1.20638e-08
-2.47374e-09
1.29243e-08
-1.0878e-09
1.32728e-08
7.82071e-10
1.35133e-08
2.90012e-09
1.38326e-08
5.15493e-09
1.42046e-08
7.42405e-09
1.46493e-08
9.59284e-09
1.513e-08
1.16179e-08
1.56491e-08
1.34352e-08
1.61933e-08
1.50435e-08
1.679e-08
1.64327e-08
1.74159e-08
1.75769e-08
1.80365e-08
1.84674e-08
1.86588e-08
1.91763e-08
1.92905e-08
1.97081e-08
1.99144e-08
2.00478e-08
2.05023e-08
2.02315e-08
2.10567e-08
2.02937e-08
2.15948e-08
2.02504e-08
2.21065e-08
2.01147e-08
2.25625e-08
1.98966e-08
2.29484e-08
1.96183e-08
2.32664e-08
1.93257e-08
2.35145e-08
1.90673e-08
2.36809e-08
1.88732e-08
2.37532e-08
1.87661e-08
2.37248e-08
1.87787e-08
2.35972e-08
1.89477e-08
2.33776e-08
1.92962e-08
2.30754e-08
1.98228e-08
2.26947e-08
2.04979e-08
2.22313e-08
2.12701e-08
2.16792e-08
2.20944e-08
2.10398e-08
2.29433e-08
2.03292e-08
2.38037e-08
1.95684e-08
2.46655e-08
1.87719e-08
2.55094e-08
1.7951e-08
2.6301e-08
1.71207e-08
2.69964e-08
1.63021e-08
2.75505e-08
1.55178e-08
2.79201e-08
1.47849e-08
2.80574e-08
1.41108e-08
2.79033e-08
1.34955e-08
2.73895e-08
1.29367e-08
2.64536e-08
1.24355e-08
2.50578e-08
1.19977e-08
2.31977e-08
1.16308e-08
2.08942e-08
1.1338e-08
1.81765e-08
1.11168e-08
1.50681e-08
1.09573e-08
1.1581e-08
1.0845e-08
7.7273e-09
1.07705e-08
3.53229e-09
1.07289e-08
-9.55062e-10
1.07192e-08
-5.66356e-09
1.07411e-08
-1.05114e-08
1.07909e-08
-1.54212e-08
1.0858e-08
-2.03268e-08
1.09248e-08
-2.51703e-08
1.0971e-08
-2.98911e-08
1.09789e-08
-3.44165e-08
1.09396e-08
-3.86621e-08
1.08554e-08
-4.25402e-08
1.0737e-08
-4.59734e-08
1.05977e-08
-4.89016e-08
1.04484e-08
-5.12839e-08
1.02972e-08
-5.30817e-08
1.01523e-08
-5.42638e-08
1.0023e-08
-5.4805e-08
9.92323e-09
-5.46947e-08
9.86703e-09
-5.39438e-08
9.86579e-09
-5.25831e-08
9.92789e-09
-5.06546e-08
1.00615e-08
-4.82054e-08
1.02758e-08
-4.52895e-08
1.05779e-08
-4.1971e-08
1.09687e-08
-3.83202e-08
1.14426e-08
-3.44046e-08
1.19912e-08
-3.02843e-08
1.26076e-08
-2.60189e-08
1.32852e-08
-2.1673e-08
1.4014e-08
-1.7313e-08
1.47808e-08
-1.30006e-08
1.55729e-08
-8.79271e-09
1.63787e-08
-4.74811e-09
1.71834e-08
-9.27042e-10
1.79656e-08
2.61757e-09
1.87021e-08
5.83122e-09
1.9373e-08
8.63876e-09
1.99604e-08
1.09457e-08
2.04435e-08
1.26373e-08
2.08071e-08
1.35364e-08
2.10444e-08
1.34075e-08
2.11202e-08
1.19893e-08
2.08406e-08
9.0183e-09
1.96272e-08
4.51978e-09
1.61714e-08
8.04263e-09
-1.41317e-09
6.46364e-09
-2.709e-09
1.31653e-08
-3.0559e-09
1.60995e-08
-2.43334e-09
1.73111e-08
-9.45867e-10
1.79052e-08
1.11301e-09
1.83462e-08
3.38855e-09
1.87779e-08
5.83017e-09
1.93243e-08
8.27537e-09
1.9893e-08
1.05956e-08
2.04972e-08
1.2757e-08
2.11158e-08
1.47286e-08
2.17911e-08
1.64463e-08
2.24627e-08
1.78964e-08
2.31439e-08
1.90992e-08
2.38517e-08
2.00676e-08
2.45712e-08
2.08147e-08
2.52822e-08
2.13375e-08
2.59857e-08
2.16635e-08
2.6682e-08
2.18451e-08
2.7365e-08
2.18879e-08
2.80253e-08
2.17886e-08
2.86475e-08
2.15767e-08
2.92181e-08
2.1282e-08
2.97302e-08
2.09251e-08
3.01745e-08
2.0542e-08
3.05325e-08
2.01801e-08
3.07862e-08
1.98786e-08
3.09282e-08
1.96726e-08
3.09569e-08
1.96033e-08
3.08693e-08
1.97081e-08
3.0662e-08
2.00021e-08
3.03362e-08
2.0474e-08
2.98951e-08
2.10949e-08
2.93388e-08
2.18287e-08
2.86653e-08
2.26373e-08
2.78755e-08
2.34878e-08
2.69783e-08
2.43609e-08
2.59905e-08
2.52458e-08
2.49322e-08
2.61266e-08
2.38241e-08
2.69722e-08
2.26885e-08
2.7737e-08
2.15494e-08
2.83683e-08
2.04289e-08
2.88122e-08
1.93445e-08
2.90117e-08
1.83071e-08
2.89024e-08
1.7323e-08
2.8415e-08
1.63981e-08
2.74877e-08
1.55414e-08
2.60817e-08
1.47642e-08
2.41881e-08
1.40765e-08
2.18247e-08
1.34851e-08
1.90139e-08
1.29864e-08
1.57787e-08
1.25739e-08
1.21352e-08
1.22403e-08
8.10056e-09
1.19803e-08
3.70476e-09
1.17925e-08
-1.00046e-09
1.16772e-08
-5.94347e-09
1.16337e-08
-1.10437e-08
1.16557e-08
-1.62251e-08
1.1729e-08
-2.14201e-08
1.18324e-08
-2.65649e-08
1.19423e-08
-3.15874e-08
1.20394e-08
-3.64017e-08
1.21148e-08
-4.09111e-08
1.21705e-08
-4.50208e-08
1.22155e-08
-4.86508e-08
1.226e-08
-5.17401e-08
1.23112e-08
-5.42413e-08
1.23739e-08
-5.61213e-08
1.24536e-08
-5.73384e-08
1.25611e-08
-5.78661e-08
1.27076e-08
-5.76974e-08
1.29057e-08
-5.68476e-08
1.31646e-08
-5.53487e-08
1.34918e-08
-5.32424e-08
1.38955e-08
-5.05793e-08
1.43845e-08
-4.74215e-08
1.49641e-08
-4.38428e-08
1.56322e-08
-3.99202e-08
1.63812e-08
-3.5724e-08
1.72024e-08
-3.1318e-08
1.8088e-08
-2.67682e-08
1.90275e-08
-2.21458e-08
2.00055e-08
-1.75204e-08
2.10037e-08
-1.29556e-08
2.20465e-08
-8.516e-09
2.3032e-08
-4.27046e-09
2.39464e-08
-2.84829e-10
2.48464e-08
3.39433e-09
2.56597e-08
6.70409e-09
2.6348e-08
9.56603e-09
2.68812e-08
1.18859e-08
2.72509e-08
1.35503e-08
2.74551e-08
1.43805e-08
2.74893e-08
1.41318e-08
2.7327e-08
1.2558e-08
2.67482e-08
9.43313e-09
2.50307e-08
4.78272e-09
2.05087e-08
1.01033e-08
-1.34329e-09
8.00889e-09
-2.53504e-09
1.63906e-08
-2.76536e-09
2.00899e-08
-2.06515e-09
2.16572e-08
-5.33191e-10
2.24924e-08
1.55888e-09
2.31851e-08
3.95419e-09
2.38217e-08
6.44229e-09
2.45041e-08
8.92654e-09
2.52059e-08
1.13128e-08
2.58677e-08
1.35384e-08
2.65833e-08
1.55296e-08
2.72753e-08
1.72767e-08
2.79801e-08
1.87697e-08
2.86881e-08
2.00016e-08
2.9406e-08
2.0975e-08
3.01392e-08
2.17236e-08
3.08832e-08
2.2246e-08
3.16357e-08
2.25643e-08
3.23901e-08
2.27251e-08
3.314e-08
2.27286e-08
3.3882e-08
2.2576e-08
3.46038e-08
2.23039e-08
3.52879e-08
2.19393e-08
3.5919e-08
2.14938e-08
3.64808e-08
2.10035e-08
3.69534e-08
2.05266e-08
3.73197e-08
2.01107e-08
3.75684e-08
1.97902e-08
3.76891e-08
1.96048e-08
3.76702e-08
1.95941e-08
3.75032e-08
1.97758e-08
3.7187e-08
2.01379e-08
3.67238e-08
2.06504e-08
3.6112e-08
2.12785e-08
3.53455e-08
2.19897e-08
3.44213e-08
2.27585e-08
3.33475e-08
2.35697e-08
3.21444e-08
2.44148e-08
3.08374e-08
2.52792e-08
2.94507e-08
2.61319e-08
2.80059e-08
2.69239e-08
2.65248e-08
2.75973e-08
2.503e-08
2.8092e-08
2.35429e-08
2.83465e-08
2.20816e-08
2.82954e-08
2.06619e-08
2.78712e-08
1.92986e-08
2.70132e-08
1.80072e-08
2.56798e-08
1.68037e-08
2.38615e-08
1.57028e-08
2.1563e-08
1.47144e-08
1.88061e-08
1.38432e-08
1.56135e-08
1.30907e-08
1.20039e-08
1.24571e-08
7.99739e-09
1.1943e-08
3.62565e-09
1.15502e-08
-1.06063e-09
1.12811e-08
-5.99417e-09
1.11346e-08
-1.11007e-08
1.11034e-08
-1.63093e-08
1.11711e-08
-2.15538e-08
1.13148e-08
-2.6765e-08
1.15098e-08
-3.1861e-08
1.17372e-08
-3.67449e-08
1.19879e-08
-4.13123e-08
1.22619e-08
-4.54663e-08
1.25644e-08
-4.91281e-08
1.28994e-08
-5.22378e-08
1.32676e-08
-5.47469e-08
1.36679e-08
-5.6611e-08
1.4102e-08
-5.78034e-08
1.45763e-08
-5.82847e-08
1.50995e-08
-5.8053e-08
1.56787e-08
-5.7126e-08
1.63192e-08
-5.55363e-08
1.7026e-08
-5.3326e-08
1.78054e-08
-5.0549e-08
1.86637e-08
-4.72744e-08
1.96023e-08
-4.35811e-08
2.06155e-08
-3.95473e-08
2.16941e-08
-3.52437e-08
2.28296e-08
-3.07376e-08
2.40132e-08
-2.61006e-08
2.52313e-08
-2.14056e-08
2.64655e-08
-1.67068e-08
2.77048e-08
-1.21143e-08
2.88795e-08
-7.66885e-09
3.00121e-08
-3.43812e-09
3.10857e-08
4.98908e-10
3.19895e-08
4.10285e-09
3.27418e-08
7.30293e-09
3.33131e-08
1.00357e-08
3.36729e-08
1.22122e-08
3.38114e-08
1.37182e-08
3.37386e-08
1.43991e-08
3.34645e-08
1.40222e-08
3.2969e-08
1.23683e-08
3.20167e-08
9.26611e-09
2.97695e-08
4.72884e-09
2.42616e-08
1.18762e-08
-1.15393e-09
9.46179e-09
-2.19505e-09
1.94408e-08
-2.2704e-09
2.39257e-08
-1.45653e-09
2.58808e-08
1.51386e-10
2.6951e-08
2.21277e-09
2.78055e-08
4.63073e-09
2.8679e-08
7.14026e-09
2.95041e-08
9.61713e-09
3.02894e-08
1.20034e-08
3.10535e-08
1.4226e-08
3.17899e-08
1.62291e-08
3.24929e-08
1.79809e-08
3.31789e-08
1.94846e-08
3.38622e-08
2.07318e-08
3.45589e-08
2.17175e-08
3.5273e-08
2.24752e-08
3.60015e-08
2.2999e-08
3.67495e-08
2.33128e-08
3.752e-08
2.34642e-08
3.83105e-08
2.34457e-08
3.91146e-08
2.32548e-08
3.99155e-08
2.2929e-08
4.0692e-08
2.24933e-08
4.14279e-08
2.19573e-08
4.21071e-08
2.13605e-08
4.27064e-08
2.07662e-08
4.3201e-08
2.02227e-08
4.35704e-08
1.97634e-08
4.37966e-08
1.94305e-08
4.38632e-08
1.92701e-08
4.37587e-08
1.93038e-08
4.34787e-08
1.95175e-08
4.30191e-08
1.98767e-08
4.23709e-08
2.03484e-08
4.15236e-08
2.091e-08
4.04751e-08
2.15479e-08
3.92376e-08
2.22535e-08
3.78349e-08
2.30181e-08
3.62937e-08
2.38253e-08
3.46364e-08
2.4643e-08
3.28816e-08
2.54221e-08
3.10487e-08
2.61034e-08
2.9162e-08
2.6624e-08
2.7249e-08
2.69205e-08
2.53376e-08
2.6927e-08
2.34526e-08
2.65763e-08
2.16158e-08
2.58075e-08
1.98478e-08
2.45773e-08
1.8169e-08
2.28717e-08
1.66013e-08
2.06898e-08
1.51617e-08
1.80513e-08
1.38662e-08
1.49777e-08
1.27265e-08
1.14881e-08
1.17508e-08
7.60346e-09
1.09453e-08
3.35516e-09
1.03149e-08
-1.20941e-09
9.8635e-09
-6.02942e-09
9.59055e-09
-1.10386e-08
9.48841e-09
-1.61723e-08
9.5408e-09
-2.13652e-08
9.72512e-09
-2.65429e-08
1.00179e-08
-3.16146e-08
1.04011e-08
-3.64743e-08
1.08651e-08
-4.10134e-08
1.14072e-08
-4.51352e-08
1.20266e-08
-4.87635e-08
1.27195e-08
-5.18398e-08
1.34783e-08
-5.43133e-08
1.42949e-08
-5.6134e-08
1.5165e-08
-5.72744e-08
1.60891e-08
-5.76983e-08
1.70713e-08
-5.74036e-08
1.81117e-08
-5.64085e-08
1.92102e-08
-5.47447e-08
2.03677e-08
-5.24552e-08
2.15869e-08
-4.95987e-08
2.28698e-08
-4.62501e-08
2.42131e-08
-4.24922e-08
2.5608e-08
-3.84029e-08
2.70447e-08
-3.40533e-08
2.85151e-08
-2.95145e-08
3.00085e-08
-2.48614e-08
3.15051e-08
-2.01686e-08
3.29764e-08
-1.55129e-08
3.43926e-08
-1.09735e-08
3.57236e-08
-6.62412e-09
3.69369e-08
-2.52795e-09
3.79978e-08
1.26039e-09
3.887e-08
4.68151e-09
3.9522e-08
7.67073e-09
3.99275e-08
1.018e-08
4.00625e-08
1.2134e-08
3.99139e-08
1.34234e-08
3.94966e-08
1.39192e-08
3.88443e-08
1.34176e-08
3.79542e-08
1.17306e-08
3.65867e-08
8.74409e-09
3.38175e-08
4.47504e-09
2.74385e-08
1.3373e-08
-8.55363e-10
1.07808e-08
-1.66729e-09
2.21838e-08
-1.56788e-09
2.73977e-08
-6.39553e-10
2.97395e-08
1.00359e-09
3.10751e-08
3.10756e-09
3.21048e-08
5.45995e-09
3.31085e-08
7.92387e-09
3.40628e-08
1.03764e-08
3.49522e-08
1.27323e-08
3.57679e-08
1.49186e-08
3.65112e-08
1.69021e-08
3.71963e-08
1.86493e-08
3.78506e-08
2.01653e-08
3.84911e-08
2.14274e-08
3.91335e-08
2.24271e-08
3.97886e-08
2.32034e-08
4.04677e-08
2.37477e-08
4.11858e-08
2.4081e-08
4.19503e-08
2.4245e-08
4.27574e-08
2.42221e-08
4.35957e-08
2.4006e-08
4.44489e-08
2.36385e-08
4.53005e-08
2.31444e-08
4.61345e-08
2.25282e-08
4.69289e-08
2.18277e-08
4.76527e-08
2.11088e-08
4.82733e-08
2.04221e-08
4.87628e-08
1.98033e-08
4.90987e-08
1.92997e-08
4.92612e-08
1.89632e-08
4.92341e-08
1.88167e-08
4.90032e-08
1.88418e-08
4.85548e-08
1.90022e-08
4.78744e-08
1.92726e-08
4.69523e-08
1.96443e-08
4.57903e-08
2.01153e-08
4.44044e-08
2.06802e-08
4.2819e-08
2.13271e-08
4.10585e-08
2.20359e-08
3.91412e-08
2.2775e-08
3.7083e-08
2.34993e-08
3.49033e-08
2.4153e-08
3.26304e-08
2.4674e-08
3.02989e-08
2.49965e-08
2.79445e-08
2.50521e-08
2.55987e-08
2.47718e-08
2.32882e-08
2.4094e-08
2.10374e-08
2.29786e-08
1.88755e-08
2.1402e-08
1.6829e-08
1.93663e-08
1.49279e-08
1.68865e-08
1.31996e-08
1.39808e-08
1.16655e-08
1.06661e-08
1.03413e-08
6.96204e-09
9.2374e-09
2.89788e-09
8.36153e-09
-1.48343e-09
7.71865e-09
-6.12811e-09
7.30941e-09
-1.0978e-08
7.1275e-09
-1.59743e-08
7.15847e-09
-2.10522e-08
7.382e-09
-2.61325e-08
7.77701e-09
-3.11167e-08
8.32681e-09
-3.58926e-08
9.02114e-09
-4.03497e-08
9.85353e-09
-4.43937e-08
1.08163e-08
-4.79519e-08
1.18969e-08
-5.09657e-08
1.30791e-08
-5.33814e-08
1.4347e-08
-5.51463e-08
1.569e-08
-5.62171e-08
1.7102e-08
-5.6586e-08
1.85799e-08
-5.62317e-08
2.01171e-08
-5.51768e-08
2.17069e-08
-5.34513e-08
2.33447e-08
-5.10996e-08
2.50283e-08
-4.81847e-08
2.67535e-08
-4.47864e-08
2.85116e-08
-4.09886e-08
3.02909e-08
-3.68688e-08
3.20814e-08
-3.25006e-08
3.38736e-08
-2.79631e-08
3.56515e-08
-2.33407e-08
3.73896e-08
-1.8713e-08
3.90582e-08
-1.41539e-08
4.06261e-08
-9.7403e-09
4.20569e-08
-5.54893e-09
4.33108e-08
-1.64504e-09
4.43509e-08
1.92023e-09
4.51419e-08
5.08911e-09
4.56488e-08
7.80263e-09
4.58484e-08
1.00215e-08
4.57294e-08
1.16908e-08
4.52818e-08
1.27242e-08
4.45227e-08
1.30199e-08
4.34914e-08
1.24108e-08
4.21956e-08
1.07415e-08
4.04046e-08
7.95533e-09
3.71413e-08
4.07358e-09
3.00139e-08
1.45777e-08
-4.89381e-10
1.19725e-08
-9.62394e-10
2.46432e-08
-6.56337e-10
3.04708e-08
4.06229e-10
3.31187e-08
2.03405e-09
3.46368e-08
4.14281e-09
3.58827e-08
6.43035e-09
3.70049e-08
8.81887e-09
3.80542e-08
1.11951e-08
3.90082e-08
1.3477e-08
3.98497e-08
1.56035e-08
4.0588e-08
1.75548e-08
4.12466e-08
1.92872e-08
4.18518e-08
2.08044e-08
4.24241e-08
2.20771e-08
4.29873e-08
2.31e-08
4.35646e-08
2.39147e-08
4.41798e-08
2.45041e-08
4.48523e-08
2.48799e-08
4.55871e-08
2.50745e-08
4.63809e-08
2.50651e-08
4.72264e-08
2.48466e-08
4.81122e-08
2.44606e-08
4.90236e-08
2.3926e-08
4.99409e-08
2.32394e-08
5.0834e-08
2.24363e-08
5.16646e-08
2.15863e-08
5.23959e-08
2.07455e-08
5.29971e-08
1.99535e-08
5.34416e-08
1.92607e-08
5.37024e-08
1.87208e-08
5.37528e-08
1.83567e-08
5.35683e-08
1.815e-08
5.31275e-08
1.80692e-08
5.24145e-08
1.81003e-08
5.14227e-08
1.8248e-08
5.01581e-08
1.85187e-08
4.86381e-08
1.89069e-08
4.68852e-08
1.93959e-08
4.4919e-08
1.99628e-08
4.27548e-08
2.05799e-08
4.04082e-08
2.12099e-08
3.79022e-08
2.18034e-08
3.52698e-08
2.22999e-08
3.25513e-08
2.263e-08
2.97864e-08
2.27208e-08
2.70102e-08
2.25005e-08
2.42534e-08
2.19132e-08
2.15472e-08
2.09141e-08
1.89255e-08
1.94834e-08
1.64265e-08
1.76208e-08
1.40915e-08
1.53363e-08
1.19581e-08
1.26423e-08
1.00563e-08
9.55075e-09
8.4067e-09
6.07785e-09
7.02308e-09
2.24969e-09
5.91479e-09
-1.8955e-09
5.08852e-09
-6.31072e-09
4.54707e-09
-1.09454e-08
4.28686e-09
-1.5746e-08
4.29674e-09
-2.06485e-08
4.55985e-09
-2.55697e-08
5.05822e-09
-3.04055e-08
5.77683e-09
-3.50404e-08
6.70438e-09
-3.9365e-08
7.83003e-09
-4.32891e-08
9.1387e-09
-4.67431e-08
1.06091e-08
-4.96682e-08
1.22163e-08
-5.20062e-08
1.39376e-08
-5.37002e-08
1.57559e-08
-5.47051e-08
1.76585e-08
-5.50104e-08
1.9634e-08
-5.46023e-08
2.16691e-08
-5.34983e-08
2.37497e-08
-5.17271e-08
2.58651e-08
-4.93344e-08
2.80063e-08
-4.63873e-08
3.01625e-08
-4.2968e-08
3.23188e-08
-3.91599e-08
3.44606e-08
-3.50409e-08
3.65766e-08
-3.06907e-08
3.86544e-08
-2.61975e-08
4.06746e-08
-2.165e-08
4.26106e-08
-1.7129e-08
4.44337e-08
-1.27122e-08
4.6111e-08
-8.479e-09
4.76015e-08
-4.5041e-09
4.8861e-08
-8.50951e-10
4.98513e-08
2.42908e-09
5.05377e-08
5.28806e-09
5.0883e-08
7.68022e-09
5.08617e-08
9.56495e-09
5.04701e-08
1.09073e-08
4.97115e-08
1.16472e-08
4.86123e-08
1.17203e-08
4.72197e-08
1.10169e-08
4.55503e-08
9.41806e-09
4.33733e-08
6.92011e-09
3.96769e-08
3.54168e-09
3.19458e-08
1.54699e-08
-6.56151e-11
1.29617e-08
-1.37355e-10
2.66622e-08
4.06035e-10
3.29911e-08
1.59978e-09
3.59181e-08
3.28447e-09
3.75803e-08
5.30157e-09
3.89297e-08
7.50404e-09
4.01491e-08
9.78543e-09
4.12664e-08
1.20452e-08
4.22522e-08
1.42232e-08
4.30957e-08
1.62703e-08
4.38104e-08
1.81675e-08
4.44212e-08
1.98662e-08
4.49564e-08
2.13734e-08
4.54422e-08
2.26584e-08
4.59146e-08
2.37188e-08
4.64072e-08
2.45904e-08
4.69476e-08
2.52412e-08
4.75545e-08
2.56754e-08
4.82358e-08
2.59209e-08
4.89942e-08
2.59507e-08
4.98279e-08
2.57573e-08
5.07288e-08
2.53766e-08
5.16805e-08
2.48171e-08
5.26567e-08
2.40679e-08
5.36215e-08
2.31655e-08
5.45353e-08
2.21851e-08
5.53609e-08
2.11869e-08
5.60641e-08
2.02113e-08
5.66105e-08
1.93086e-08
5.69632e-08
1.85341e-08
5.70842e-08
1.79139e-08
5.69399e-08
1.74354e-08
5.65046e-08
1.70767e-08
5.57631e-08
1.68359e-08
5.47124e-08
1.67287e-08
5.33601e-08
1.6766e-08
5.17219e-08
1.69399e-08
4.98161e-08
1.72299e-08
4.76591e-08
1.76139e-08
4.52665e-08
1.8071e-08
4.26574e-08
1.85737e-08
3.98594e-08
1.90794e-08
3.69097e-08
1.95277e-08
3.38504e-08
1.98451e-08
3.0723e-08
1.99547e-08
2.75639e-08
1.97853e-08
2.44101e-08
1.92827e-08
2.12986e-08
1.84063e-08
1.82688e-08
1.7139e-08
1.53716e-08
1.54772e-08
1.2658e-08
1.34238e-08
1.01737e-08
1.09826e-08
7.95394e-09
8.15845e-09
6.0225e-09
4.96267e-09
4.39477e-09
1.41802e-09
3.08198e-09
-2.44149e-09
2.09329e-09
-6.57495e-09
1.43477e-09
-1.09389e-08
1.10671e-09
-1.54848e-08
1.10206e-09
-2.01499e-08
1.40809e-09
-2.48485e-08
2.01014e-09
-2.94736e-08
2.89466e-09
-3.39093e-08
4.04885e-09
-3.80503e-08
5.4569e-09
-4.18119e-08
7.09623e-09
-4.51276e-08
8.93719e-09
-4.79367e-08
1.09476e-08
-5.0176e-08
1.30987e-08
-5.17848e-08
1.53675e-08
-5.27149e-08
1.77348e-08
-5.29588e-08
2.01805e-08
-5.25041e-08
2.26851e-08
-5.13645e-08
2.52267e-08
-4.95671e-08
2.77883e-08
-4.71598e-08
3.03537e-08
-4.42125e-08
3.29048e-08
-4.08075e-08
3.54216e-08
-3.70262e-08
3.78866e-08
-3.29476e-08
4.02861e-08
-2.86581e-08
4.26042e-08
-2.42517e-08
4.4818e-08
-1.98199e-08
4.69002e-08
-1.54475e-08
4.88228e-08
-1.12198e-08
5.05532e-08
-7.21954e-09
5.20521e-08
-3.51528e-09
5.32771e-08
-1.66685e-10
5.41897e-08
2.77185e-09
5.47561e-08
5.26379e-09
5.49441e-08
7.28456e-09
5.47259e-08
8.79766e-09
5.40871e-08
9.78503e-09
5.30372e-08
1.02103e-08
5.16177e-08
1.00521e-08
4.98922e-08
9.26555e-09
4.78875e-08
7.78131e-09
4.53805e-08
5.65428e-09
4.13474e-08
2.89082e-09
3.31879e-08
1.60324e-08
3.83539e-10
1.37134e-08
7.73254e-10
2.82038e-08
1.61349e-09
3.48918e-08
2.90956e-09
3.79972e-08
4.64322e-09
3.97994e-08
6.56504e-09
4.1179e-08
8.64937e-09
4.24442e-08
1.07876e-08
4.3587e-08
1.29018e-08
4.45664e-08
1.49509e-08
4.53785e-08
1.68945e-08
4.60394e-08
1.87153e-08
4.65733e-08
2.03637e-08
4.70169e-08
2.18566e-08
4.74046e-08
2.31604e-08
4.7778e-08
2.4268e-08
4.81745e-08
2.52052e-08
4.86235e-08
2.5929e-08
4.91457e-08
2.64394e-08
4.97554e-08
2.67593e-08
5.04626e-08
2.68555e-08
5.1268e-08
2.67124e-08
5.21619e-08
2.63556e-08
5.31216e-08
2.57838e-08
5.41275e-08
2.49831e-08
5.51373e-08
2.3992e-08
5.61104e-08
2.28886e-08
5.70117e-08
2.17329e-08
5.78023e-08
2.05632e-08
5.84377e-08
1.94291e-08
5.88696e-08
1.83895e-08
5.90507e-08
1.74786e-08
5.89411e-08
1.66947e-08
5.85144e-08
1.60277e-08
5.77558e-08
1.54865e-08
5.66619e-08
1.50939e-08
5.52384e-08
1.48631e-08
5.34978e-08
1.47851e-08
5.14556e-08
1.48388e-08
4.91284e-08
1.5006e-08
4.65345e-08
1.52739e-08
4.36979e-08
1.56241e-08
4.06509e-08
1.60188e-08
3.74332e-08
1.6397e-08
3.40878e-08
1.6682e-08
3.06542e-08
1.67953e-08
2.71755e-08
1.66674e-08
2.36857e-08
1.62472e-08
2.02301e-08
1.5503e-08
1.68614e-08
1.44182e-08
1.36381e-08
1.29844e-08
1.06186e-08
1.11946e-08
7.85289e-09
9.04182e-09
5.37838e-09
6.52241e-09
3.21987e-09
3.64294e-09
1.39411e-09
4.23432e-10
-8.52924e-11
-3.10554e-09
-1.20568e-09
-6.9085e-09
-1.95679e-09
-1.09488e-08
-2.33386e-09
-1.51831e-08
-2.33939e-09
-1.95506e-08
-1.982e-09
-2.39652e-08
-1.27335e-09
-2.83195e-08
-2.26198e-10
-3.2501e-08
1.14434e-09
-3.64104e-08
2.81705e-09
-3.99695e-08
4.762e-09
-4.31142e-08
6.94225e-09
-4.57807e-08
9.31963e-09
-4.79009e-08
1.18606e-08
-4.94106e-08
1.45372e-08
-5.02642e-08
1.73236e-08
-5.04413e-08
2.01925e-08
-4.99514e-08
2.31163e-08
-4.87914e-08
2.60682e-08
-4.69905e-08
2.90239e-08
-4.45979e-08
3.196e-08
-4.1685e-08
3.4851e-08
-3.83319e-08
3.76721e-08
-3.46172e-08
4.04035e-08
-3.06221e-08
4.30289e-08
-2.64391e-08
4.55295e-08
-2.21663e-08
4.78808e-08
-1.78962e-08
5.00562e-08
-1.37175e-08
5.20277e-08
-9.72258e-09
5.37624e-08
-5.99715e-09
5.52242e-08
-2.60587e-09
5.63778e-08
3.96361e-10
5.71867e-08
2.95552e-09
5.76152e-08
5.04117e-09
5.76354e-08
6.64088e-09
5.72249e-08
7.73861e-09
5.63692e-08
8.3417e-09
5.50769e-08
8.43872e-09
5.33898e-08
8.04903e-09
5.13832e-08
7.20069e-09
4.91092e-08
5.87935e-09
4.63579e-08
4.19462e-09
4.20979e-08
2.14233e-09
3.37081e-08
1.6253e-08
8.5713e-10
1.41982e-08
1.72849e-09
2.92348e-08
2.89528e-09
3.61651e-08
4.34417e-09
3.93286e-08
6.0308e-09
4.11502e-08
7.88256e-09
4.25482e-08
9.82372e-09
4.38042e-08
1.17868e-08
4.49084e-08
1.37308e-08
4.58278e-08
1.56287e-08
4.65618e-08
1.7445e-08
4.71285e-08
1.91749e-08
4.75558e-08
2.07665e-08
4.78846e-08
2.22443e-08
4.81562e-08
2.35697e-08
4.84142e-08
2.47285e-08
4.86964e-08
2.57373e-08
4.90365e-08
2.6547e-08
4.94557e-08
2.71539e-08
4.99835e-08
2.75711e-08
5.06259e-08
2.7755e-08
5.13825e-08
2.76808e-08
5.22429e-08
2.73638e-08
5.31964e-08
2.6795e-08
5.42005e-08
2.59591e-08
5.5227e-08
2.48953e-08
5.62394e-08
2.36798e-08
5.71985e-08
2.23678e-08
5.80586e-08
2.0994e-08
5.87659e-08
1.96093e-08
5.92637e-08
1.82801e-08
5.94997e-08
1.70523e-08
5.94312e-08
1.59369e-08
5.90279e-08
1.49356e-08
5.82716e-08
1.40658e-08
5.71553e-08
1.33564e-08
5.56814e-08
1.28231e-08
5.38597e-08
1.24588e-08
5.17042e-08
1.22451e-08
4.92333e-08
1.21694e-08
4.64698e-08
1.22268e-08
4.34435e-08
1.24056e-08
4.01911e-08
1.26709e-08
3.67541e-08
1.29611e-08
3.3175e-08
1.31971e-08
2.94944e-08
1.33004e-08
2.57525e-08
1.32072e-08
2.19932e-08
1.28739e-08
1.82685e-08
1.22746e-08
1.4639e-08
1.13921e-08
1.117e-08
1.02106e-08
7.9235e-09
8.71097e-09
4.95054e-09
6.87417e-09
2.28825e-09
4.68846e-09
-3.83742e-11
2.15657e-09
-2.01107e-09
-7.03142e-10
-3.61299e-09
-3.86262e-09
-4.82726e-09
-7.29164e-09
-5.63893e-09
-1.09602e-08
-6.0386e-09
-1.48308e-08
-6.02454e-09
-1.88458e-08
-5.60183e-09
-2.29206e-08
-4.78015e-09
-2.69508e-08
-3.57261e-09
-3.08298e-08
-1.99758e-09
-3.44665e-08
-8.19652e-11
-3.7789e-08
2.13755e-09
-4.07345e-08
4.61787e-09
-4.32354e-08
7.31628e-09
-4.52186e-08
1.01955e-08
-4.66178e-08
1.32232e-08
-4.73887e-08
1.63681e-08
-4.75104e-08
1.95962e-08
-4.69891e-08
2.28727e-08
-4.58251e-08
2.61684e-08
-4.40444e-08
2.94519e-08
-4.16975e-08
3.26928e-08
-3.88549e-08
3.58587e-08
-3.55923e-08
3.89196e-08
-3.19849e-08
4.18518e-08
-2.81164e-08
4.46355e-08
-2.40843e-08
4.72488e-08
-1.99891e-08
4.96682e-08
-1.59247e-08
5.18717e-08
-1.19844e-08
5.38355e-08
-8.26345e-09
5.55286e-08
-4.84705e-09
5.69182e-08
-1.801e-09
5.79757e-08
8.20417e-10
5.86681e-08
2.97051e-09
5.89593e-08
4.62554e-09
5.88244e-08
5.77905e-09
5.8241e-08
6.436e-09
5.71917e-08
6.62903e-09
5.57044e-08
6.38738e-09
5.38123e-08
5.7726e-09
5.16215e-08
4.89137e-09
4.91682e-08
3.78026e-09
4.62662e-08
2.59763e-09
4.19073e-08
1.32544e-09
3.34933e-08
1.61268e-08
1.36928e-09
1.44067e-08
2.71878e-09
2.96566e-08
4.17203e-09
3.66672e-08
5.78885e-09
3.98613e-08
7.43813e-09
4.16087e-08
9.19414e-09
4.29625e-08
1.09632e-08
4.41369e-08
1.27294e-08
4.51341e-08
1.44848e-08
4.59351e-08
1.62153e-08
4.654e-08
1.78922e-08
4.69672e-08
1.95231e-08
4.72465e-08
2.10567e-08
4.74326e-08
2.25197e-08
4.75627e-08
2.38675e-08
4.76832e-08
2.50821e-08
4.78323e-08
2.6172e-08
4.80486e-08
2.70829e-08
4.83667e-08
2.78043e-08
4.87975e-08
2.83363e-08
4.93577e-08
2.86237e-08
5.00459e-08
2.86331e-08
5.08498e-08
2.83713e-08
5.1752e-08
2.78239e-08
5.27281e-08
2.69734e-08
5.37473e-08
2.58559e-08
5.47741e-08
2.45403e-08
5.57668e-08
2.30742e-08
5.66737e-08
2.14903e-08
5.74345e-08
1.98438e-08
5.79881e-08
1.82105e-08
5.8279e-08
1.66483e-08
5.82612e-08
1.51806e-08
5.78984e-08
1.38202e-08
5.71658e-08
1.25937e-08
5.60505e-08
1.15364e-08
5.45511e-08
1.06688e-08
5.26752e-08
9.98812e-09
5.04377e-08
9.48151e-09
4.78595e-08
9.14309e-09
4.49684e-08
8.97434e-09
4.17991e-08
8.96777e-09
3.83916e-08
9.08963e-09
3.47882e-08
9.27696e-09
3.10311e-08
9.451e-09
2.71618e-08
9.53707e-09
2.32236e-08
9.4789e-09
1.92667e-08
9.24109e-09
1.53501e-08
8.80149e-09
1.15404e-08
8.13994e-09
7.90617e-09
7.23029e-09
4.50967e-09
6.04027e-09
1.4008e-09
4.5391e-09
-1.38466e-09
2.70819e-09
-3.82145e-09
5.4805e-10
-5.88898e-09
-1.92352e-09
-7.56662e-09
-4.68042e-09
-8.83282e-09
-7.69775e-09
-9.66802e-09
-1.09526e-08
-1.00587e-08
-1.44139e-08
-9.99998e-09
-1.80288e-08
-9.49466e-09
-2.17169e-08
-8.5519e-09
-2.53791e-08
-7.18643e-09
-2.89173e-08
-5.42058e-09
-3.22493e-08
-3.28695e-09
-3.53094e-08
-8.28214e-10
-3.80344e-08
1.90769e-09
-4.03523e-08
4.87461e-09
-4.21856e-08
8.03248e-09
-4.34671e-08
1.13455e-08
-4.41543e-08
1.47776e-08
-4.42282e-08
1.82901e-08
-4.36836e-08
2.18443e-08
-4.25324e-08
2.54043e-08
-4.07955e-08
2.89393e-08
-3.85246e-08
3.24113e-08
-3.57877e-08
3.57826e-08
-3.26547e-08
3.90189e-08
-2.91974e-08
4.20926e-08
-2.55005e-08
4.49787e-08
-2.16629e-08
4.76513e-08
-1.77843e-08
5.00868e-08
-1.39609e-08
5.2267e-08
-1.02924e-08
5.41731e-08
-6.87605e-09
5.57796e-08
-3.7928e-09
5.70592e-08
-1.11241e-09
5.79899e-08
1.10697e-09
5.8547e-08
2.82979e-09
5.86949e-08
4.03561e-09
5.84221e-08
4.72718e-09
5.76917e-08
4.9323e-09
5.65148e-08
4.71064e-09
5.48879e-08
4.13872e-09
5.28731e-08
3.31713e-09
5.05719e-08
2.43122e-09
4.80427e-08
1.56776e-09
4.51023e-08
9.25865e-10
4.0777e-08
4.7249e-10
3.25451e-08
1.56545e-08
1.8622e-09
1.43946e-08
3.69675e-09
2.95746e-08
5.45465e-09
3.6486e-08
7.14876e-09
3.95981e-08
8.80756e-09
4.12539e-08
1.04242e-08
4.24681e-08
1.19973e-08
4.34807e-08
1.35552e-08
4.4307e-08
1.51112e-08