/*--------------------------------*- C++ -*----------------------------------*\
| =========                 |                                                 |
| \\      /  F ield         | OpenFOAM: The Open Source CFD Toolbox           |
|  \\    /   O peration     | Version:  2406                                  |
|   \\  /    A nd           | Website:  www.openfoam.com                      |
|    \\/     M anipulation  |                                                 |
\*---------------------------------------------------------------------------*/
FoamFile
{
    version     2.0;
    format      ascii;
    arch        "LSB;label=32;scalar=64";
    class       volScalarField;
    location    "10";
    object      nu1_field;
}
// * * * * * * * * * * * * * * * * * * * * * * * * * * * * * * * * * * * * * //

dimensions      [0 2 -1 0 0 0 0];

internalField   nonuniform List<scalar> 
10000
(
99984.9
99954.2
99933.6
99923.3
99918.5
99912.3
99908.6
99903.6
99903
99902.1
99900.2
99898.1
99895
99892.6
99889.6
99887.3
99884.7
99881.5
99878.9
99876.5
99873.9
99871.5
99869.6
99867.9
99866.2
99864.9
99864.4
99864.2
99864
99863.8
99864
99865.6
99867.6
99869.3
99871.3
99874.4
99879
99884.2
99889.3
99893.7
99898.2
99903
99908.3
99913.6
99918.3
99922.6
99926.8
99931.4
99936.2
99940.8
99944.7
99947.7
99949.9
99951.7
99953.5
99955.4
99957.2
99958.5
99959
99958.8
99958.1
99957.3
99956.7
99956.3
99956
99955.5
99954.7
99953.5
99952.1
99950.4
99948.5
99946.3
99943.5
99940.3
99937
99933.6
99929.9
99925.9
99921.5
99917
99912.5
99907.9
99903.2
99898.5
99893.8
99889.4
99885.1
99881
99877
99873.5
99870.5
99868.1
99866.7
99867
99869.7
99875
99884.7
99901.9
99933.2
99986.2
99992.9
99964
99938.8
99916.3
99909.6
99902.4
99896.9
99894
99888.3
99885.8
99885.4
99885.8
99884.2
99884.2
99883.8
99882.8
99881.7
99880.8
99879.5
99877.7
99876.8
99876
99874.2
99872
99871.1
99870.9
99869.9
99868
99866.2
99865.4
99865.5
99865.3
99864.8
99864.8
99866.5
99870.2
99874.8
99879.3
99883.5
99887.9
99893.1
99899.1
99905.7
99912.2
99918.6
99925.4
99933
99941.5
99950.3
99958.7
99965.9
99972
99977.4
99982.5
99987.7
99992.5
99996.6
99999.4
100001
100001
99999.7
99998.4
99996.8
99994.8
99992
99988.3
99983.6
99978.1
99972.1
99965.7
99958.7
99951.1
99943.1
99934.8
99926.8
99919
99911.2
99903.5
99896
99889.1
99882.7
99876.6
99870.9
99865.6
99861.1
99857.2
99853.8
99851
99849.3
99848.7
99849.2
99851.1
99854.4
99859.7
99868.3
99880.8
99899.3
99927.7
99969
100020
99997
99963.2
99939.1
99916.1
99898
99889.3
99883.8
99879.9
99877.5
99877
99876.4
99877.8
99878.7
99879.1
99881.1
99883.4
99883.5
99883.1
99884.3
99885.1
99884.3
99882.8
99881.9
99881.9
99881.5
99879.9
99877.5
99875.4
99874.1
99872.5
99870.2
99867.7
99865.8
99865.6
99867
99869.6
99873
99876.9
99881.2
99886.1
99891.8
99898.3
99905.5
99913.2
99921.7
99931.2
99941.9
99953.5
99965.4
99976.8
99987.3
99996.7
100005
100014
100022
100029
100035
100039
100041
100042
100041
100039
100036
100033
100027
100020
100012
100002
99992.1
99981.1
99969.4
99957
99944.2
99931.5
99919.2
99907.3
99895.9
99885
99874.9
99865.9
99857.9
99850.5
99844
99838.5
99834.2
99830.9
99828.5
99827.3
99827.5
99829
99832
99837.4
99845.4
99856.1
99870.6
99889.7
99913.7
99947.2
99992.3
100040
100001
99966.1
99937.9
99916.4
99896.2
99882.5
99879.1
99872.3
99869.7
99870.9
99872
99872.5
99875.5
99879.9
99882.4
99884.3
99886.7
99889.7
99891.5
99891.3
99891.3
99892.2
99892.5
99891.6
99890.4
99889
99887.2
99885
99882.4
99879.2
99875.8
99872.7
99870.7
99869.9
99870.2
99871.6
99874.2
99877.8
99882.1
99886.9
99892.4
99898.9
99906.6
99915.7
99926
99937.5
99950.2
99963.8
99977.8
99991.5
100004
100017
100028
100039
100049
100057
100065
100070
100073
100074
100073
100071
100068
100062
100055
100045
100034
100021
100008
99993.3
99978
99962
99945.8
99929.9
99914.4
99899.6
99885.5
99872.4
99860.6
99850.3
99841.2
99833
99826.1
99820.7
99816.8
99813.8
99812.8
99814.2
99816.8
99820.8
99826.7
99835
99846.1
99859.6
99877
99899.4
99926.3
99960.9
100006
100049
99999.9
99963.9
99935.5
99915.8
99897.4
99882.4
99874.1
99871.2
99869.4
99869.3
99870.8
99874.7
99878.2
99881.8
99886.1
99890.6
99893.6
99896.7
99899.3
99900.7
99902
99903.2
99903.2
99902.5
99902
99901.1
99898.9
99895.8
99892.5
99888.9
99885.2
99881.6
99878.9
99877.3
99877
99878
99880.2
99883.4
99887.1
99891.3
99896.4
99902.8
99911
99920.9
99932.2
99944.9
99958.6
99973.3
99988.5
100004
100018
100032
100046
100058
100069
100079
100087
100092
100096
100098
100098
100096
100092
100085
100076
100065
100051
100037
100021
100004
99986.4
99967.9
99949.4
99931.2
99913.7
99896.9
99881
99866.6
99853.8
99842.7
99832.9
99824.4
99817.4
99812.2
99808.1
99807.2
99807.2
99808.5
99813.3
99820.1
99829
99839.8
99853.2
99869.2
99888
99911.2
99938.2
99970.9
100013
100052
99998.4
99965
99934.7
99914.7
99897.3
99888.7
99876.7
99873.1
99873
99872.9
99874.9
99878.4
99883.3
99887.9
99892.5
99897.3
99901.2
99905.5
99909.1
99910.8
99912.5
99914.3
99915.1
99915.1
99915
99914
99911.6
99908.3
99905.1
99901.6
99897.5
99893.4
99890.1
99888.3
99887.9
99888.8
99890.5
99892.8
99895.8
99899.4
99904.1
99910.5
99918.7
99928.7
99940.3
99953.1
99967
99982
99997.7
100014
100029
100044
100058
100071
100083
100093
100101
100107
100112
100114
100115
100113
100109
100101
100091
100079
100064
100049
100031
100013
99993.8
99973.9
99954
99934.6
99915.7
99897.7
99881
99865.9
99852.7
99841.2
99831.2
99822.8
99816.2
99811.6
99809.1
99808.4
99810.3
99814.6
99820.3
99828.3
99838.4
99850
99864
99881.2
99900.9
99924.4
99950.9
99980.7
100018
100052
99995.2
99968.1
99939
99919.2
99901.9
99892.1
99886.2
99882.1
99880.3
99881
99884
99887.9
99892.5
99896.8
99901.9
99907.7
99912.1
99916.7
99920.6
99922.7
99925.2
99928.1
99929.5
99929.7
99929.9
99929.4
99927.3
99924.5
99921.5
99918.1
99913.8
99909.4
99906.1
99904.5
99904.2
99904.7
99905.7
99907.1
99909.3
99912.4
99916.8
99922.8
99930.6
99940
99950.9
99963.1
99976.6
99991.3
100007
100023
100038
100053
100067
100080
100091
100101
100110
100117
100121
100124
100125
100124
100120
100112
100102
100089
100074
100058
100040
100021
100001
99981
99960.5
99940.5
99921.1
99902.7
99885.7
99870.7
99857.7
99846.3
99836.7
99828.9
99823.3
99819.7
99818.1
99818.8
99822
99827.4
99834.6
99843.9
99855.2
99867.6
99881.3
99897.4
99915.8
99938.2
99963.3
99989.7
100022
100050
99990
99966.1
99942.2
99924.9
99913.5
99899.6
99895.8
99892.4
99891.5
99892.7
99895.6
99898.8
99903.4
99907.9
99913.5
99919.4
99923.7
99928.2
99932.5
99935.5
99938.9
99942.5
99944.3
99945
99946
99946.4
99945.2
99943
99940.4
99937.1
99933
99928.8
99926
99924.7
99924.4
99924.4
99924.6
99925.2
99926.8
99929.6
99933.6
99938.9
99945.6
99953.8
99963.4
99974.6
99987.2
100001
100016
100030
100045
100059
100072
100084
100095
100105
100114
100120
100125
100129
100130
100129
100125
100117
100107
100094
100080
100064
100046
100027
100007
99987.2
99966.9
99947
99927.6
99909.4
99892.8
99878.3
99865.8
99855.1
99846.3
99839.8
99835.5
99833.2
99832.9
99834.9
99839.1
99845.3
99853.4
99863.2
99875
99888.3
99902.5
99918.2
99935.1
99954.5
99976.5
99998.3
100025
100046
99985.8
99966.9
99948.1
99931.8
99922.2
99914.7
99910.1
99907.4
99907.3
99908.7
99911.4
99914.4
99919.1
99923.7
99929.1
99934.6
99938.5
99943.3
99948.2
99951.8
99955.8
99959.7
99962
99963.7
99965.9
99967.4
99967.1
99965.4
99963.2
99960.4
99956.9
99953.3
99950.8
99949.6
99949
99948.3
99947.7
99947.7
99948.9
99951.2
99954.5
99958.7
99964
99970.6
99978.8
99988.6
99999.9
100012
100025
100039
100052
100064
100076
100087
100098
100107
100115
100121
100126
100130
100132
100131
100127
100119
100109
100097
100084
100068
100052
100033
100014
99994.8
99975.2
99955.9
99937.3
99919.8
99904.1
99890.5
99878.8
99868.9
99861.2
99856
99853.1
99852.3
99853.9
99857.6
99863.1
99870.3
99879.2
99889.1
99900
99912.7
99926.5
99941.6
99957
99973.2
99991.2
100007
100026
100040
99982
99967.1
99954.1
99943.5
99932
99930.2
99926.4
99924.8
99925.4
99927
99929.7
99932.8
99937.6
99941.7
99946.5
99951.6
99955.5
99960.7
99965.9
99969.7
99974
99978.5
99981.7
99984.6
99988
99990.6
99991.1
99990.1
99988.6
99986.8
99984
99981.1
99978.8
99977.4
99976.3
99974.9
99973.7
99973.2
99973.8
99975.5
99977.9
99980.7
99984.4
99989.3
99996
100004
100014
100025
100036
100047
100058
100069
100079
100089
100098
100107
100114
100120
100125
100129
100131
100130
100126
100119
100110
100099
100086
100072
100056
100039
100021
100003
99984.3
99966.1
99948.6
99932.4
99918
99905.6
99895.1
99886.5
99880.3
99876.4
99874.7
99875.2
99878.2
99883.4
99890.1
99898.3
99908.2
99919
99930.3
99942.3
99954.6
99967.9
99981
99993.3
100006
100015
100026
100032
99978.5
99966.9
99957.8
99953.3
99948.7
99945.7
99944.1
99944.4
99945.9
99947.9
99951
99953.9
99958.6
99962.1
99966.6
99971.5
99975.5
99980.8
99985.9
99989.8
99994.5
99999.8
100004
100008
100013
100016
100017
100017
100017
100016
100014
100012
100009
100008
100006
100004
100002
100001
100001
100002
100003
100004
100007
100010
100015
100022
100030
100038
100047
100056
100065
100073
100082
100091
100099
100107
100113
100119
100123
100127
100128
100127
100124
100118
100109
100099
100088
100075
100061
100045
100029
100012
99994.9
99978.2
99962.2
99947.5
99934.7
99923.7
99914.7
99907.7
99903.3
99901.3
99901.3
99903.4
99907.7
99913.9
99921.6
99930.4
99940.6
99951.4
99962.8
99974.4
99985.6
99996.7
100006
100014
100021
100023
100025
100024
99974.2
99970.8
99967.7
99963.3
99965.9
99963.7
99965
99967
99969.2
99971.7
99975.2
99978
99982.5
99985.6
99989.9
99994.6
99998.4
100003
100008
100012
100018
100024
100029
100034
100040
100044
100046
100048
100049
100049
100048
100045
100043
100041
100039
100036
100034
100032
100031
100031
100030
100030
100031
100033
100036
100041
100047
100053
100060
100066
100072
100079
100087
100094
100101
100108
100113
100118
100122
100125
100126
100126
100122
100117
100110
100101
100091
100080
100067
100053
100038
100023
100008
99993.7
99979.5
99966.6
99955.4
99945.9
99938
99932.2
99928.9
99928
99929.2
99932.7
99938.4
99945.7
99954.5
99964.5
99975.1
99986.1
99997.2
100008
100017
100026
100032
100034
100034
100029
100024
100015
99968.2
99969.8
99973.8
99975.7
99977.6
99980.5
99984.4
99987.6
99990.6
99993.6
99997.3
100000
100004
100007
100012
100016
100020
100025
100030
100034
100040
100047
100053
100059
100066
100071
100075
100078
100081
100082
100082
100080
100078
100075
100073
100070
100067
100064
100062
100060
100058
100056
100055
100055
100057
100060
100063
100067
100071
100075
100080
100085
100091
100097
100103
100108
100112
100116
100119
100122
100123
100122
100119
100114
100108
100101
100093
100083
100072
100059
100047
100034
100021
100008
99995.5
99984.8
99975.6
99967.9
99961.8
99957.7
99956
99956.4
99958.8
99963.7
99970.5
99978.2
99987.3
99998
100009
100021
100032
100041
100049
100053
100056
100052
100047
100035
100022
100006
99966.5
99973.8
99979.4
99990.3
99993.6
100001
100006
100010
100014
100018
100022
100025
100029
100032
100036
100040
100043
100048
100053
100058
100065
100072
100079
100086
100094
100100
100106
100110
100114
100117
100117
100116
100114
100112
100109
100106
100102
100097
100094
100090
100086
100083
100080
100078
100078
100079
100080
100081
100083
100085
100087
100091
100095
100100
100105
100109
100112
100115
100118
100120
100121
100120
100118
100114
100109
100104
100097
100089
100080
100069
100058
100047
100036
100025
100015
100006
99998.1
99991.9
99987.2
99984.5
99983.7
99984.6
99987.5
99992.9
100000
100010
100020
100031
100042
100054
100064
100073
100078
100079
100078
100070
100060
100042
100020
99996.8
99961.8
99976.3
99987.8
99999.2
100009
100019
100025
100030
100035
100039
100043
100046
100050
100052
100056
100060
100063
100068
100074
100079
100087
100095
100102
100110
100119
100127
100134
100140
100145
100149
100151
100150
100149
100147
100144
100140
100135
100129
100124
100118
100112
100107
100102
100098
100095
100094
100093
100092
100091
100091
100092
100094
100098
100102
100105
100108
100110
100112
100114
100116
100117
100117
100115
100112
100109
100105
100100
100094
100086
100077
100068
100059
100049
100040
100032
100025
100019
100014
100010
100009
100010
100012
100016
100022
100029
100039
100050
100061
100073
100084
100093
100101
100105
100103
100099
100087
100071
100048
100019
99988.6
99959.3
99975.9
99997.1
100009
100025
100035
100042
100049
100054
100058
100062
100064
100068
100070
100073
100077
100080
100086
100091
100098
100105
100114
100122
100131
100141
100150
100158
100166
100173
100178
100181
100182
100181
100180
100176
100171
100164
100157
100150
100142
100134
100127
100119
100113
100109
100105
100101
100098
100095
100093
100093
100094
100097
100099
100102
100104
100105
100107
100108
100110
100112
100112
100111
100110
100108
100106
100103
100098
100091
100084
100077
100069
100061
100054
100047
100042
100038
100035
100033
100033
100034
100037
100041
100048
100056
100065
100077
100088
100100
100110
100119
100125
100127
100123
100117
100102
100082
100053
100018
99980.8
99960
99981.7
100004
100024
100039
100050
100060
100067
100072
100076
100078
100080
100083
100084
100087
100091
100095
100100
100106
100112
100121
100130
100139
100149
100159
100170
100179
100188
100196
100203
100207
100209
100210
100209
100205
100199
100191
100182
100172
100163
100153
100143
100133
100125
100118
100111
100105
100100
100095
100092
100090
100090
100092
100094
100096
100097
100097
100099
100101
100103
100105
100107
100107
100108
100108
100107
100106
100102
100097
100091
100085
100079
100072
100066
100061
100057
100055
100053
100052
100053
100055
100058
100063
100071
100079
100089
100100
100111
100122
100132
100140
100144
100146
100141
100132
100114
100091
100057
100016
99973.6
99958.4
99987.2
100009
100034
100049
100063
100073
100080
100084
100087
100089
100090
100092
100093
100095
100098
100102
100108
100114
100121
100130
100139
100149
100160
100172
100183
100194
100204
100214
100222
100227
100231
100232
100231
100227
100220
100210
100200
100189
100178
100166
100153
100141
100130
100121
100112
100104
100096
100090
100085
100082
100081
100081
100082
100083
100083
100083
100085
100087
100090
100093
100096
100098
100100
100102
100103
100103
100101
100097
100093
100088
100083
100078
100073
100070
100067
100066
100066
100067
100069
100072
100076
100081
100089
100097
100107
100118
100128
100139
100147
100155
100158
100160
100153
100143
100123
100096
100059
100013
99967.5
99960.2
99989.4
100018
100041
100059
100074
100084
100090
100093
100095
100096
100096
100097
100097
100099
100101
100105
100110
100117
100124
100134
100144
100155
100166
100179
100191
100202
100214
100225
100234
100241
100246
100248
100247
100243
100235
100225
100213
100201
100188
100174
100159
100145
100132
100120
100109
100098
100088
100079
100073
100068
100066
100065
100064
100064
100064
100065
100066
100069
100073
100078
100082
100085
100089
100093
100096
100097
100095
100093
100090
100086
100083
100079
100076
100074
100073
100073
100074
100076
100079
100083
100088
100094
100101
100110
100119
100129
100139
100148
100157
100164
100167
100168
100161
100149
100127
100097
100058
100010
99962.7
99965.6
99993.8
100027
100049
100068
100083
100092
100097
100100
100100
100100
100099
100099
100098
100099
100101
100104
100109
100115
100123
100133
100144
100155
100167
100180
100193
100205
100218
100230
100240
100248
100253
100256
100255
100251
100243
100233
100220
100207
100193
100177
100161
100145
100129
100115
100101
100088
100076
100065
100057
100050
100046
100044
100043
100042
100041
100042
100044
100048
100053
100059
100064
100070
100075
100081
100085
100087
100087
100086
100084
100082
100080
100077
100075
100074
100075
100076
100077
100080
100084
100088
100094
100100
100108
100116
100125
100134
100143
100152
100160
100167
100169
100170
100162
100149
100126
100095
100056
100008
99959.5
99968.3
100000
100030
100054
100074
100087
100095
100099
100101
100101
100099
100096
100095
100093
100093
100094
100097
100101
100108
100116
100125
100136
100148
100160
100173
100187
100200
100213
100226
100237
100246
100252
100255
100254
100250
100242
100232
100220
100206
100191
100174
100156
100138
100121
100105
100089
100074
100060
100047
100036
100028
100023
100019
100016
100014
100014
100014
100017
100022
100028
100034
100041
100048
100055
100062
100068
100072
100073
100074
100074
100073
100071
100070
100069
100070
100071
100073
100075
100079
100084
100089
100095
100102
100109
100117
100125
100134
100142
100151
100158
100164
100166
100165
100157
100143
100120
100091
100053
100005
99957.6
99972.1
100006
100032
100057
100075
100087
100094
100098
100098
100097
100094
100090
100087
100084
100083
100083
100085
100089
100095
100103
100113
100123
100134
100147
100160
100174
100187
100201
100214
100226
100235
100241
100245
100245
100241
100234
100224
100212
100198
100182
100165
100147
100128
100110
100092
100075
100058
100042
100027
100015
100005
99997.7
99992.4
99988.6
99985.8
99984.4
99985
99987.9
99993.1
99999.7
100007
100014
100022
100031
100039
100046
100051
100055
100057
100058
100060
100060
100060
100060
100062
100064
100067
100070
100075
100080
100085
100092
100099
100106
100113
100121
100129
100137
100144
100150
100156
100156
100155
100146
100133
100112
100084
100048
100002
99956.5
99980.8
100010
100037
100060
100075
100085
100092
100094
100094
100091
100086
100082
100077
100073
100071
100070
100072
100075
100080
100087
100096
100106
100117
100129
100142
100155
100169
100182
100196
100207
100216
100223
100227
100228
100225
100219
100210
100199
100185
100170
100153
100134
100115
100097
100078
100060
100041
100024
100008
99994.2
99982.9
99974.2
99967.5
99962.4
99958.7
99956.7
99957
99959.9
99965.2
99971.9
99979.5
99987.5
99996.1
100005
100015
100023
100029
100034
100038
100042
100044
100046
100047
100049
100052
100055
100058
100062
100067
100073
100078
100085
100092
100098
100105
100112
100119
100126
100132
100138
100142
100141
100140
100131
100119
100100
100073
100040
99997.8
99956.3
99989.4
100014
100041
100059
100072
100081
100086
100087
100085
100081
100075
100069
100064
100059
100056
100054
100054
100057
100061
100067
100075
100084
100094
100106
100118
100131
100144
100157
100170
100182
100191
100198
100203
100204
100203
100197
100190
100180
100168
100153
100137
100119
100100
100081
100062
100043
100025
100006
99989.4
99974.4
99962
99951.9
99943.9
99937.6
99933
99930.3
99930.1
99932.6
99937.4
99943.8
99951.1
99959
99967.8
99977.6
99987.7
99996.9
100004
100011
100017
100022
100027
100030
100033
100036
100040
100044
100047
100051
100057
100062
100068
100074
100081
100087
100093
100100
100105
100112
100117
100121
100123
100122
100120
100112
100101
100084
100060
100031
99993.3
99957.4
99995.2
100018
100041
100055
100066
100074
100076
100075
100071
100066
100059
100053
100046
100041
100036
100034
100033
100035
100038
100043
100050
100058
100067
100077
100089
100101
100114
100126
100139
100150
100160
100167
100172
100175
100174
100170
100164
100156
100145
100132
100116
100099
100082
100063
100045
100026
100007
99988.6
99971.1
99955.3
99941.9
99930.8
99921.7
99914.3
99908.6
99905.1
99904.2
99906.1
99910.1
99915.7
99922.1
99929.3
99937.8
99947.6
99958.1
99968.1
99977
99985
99992.8
100000
100007
100012
100016
100021
100027
100031
100035
100040
100046
100051
100056
100062
100068
100073
100079
100085
100089
100095
100097
100100
100101
100099
100096
100090
100080
100065
100044
100020
99989
99959.7
100003
100024
100039
100051
100060
100064
100064
100061
100056
100049
100042
100034
100027
100020
100015
100012
100010
100010
100012
100016
100021
100028
100037
100046
100057
100068
100080
100092
100104
100115
100125
100133
100138
100141
100142
100140
100135
100128
100119
100108
100094
100079
100062
100045
100027
100009
99990.3
99971.7
99954
99937.9
99923.9
99912
99902
99893.7
99887.2
99883
99881.4
99882.4
99885.5
99889.9
99895.2
99901.6
99909.5
99919.1
99929.5
99939.9
99949.5
99958.9
99968.5
99978.1
99986.4
99993.4
99999.8
100006
100013
100018
100023
100028
100034
100039
100044
100049
100054
100059
100064
100068
100071
100074
100075
100075
100075
100073
100070
100065
100056
100044
100027
100009
99985.1
99962.7
100014
100028
100039
100048
100053
100053
100050
100046
100039
100032
100023
100014
100006
99998.4
99992.3
99987.8
99984.9
99984
99984.8
99987.3
99991.5
99997.2
100004
100013
100022
100033
100044
100056
100067
100078
100088
100097
100103
100107
100108
100108
100105
100100
100093
100083
100072
100058
100043
100027
100010
99992
99973.7
99955.3
99937.8
99921.6
99907.2
99894.8
99884.2
99875.3
99868.3
99863.6
99861.4
99861.7
99863.9
99867.3
99871.7
99877.2
99884.6
99893.8
99904.2
99914.7
99924.9
99935.2
99946.1
99957.1
99967.1
99975.7
99983.8
99992
99999.6
100006
100011
100017
100022
100026
100030
100035
100038
100042
100045
100048
100049
100050
100049
100048
100047
100045
100042
100037
100029
100021
100009
99997.6
99981.1
99966.1
100024
100031
100039
100043
100044
100040
100035
100029
100020
100011
100001
99991.6
99982.1
99973.5
99966.3
99960.6
99956.5
99954.4
99954.1
99955.4
99958.5
99963.2
99969.4
99976.8
99985.6
99995.6
100006
100018
100029
100041
100051
100060
100067
100071
100074
100075
100074
100070
100065
100057
100047
100035
100022
100007
99990.6
99973.5
99955.6
99937.7
99920.4
99904.2
99889.7
99877
99866
99856.8
99849.6
99844.7
99842.2
99842
99843.5
99846.2
99849.9
99854.9
99861.9
99870.9
99881.3
99891.9
99902.4
99913.3
99925.1
99937.2
99948.3
99958.3
99967.8
99977.3
99985.8
99992.4
99998
100003
100008
100011
100014
100018
100021
100022
100025
100025
100024
100023
100021
100019
100017
100014
100011
100007
100001
99997
99990.7
99985.3
99976.5
99969.8
100031
100034
100037
100036
100032
100026
100018
100009
99999.3
99988.6
99977.2
99966.1
99955.5
99945.8
99937.5
99930.7
99925.6
99922.4
99921
99921.3
99923.4
99927.2
99932.4
99939.1
99947.3
99957
99967.9
99979.5
99991.3
100002
100013
100022
100030
100036
100039
100041
100042
100040
100036
100030
100022
100012
99999.4
99985.5
99970.2
99953.7
99936.4
99919
99902
99886
99871.4
99858.5
99847.3
99838
99830.8
99825.9
99823.4
99823
99824.1
99826.4
99829.7
99834.5
99841.3
99850.1
99860.3
99870.9
99881.6
99892.9
99905.3
99918.1
99930.1
99941
99951.7
99962.2
99971.5
99978.4
99984
99989.4
99993.5
99995.7
99997.9
100001
100002
100002
100002
100000
99997.3
99995.1
99991
99987.8
99984.6
99981.1
99977.7
99975.2
99972.5
99972.4
99971.1
99972
99971.6
99973.9
100038
100038
100035
100028
100020
100011
100001
99990.1
99977.9
99965.4
99952.7
99940.4
99928.9
99918.1
99908.9
99901.1
99894.9
99890.7
99888.2
99887.6
99888.7
99891.5
99895.9
99901.9
99909.7
99919.2
99930.1
99942
99954.2
99966.3
99977.5
99987.4
99995.8
100002
100007
100010
100012
100012
100009
100005
99998.5
99989.6
99978.6
99965.9
99951.4
99935.6
99919
99902
99885.4
99869.7
99855.1
99842
99830.7
99821.4
99814.2
99809.4
99806.9
99806.5
99807.5
99809.7
99813.1
99817.9
99824.7
99833.5
99843.4
99853.8
99864.4
99875.9
99888.5
99901.7
99914.3
99925.9
99937.4
99948.6
99958.3
99965.3
99970.9
99975.9
99979.4
99980.8
99982.1
99983.6
99982.9
99981
99979.3
99975.3
99970.2
99966.1
99960.5
99955.9
99951.3
99947.2
99943.9
99943.3
99943.3
99947.1
99950.5
99958.1
99966.8
99978
100046
100042
100032
100022
100011
99999
99985.8
99972.3
99958.1
99944.3
99930.4
99917.2
99904.8
99893.1
99883.1
99874.3
99867.3
99862
99858.4
99856.5
99856.6
99858.4
99861.9
99867.3
99874.7
99884
99895
99907.1
99919.8
99932.5
99944.4
99955.2
99964.4
99972
99977.8
99982.2
99985.2
99986.6
99986.1
99983.3
99978.3
99971
99961.4
99949.8
99936.3
99921.4
99905.6
99889.4
99873.3
99857.9
99843.3
99830.1
99818.6
99809.1
99801.9
99797.2
99794.7
99794.1
99795.4
99797.8
99801.5
99806.7
99813.9
99822.7
99832.5
99842.6
99853
99864.4
99877.2
99890.5
99903.2
99915.2
99927
99938.4
99948
99954.8
99960
99964.6
99967.4
99968
99968.1
99968.1
99965.5
99961.3
99957.3
99951
99944
99937.9
99930.6
99924.2
99918.1
99913.7
99910.9
99912.1
99914.4
99921.5
99930
99944.7
99962.2
99981.9
100054
100043
100030
100016
100002
99987.2
99971.4
99955.9
99940.3
99925.5
99910.9
99897.1
99884.3
99872.1
99861.4
99851.8
99843.8
99837.6
99832.8
99829.7
99828.4
99829.1
99831.6
99836.2
99843.1
99852.2
99863.1
99875.4
99888.5
99901.7
99914.3
99926
99936.1
99944.7
99951.8
99957.6
99962
99965
99966.2
99965.2
99962
99956.5
99948.5
99938.3
99926.2
99912.4
99897.7
99882.6
99867.4
99852.4
99838
99824.7
99812.9
99803.1
99795.7
99790.6
99787.7
99787.5
99788.4
99791.1
99795.2
99801
99808.6
99817.6
99827.4
99837.4
99847.7
99859.1
99871.8
99885
99897.8
99909.7
99921.4
99932.6
99941.7
99948.1
99952.8
99956.8
99958.8
99958.4
99957.3
99955.5
99950.7
99944.3
99938
99929.5
99920.5
99912.1
99902.8
99894.5
99887.2
99882.6
99880.1
99882.6
99886.6
99896.9
99910.8
99932.2
99957.7
99985.2
100059
100043
100027
100010
99993
99975.5
99957.8
99941.1
99924.9
99909.6
99894.9
99881
99868
99855.7
99844.7
99834.6
99825.8
99818.6
99812.8
99808.4
99805.9
99805.3
99806.6
99810.3
99816.5
99825
99835.6
99847.8
99861
99874.5
99887.8
99900.2
99911.4
99921.3
99929.8
99937.3
99943.5
99948.3
99951.4
99952.6
99951.5
99948
99942
99933.7
99923.3
99911.2
99898
99884.2
99870.1
99855.7
99841.5
99828
99815.7
99805.4
99797.3
99791.7
99788.3
99787.5
99787.8
99790.3
99794.6
99800.5
99808.3
99817.3
99827.1
99837.2
99847.6
99859.1
99871.9
99885.2
99898
99909.8
99921.2
99931.8
99940.4
99946.3
99950.6
99954
99955.4
99954
99951.5
99947.8
99940.9
99932.4
99923.7
99913.1
99901.9
99891
99879.5
99869.3
99860.7
99855.7
99853
99855.9
99861.3
99874.9
99893.7
99920.6
99953.1
99987.8
100061
100042
100023
100004
99984.3
99965.3
99946.8
99929.9
99913.7
99898.5
99884.1
99870.5
99857.7
99845.7
99834.6
99824.3
99815.1
99807
99800.1
99794.7
99791
99789.1
99788.9
99791.7
99796.8
99804.5
99814.4
99826.1
99839
99852.7
99866.4
99879.7
99892
99903.4
99913.8
99923.1
99931.4
99938.5
99943.9
99947.4
99948.9
99947.9
99944.4
99938.2
99929.8
99919.8
99908.6
99896.5
99883.8
99870.3
99856.4
99842.6
99829.7
99818.5
99809.6
99803
99798.6
99796
99796
99797.7
99801.5
99807.2
99814.6
99823.2
99832.8
99842.9
99853.7
99865.6
99878.6
99892
99904.8
99916.5
99927.6
99937.7
99945.8
99951.4
99955.4
99958.3
99958.9
99956.4
99952.4
99946.8
99938
99927.5
99916.6
99903.7
99890
99876.3
99862.6
99850.4
99840.2
99834.3
99830.6
99833.5
99840.4
99856.8
99879.1
99910.2
99948.8
99989.8
100062
100042
100020
99999
99978.4
99959.1
99941
99924.4
99908.7
99894.1
99880.2
99867.3
99854.9
99843.6
99832.5
99822.1
99812.8
99804
99796.1
99789.6
99784.7
99781.3
99780.4
99781.3
99785.4
99791.9
99800.7
99811.5
99823.9
99837.4
99851.5
99865.5
99879.2
99892.3
99904.6
99916.3
99926.9
99936.4
99944.5
99950.7
99954.8
99956.4
99955.4
99951.7
99945.8
99938.1
99929.2
99919.2
99908
99895.6
99882.1
99868.1
99854.6
99842.6
99832.6
99824.8
99819.1
99815.3
99813.7
99814.3
99817.3
99822.3
99829
99837.1
99846.2
99856.4
99867.6
99879.9
99893.2
99906.7
99919.4
99931
99941.7
99951.3
99959
99964.3
99968
99970.2
99969.7
99966.1
99960.5
99952.9
99942.3
99929.9
99916.7
99901.4
99885.2
99868.7
99852.8
99838.6
99826.6
99819
99813.9
99816.7
99824.8
99842.9
99867.3
99901.7
99945.3
99991.2
100062
100042
100018
99996.7
99976.4
99958
99940.8
99925.1
99910.1
99896.3
99883.1
99871
99858.9
99848.3
99837.5
99827
99817.3
99808.3
99799.9
99792.7
99787
99782.7
99780.4
99780.4
99782.3
99787.7
99795.1
99804.8
99816.4
99829.6
99843.9
99858.8
99873.8
99888.7
99903.3
99917.2
99930.3
99942.3
99953
99961.9
99968.8
99973.1
99974.7
99973.6
99970.2
99965
99958.4
99950.5
99941.1
99929.9
99916.9
99902.8
99888.7
99875.9
99864.9
99855.9
99848.7
99843.4
99840.2
99839.5
99841.3
99845.4
99851.3
99858.6
99867.3
99877.5
99889.1
99901.8
99915.2
99928.5
99941.1
99952.5
99962.9
99972.1
99979.4
99984.4
99987.6
99988.8
99987.1
99982.2
99975
99965.7
99953.4
99939.3
99923.7
99905.9
99887.2
99868.1
99850.2
99834
99819.9
99810.4
99803.9
99806.6
99815.1
99833.2
99859
99895.7
99942.8
99991.5
100061
100040
100017
99996.4
99977.6
99960.8
99945
99930.3
99916.4
99903.6
99891.2
99879.8
99868.2
99857.6
99847.3
99837.2
99827.4
99818
99809.4
99801.8
99795.4
99790.4
99787.2
99786.2
99787.5
99791.2
99797.4
99805.9
99816.7
99829.5
99844
99859.6
99875.9
99892.6
99909.2
99925.4
99940.9
99955.4
99968.6
99980.1
99989.5
99996.4
100000
100002
100001
99997.7
99993.4
99987.5
99979.7
99969.6
99957
99943
99928.6
99915.1
99903.3
99893.3
99884.8
99877.9
99873
99870.7
99871.2
99874.3
99879.2
99885.8
99894.1
99904.3
99916.2
99929.2
99942.5
99955.6
99968
99979.3
99989.5
99998.2
100005
100010
100012
100012
100009
100003
99994.4
99983.6
99969.8
99953.9
99935.9
99915.9
99895
99873.7
99854
99835.6
99819.4
99807.8
99801
99802.6
99810.5
99828.1
99854.9
99892.6
99941.2
99991.2
100057
100037
100016
99997.4
99980.7
99965.7
99951.5
99938.4
99925.8
99913.9
99902.4
99891.6
99881.3
99870.7
99860.5
99850.9
99841.4
99832.1
99823.4
99815.5
99808.8
99803.3
99799.5
99797.6
99797.8
99800.4
99805.3
99812.8
99822.9
99835.3
99849.9
99866.1
99883.6
99901.8
99920.2
99938.4
99956
99972.6
99988
100002
100013
100022
100028
100032
100033
100032
100030
100025
100019
100010
99998.2
99984.4
99970
99956.3
99944.1
99933.4
99923.9
99915.7
99909.3
99905.5
99904.7
99906.7
99910.8
99916.7
99924.6
99934.7
99946.7
99959.7
99972.8
99985.4
99997.6
100009
100019
100027
100033
100037
100039
100038
100033
100026
100016
100004
99989.2
99971.7
99951.7
99929.9
99907.6
99884.6
99863.3
99842.9
99824.8
99812.3
99803.6
99804.4
99811.2
99828.3
99855.1
99892.4
99940.3
99990.8
100052
100033
100015
99999.2
99984.9
99971.8
99959.5
99948.3
99937.3
99926.8
99916.6
99906.1
99896.9
99887.2
99877.2
99867.5
99858
99848.8
99840.2
99832.4
99825.6
99819.9
99815.7
99813.3
99812.9
99814.5
99818.5
99825.1
99834.4
99846.4
99860.9
99877.5
99895.8
99915.1
99934.8
99954.5
99973.7
99991.9
100009
100024
100037
100048
100056
100062
100065
100066
100065
100062
100057
100049
100037
100024
100010
99996.8
99984.6
99973.7
99963.8
99954.6
99946.9
99941.9
99940
99941.1
99944.4
99949.6
99956.9
99966.5
99978.3
99990.9
100003
100015
100027
100038
100048
100056
100061
100064
100065
100063
100057
100050
100039
100026
100010
99991.2
99969.9
99947.1
99923.9
99899.7
99877
99855.1
99835.8
99822.4
99812.9
99811.8
99817.2
99833.5
99858.8
99894.5
99940.6
99989.7
100046
100030
100015
100002
99990
99979.2
99969.3
99960.2
99951.3
99942.6
99933.9
99924.5
99915.2
99905.8
99896.5
99887.3