/*--------------------------------*- C++ -*----------------------------------*\
| =========                 |                                                 |
| \\      /  F ield         | OpenFOAM: The Open Source CFD Toolbox           |
|  \\    /   O peration     | Version:  2406                                  |
|   \\  /    A nd           | Website:  www.openfoam.com                      |
|    \\/     M anipulation  |                                                 |
\*---------------------------------------------------------------------------*/
FoamFile
{
    version     2.0;
    format      ascii;
    arch        "LSB;label=32;scalar=64";
    class       volScalarField;
    location    "10";
    object      p;
}
// * * * * * * * * * * * * * * * * * * * * * * * * * * * * * * * * * * * * * //

dimensions      [1 -1 -2 0 0 0 0];

internalField   nonuniform List<scalar> 
10000
(
-3.90213e+08
-3.91942e+08
-3.94438e+08
-3.96937e+08
-3.99149e+08
-4.0059e+08
-4.00951e+08
-4.00186e+08
-3.98337e+08
-3.95211e+08
-3.90885e+08
-3.85459e+08
-3.79031e+08
-3.71693e+08
-3.63573e+08
-3.54724e+08
-3.45294e+08
-3.35373e+08
-3.25082e+08
-3.14482e+08
-3.0364e+08
-2.92721e+08
-2.81771e+08
-2.70795e+08
-2.59892e+08
-2.49102e+08
-2.38371e+08
-2.27688e+08
-2.17053e+08
-2.0638e+08
-1.9556e+08
-1.84552e+08
-1.73337e+08
-1.6185e+08
-1.50004e+08
-1.37748e+08
-1.25067e+08
-1.11956e+08
-9.84074e+07
-8.44227e+07
-7.00219e+07
-5.5245e+07
-4.01625e+07
-2.48851e+07
-9.55387e+06
5.6843e+06
2.0691e+07
3.53201e+07
4.93862e+07
6.26504e+07
7.48395e+07
8.56873e+07
9.49661e+07
1.02489e+08
1.08089e+08
1.11596e+08
1.12834e+08
1.11642e+08
1.07895e+08
1.01529e+08
9.25291e+07
8.09236e+07
6.67629e+07
5.01148e+07
3.10737e+07
9.7777e+06
-1.35801e+07
-3.87549e+07
-6.54671e+07
-9.34213e+07
-1.22316e+08
-1.5184e+08
-1.81668e+08
-2.1146e+08
-2.40879e+08
-2.69605e+08
-2.97347e+08
-3.2383e+08
-3.48802e+08
-3.72036e+08
-3.93343e+08
-4.12576e+08
-4.29618e+08
-4.44376e+08
-4.56788e+08
-4.66831e+08
-4.7452e+08
-4.79896e+08
-4.83028e+08
-4.84022e+08
-4.83016e+08
-4.80173e+08
-4.75695e+08
-4.69827e+08
-4.62861e+08
-4.55169e+08
-4.47226e+08
-4.39677e+08
-4.33447e+08
-4.29581e+08
-3.87837e+08
-3.89522e+08
-3.92116e+08
-3.9464e+08
-3.96885e+08
-3.98325e+08
-3.98731e+08
-3.97873e+08
-3.95777e+08
-3.92572e+08
-3.88139e+08
-3.82542e+08
-3.75961e+08
-3.68454e+08
-3.60134e+08
-3.51088e+08
-3.41475e+08
-3.3137e+08
-3.20884e+08
-3.10116e+08
-2.99134e+08
-2.8807e+08
-2.76996e+08
-2.65936e+08
-2.54963e+08
-2.44116e+08
-2.3337e+08
-2.22705e+08
-2.12097e+08
-2.01464e+08
-1.90714e+08
-1.79802e+08
-1.68702e+08
-1.57348e+08
-1.45647e+08
-1.33536e+08
-1.21e+08
-1.08046e+08
-9.46662e+07
-8.08425e+07
-6.65741e+07
-5.19024e+07
-3.69172e+07
-2.17404e+07
-6.50015e+06
8.68268e+06
2.36839e+07
3.83476e+07
5.24642e+07
6.57762e+07
7.80098e+07
8.8911e+07
9.82626e+07
1.05876e+08
1.11571e+08
1.15162e+08
1.16466e+08
1.1532e+08
1.11606e+08
1.05261e+08
9.62708e+07
8.46553e+07
7.04546e+07
5.37292e+07
3.45739e+07
1.31348e+07
-1.0384e+07
-3.57296e+07
-6.26206e+07
-9.07637e+07
-1.19857e+08
-1.49582e+08
-1.79602e+08
-2.09566e+08
-2.39135e+08
-2.67988e+08
-2.95831e+08
-3.22383e+08
-3.47386e+08
-3.70615e+08
-3.91887e+08
-4.11057e+08
-4.28005e+08
-4.42637e+08
-4.54897e+08
-4.6477e+08
-4.7227e+08
-4.77436e+08
-4.80345e+08
-4.81118e+08
-4.79896e+08
-4.76837e+08
-4.72138e+08
-4.6605e+08
-4.58863e+08
-4.50955e+08
-4.42828e+08
-4.35142e+08
-4.28886e+08
-4.25093e+08
-3.83462e+08
-3.8505e+08
-3.87703e+08
-3.90372e+08
-3.92578e+08
-3.94033e+08
-3.94404e+08
-3.93513e+08
-3.91308e+08
-3.87826e+08
-3.83127e+08
-3.77264e+08
-3.70394e+08
-3.62579e+08
-3.53928e+08
-3.44571e+08
-3.3464e+08
-3.24221e+08
-3.13448e+08
-3.02396e+08
-2.91149e+08
-2.7986e+08
-2.6859e+08
-2.57359e+08
-2.46249e+08
-2.35308e+08
-2.24516e+08
-2.13855e+08
-2.03282e+08
-1.92708e+08
-1.8206e+08
-1.71315e+08
-1.60429e+08
-1.49296e+08
-1.37809e+08
-1.25929e+08
-1.13668e+08
-1.01016e+08
-8.79271e+07
-7.43589e+07
-6.03225e+07
-4.58832e+07
-3.11341e+07
-1.61708e+07
-1.08875e+06
1.40038e+07
2.89676e+07
4.36204e+07
5.77373e+07
7.10646e+07
8.33417e+07
9.43211e+07
1.03778e+08
1.11508e+08
1.17315e+08
1.21004e+08
1.22393e+08
1.2132e+08
1.17668e+08
1.11368e+08
1.02397e+08
9.07615e+07
7.64925e+07
5.96483e+07
4.03292e+07
1.86913e+07
-5.0513e+06
-3.0641e+07
-5.77957e+07
-8.62213e+07
-1.15609e+08
-1.45625e+08
-1.75918e+08
-2.06127e+08
-2.35906e+08
-2.64932e+08
-2.92902e+08
-3.19527e+08
-3.44545e+08
-3.67734e+08
-3.88918e+08
-4.07952e+08
-4.24715e+08
-4.39119e+08
-4.51121e+08
-4.60709e+08
-4.67899e+08
-4.72731e+08
-4.75289e+08
-4.75694e+08
-4.74096e+08
-4.70664e+08
-4.65604e+08
-4.59171e+08
-4.5167e+08
-4.43498e+08
-4.35181e+08
-4.2738e+08
-4.21058e+08
-4.17224e+08
-3.77111e+08
-3.78642e+08
-3.81199e+08
-3.8389e+08
-3.8605e+08
-3.87368e+08
-3.8756e+08
-3.86416e+08
-3.84064e+08
-3.80291e+08
-3.75253e+08
-3.69042e+08
-3.61775e+08
-3.53562e+08
-3.44491e+08
-3.34712e+08
-3.24388e+08
-3.13574e+08
-3.02397e+08
-2.9096e+08
-2.79382e+08
-2.67805e+08
-2.56244e+08
-2.44737e+08
-2.33429e+08
-2.22377e+08
-2.11509e+08
-2.00785e+08
-1.902e+08
-1.79707e+08
-1.69225e+08
-1.58691e+08
-1.48034e+08
-1.3716e+08
-1.25984e+08
-1.14475e+08
-1.02617e+08
-9.03726e+07
-7.76824e+07
-6.45137e+07
-5.08877e+07
-3.68646e+07
-2.25128e+07
-7.89901e+06
6.89638e+06
2.17587e+07
3.6532e+07
5.10234e+07
6.50109e+07
7.82507e+07
9.0487e+07
1.01467e+08
1.10953e+08
1.18728e+08
1.24587e+08
1.28335e+08
1.29788e+08
1.28784e+08
1.25199e+08
1.18953e+08
1.10009e+08
9.83612e+07
8.40352e+07
6.70893e+07
4.76296e+07
2.5821e+07
1.88406e+06
-2.39212e+07
-5.1313e+07
-7.99943e+07
-1.09644e+08
-1.39914e+08
-1.70433e+08
-2.00833e+08
-2.30763e+08
-2.59893e+08
-2.87908e+08
-3.14514e+08
-3.39447e+08
-3.62492e+08
-3.83474e+08
-4.02247e+08
-4.18695e+08
-4.32744e+08
-4.4436e+08
-4.53535e+08
-4.60291e+08
-4.64684e+08
-4.6681e+08
-4.66784e+08
-4.6476e+08
-4.60928e+08
-4.55503e+08
-4.48748e+08
-4.40988e+08
-4.3263e+08
-4.2423e+08
-4.16454e+08
-4.10202e+08
-4.06417e+08
-3.6872e+08
-3.70107e+08
-3.72514e+08
-3.75064e+08
-3.77072e+08
-3.78175e+08
-3.78112e+08
-3.76674e+08
-3.73921e+08
-3.69786e+08
-3.64374e+08
-3.57783e+08
-3.50063e+08
-3.41368e+08
-3.31859e+08
-3.21657e+08
-3.10856e+08
-2.99543e+08
-2.87931e+08
-2.76108e+08
-2.64127e+08
-2.52131e+08
-2.40203e+08
-2.28414e+08
-2.16878e+08
-2.05613e+08
-1.94564e+08
-1.83738e+08
-1.73154e+08
-1.62742e+08
-1.52394e+08
-1.42042e+08
-1.31636e+08
-1.21094e+08
-1.10321e+08
-9.92593e+07
-8.78793e+07
-7.61421e+07
-6.39938e+07
-5.13999e+07
-3.83674e+07
-2.49339e+07
-1.11457e+07
2.94322e+06
1.72538e+07
3.16687e+07
4.60321e+07
6.01565e+07
7.38269e+07
8.68027e+07
9.88263e+07
1.0964e+08
1.18999e+08
1.26683e+08
1.32484e+08
1.36208e+08
1.37668e+08
1.36696e+08
1.33156e+08
1.26958e+08
1.1805e+08
1.0642e+08
9.20864e+07
7.51072e+07
5.55931e+07
3.37143e+07
9.69459e+06
-1.62074e+07
-4.37116e+07
-7.25166e+07
-1.02289e+08
-1.32662e+08
-1.63253e+08
-1.93687e+08
-2.2361e+08
-2.52682e+08
-2.80581e+08
-3.07004e+08
-3.31695e+08
-3.5444e+08
-3.75067e+08
-3.93432e+08
-4.09427e+08
-4.22993e+08
-4.34104e+08
-4.42758e+08
-4.48984e+08
-4.52861e+08
-4.54496e+08
-4.54014e+08
-4.51581e+08
-4.47405e+08
-4.41712e+08
-4.3478e+08
-4.26949e+08
-4.1862e+08
-4.10343e+08
-4.02785e+08
-3.96776e+08
-3.93157e+08
-3.58377e+08
-3.59707e+08
-3.61782e+08
-3.63997e+08
-3.65678e+08
-3.66404e+08
-3.65921e+08
-3.64153e+08
-3.60926e+08
-3.5639e+08
-3.50547e+08
-3.43469e+08
-3.35297e+08
-3.26182e+08
-3.16199e+08
-3.05491e+08
-2.94211e+08
-2.82447e+08
-2.70374e+08
-2.58069e+08
-2.45617e+08
-2.33195e+08
-2.20881e+08
-2.08731e+08
-1.96859e+08
-1.85302e+08
-1.74036e+08
-1.63079e+08
-1.52439e+08
-1.4204e+08
-1.31781e+08
-1.21611e+08
-1.11487e+08
-1.0131e+08
-9.09709e+07
-8.04038e+07
-6.95842e+07
-5.84769e+07
-4.7021e+07
-3.5163e+07
-2.28873e+07
-1.02146e+07
2.81707e+06
1.61584e+07
2.97386e+07
4.34524e+07
5.7156e+07
7.06702e+07
8.37838e+07
9.62573e+07
1.07835e+08
1.18259e+08
1.27291e+08
1.34709e+08
1.40309e+08
1.43893e+08
1.45269e+08
1.44261e+08
1.40725e+08
1.34559e+08
1.25705e+08
1.14139e+08
9.98746e+07
8.29664e+07
6.3527e+07
4.17291e+07
1.77944e+07
-8.02309e+06
-3.54466e+07
-6.41698e+07
-9.38472e+07
-1.24099e+08
-1.54534e+08
-1.84776e+08
-2.14467e+08
-2.43261e+08
-2.70827e+08
-2.96863e+08
-3.21116e+08
-3.43378e+08
-3.63473e+08
-3.81264e+08
-3.96658e+08
-4.09609e+08
-4.20101e+08
-4.28142e+08
-4.33781e+08
-4.37109e+08
-4.38247e+08
-4.37343e+08
-4.34582e+08
-4.30182e+08
-4.2439e+08
-4.17486e+08
-4.09813e+08
-4.01762e+08
-3.93854e+08
-3.86727e+08
-3.8112e+08
-3.77781e+08
-3.46136e+08
-3.4735e+08
-3.49051e+08
-3.50767e+08
-3.51973e+08
-3.52193e+08
-3.5118e+08
-3.48873e+08
-3.45169e+08
-3.40143e+08
-3.33836e+08
-3.26308e+08
-3.17671e+08
-3.08096e+08
-2.9766e+08
-2.86499e+08
-2.74751e+08
-2.62503e+08
-2.49946e+08
-2.3716e+08
-2.24235e+08
-2.11345e+08
-1.98573e+08
-1.8599e+08
-1.73725e+08
-1.61828e+08
-1.50283e+08
-1.39113e+08
-1.28339e+08
-1.17898e+08
-1.07704e+08
-9.77088e+07
-8.78573e+07
-7.80442e+07
-6.81594e+07
-5.81462e+07
-4.79835e+07
-3.76265e+07
-2.69939e+07
-1.6011e+07
-4.64998e+06
7.07336e+06
1.91267e+07
3.14746e+07
4.40665e+07
5.68171e+07
6.95963e+07
8.22319e+07
9.45162e+07
1.06215e+08
1.17081e+08
1.26869e+08
1.3535e+08
1.4231e+08
1.47545e+08
1.50852e+08
1.52032e+08
1.50904e+08
1.47318e+08
1.4117e+08
1.3239e+08
1.20947e+08
1.06843e+08
9.01308e+07
7.09209e+07
4.93841e+07
2.57361e+07
222094
-2.68851e+07
-5.52748e+07
-8.45925e+07
-1.14451e+08
-1.44459e+08
-1.74241e+08
-2.03437e+08
-2.31695e+08
-2.58682e+08
-2.84101e+08
-3.07705e+08
-3.29285e+08
-3.48668e+08
-3.65723e+08
-3.80374e+08
-3.92584e+08
-4.02348e+08
-4.09696e+08
-4.14703e+08
-4.17472e+08
-4.1814e+08
-4.16886e+08
-4.13911e+08
-4.09446e+08
-4.03758e+08
-3.9712e+08
-3.89868e+08
-3.82371e+08
-3.75092e+08
-3.68621e+08
-3.63578e+08
-3.60608e+08
-3.32206e+08
-3.33204e+08
-3.34498e+08
-3.35591e+08
-3.36097e+08
-3.35662e+08
-3.34094e+08
-3.31128e+08
-3.26894e+08
-3.21355e+08
-3.14533e+08
-3.0654e+08
-2.97478e+08
-2.87487e+08
-2.76614e+08
-2.65008e+08
-2.52813e+08
-2.40114e+08
-2.27093e+08
-2.1382e+08
-2.00391e+08
-1.86994e+08
-1.73725e+08
-1.6067e+08
-1.47958e+08
-1.35645e+08
-1.23734e+08
-1.12277e+08
-1.0131e+08
-9.07828e+07
-8.06144e+07
-7.07554e+07
-6.11501e+07
-5.16991e+07
-4.23036e+07
-3.29127e+07
-2.34962e+07
-1.3989e+07
-4.29096e+06
5.68194e+06
1.59598e+07
2.65317e+07
3.73804e+07
4.84945e+07
5.98497e+07
7.13809e+07
8.297e+07
9.44512e+07
1.05624e+08
1.16268e+08
1.26155e+08
1.3506e+08
1.4277e+08
1.49076e+08
1.53775e+08
1.56657e+08
1.5752e+08
1.56183e+08
1.52497e+08
1.46351e+08
1.37672e+08
1.26414e+08
1.12571e+08
9.6189e+07
7.73745e+07
5.6292e+07
3.31471e+07
8.17394e+06
-1.83602e+07
-4.61427e+07
-7.48143e+07
-1.03988e+08
-1.33279e+08
-1.62315e+08
-1.90737e+08
-2.1819e+08
-2.44346e+08
-2.68914e+08
-2.91654e+08
-3.12354e+08
-3.30846e+08
-3.4701e+08
-3.60786e+08
-3.72144e+08
-3.81094e+08
-3.87694e+08
-3.92046e+08
-3.94271e+08
-3.94528e+08
-3.93023e+08
-3.89973e+08
-3.85617e+08
-3.8023e+08
-3.7408e+08
-3.67488e+08
-3.60788e+08
-3.54385e+08
-3.48799e+08
-3.44489e+08
-3.41977e+08
-3.16853e+08
-3.17486e+08
-3.18251e+08
-3.18696e+08
-3.18421e+08
-3.17187e+08
-3.14844e+08
-3.11256e+08
-3.06405e+08
-3.00297e+08
-2.92986e+08
-2.84565e+08
-2.75093e+08
-2.64696e+08
-2.53419e+08
-2.41423e+08
-2.28833e+08
-2.15713e+08
-2.02234e+08
-1.88469e+08
-1.74534e+08
-1.60624e+08
-1.46838e+08
-1.33264e+08
-1.20038e+08
-1.07236e+08
-9.48967e+07
-8.30977e+07
-7.18863e+07
-6.12165e+07
-5.10172e+07
-4.12512e+07
-3.18753e+07
-2.28023e+07
-1.39403e+07
-5.23367e+06
3.36426e+06
1.19357e+07
2.05899e+07
2.94121e+07
3.84346e+07
4.76587e+07
5.70916e+07
6.67518e+07
7.66414e+07
8.67126e+07
9.68574e+07
1.06919e+08
1.16711e+08
1.26038e+08
1.34698e+08
1.42493e+08
1.49225e+08
1.54693e+08
1.58689e+08
1.61004e+08
1.61437e+08
1.5981e+08
1.55978e+08
1.4983e+08
1.41281e+08
1.30275e+08
1.16795e+08
1.00879e+08
8.26274e+07
6.21951e+07
3.97732e+07
1.55827e+07
-1.01167e+07
-3.70133e+07
-6.47494e+07
-9.2946e+07
-1.21228e+08
-1.49232e+08
-1.76601e+08
-2.02986e+08
-2.28066e+08
-2.51562e+08
-2.73234e+08
-2.92874e+08
-3.10315e+08
-3.25454e+08
-3.38239e+08
-3.48655e+08
-3.56731e+08
-3.62549e+08
-3.66239e+08
-3.67953e+08
-3.67876e+08
-3.66228e+08
-3.63247e+08
-3.59181e+08
-3.54295e+08
-3.48845e+08
-3.43134e+08
-3.37463e+08
-3.32152e+08
-3.27646e+08
-3.24221e+08
-3.22257e+08
-3.00387e+08
-3.00541e+08
-3.00637e+08
-3.00292e+08
-2.99189e+08
-2.97175e+08
-2.93946e+08
-2.89652e+08
-2.84162e+08
-2.77497e+08
-2.69715e+08
-2.60876e+08
-2.51012e+08
-2.40256e+08
-2.28643e+08
-2.16316e+08
-2.03369e+08
-1.89851e+08
-1.75934e+08
-1.61705e+08
-1.47286e+08
-1.32862e+08
-1.18528e+08
-1.04389e+08
-9.05991e+07
-7.72629e+07
-6.44514e+07
-5.226e+07
-4.07414e+07
-2.98625e+07
-1.95773e+07
-9.87414e+06
-725221
7.95021e+06
1.62445e+07
2.42215e+07
3.19402e+07
3.94931e+07
4.69936e+07
5.45281e+07
6.21362e+07
6.98389e+07
7.76726e+07
8.56865e+07
9.39063e+07
1.02299e+08
1.10769e+08
1.19172e+08
1.27347e+08
1.35128e+08
1.4235e+08
1.48838e+08
1.54411e+08
1.58873e+08
1.6202e+08
1.63643e+08
1.63547e+08
1.61563e+08
1.57552e+08
1.514e+08
1.43015e+08
1.32329e+08
1.19311e+08
1.03992e+08
8.64651e+07
6.68707e+07
4.53829e+07
2.2207e+07
-2.40685e+06
-2.81521e+07
-5.46785e+07
-8.16211e+07
-1.08621e+08
-1.35324e+08
-1.61382e+08
-1.86454e+08
-2.10234e+08
-2.32452e+08
-2.52873e+08
-2.7129e+08
-2.87549e+08
-3.01556e+08
-3.13267e+08
-3.22682e+08
-3.29857e+08
-3.34897e+08
-3.37951e+08
-3.39203e+08
-3.38869e+08
-3.37177e+08
-3.34382e+08
-3.3074e+08
-3.2651e+08
-3.21949e+08
-3.17328e+08
-3.12898e+08
-3.08875e+08
-3.05612e+08
-3.03199e+08
-3.01852e+08
-2.829e+08
-2.82634e+08
-2.82084e+08
-2.80881e+08
-2.7882e+08
-2.75858e+08
-2.71867e+08
-2.66821e+08
-2.60676e+08
-2.53475e+08
-2.45239e+08
-2.36012e+08
-2.25812e+08
-2.14766e+08
-2.02879e+08
-1.90266e+08
-1.77e+08
-1.63129e+08
-1.48825e+08
-1.34173e+08
-1.1929e+08
-1.04346e+08
-8.94452e+07
-7.4718e+07
-6.03441e+07
-4.64492e+07
-3.31269e+07
-2.04873e+07
-8.59738e+06
2.5477e+06
1.29569e+07
2.26146e+07
3.1538e+07
3.98065e+07
4.75137e+07
5.4727e+07
6.15116e+07
6.79666e+07
7.42098e+07
8.0334e+07
8.63929e+07
9.24312e+07
9.85145e+07
1.04719e+08
1.11092e+08
1.17617e+08
1.24212e+08
1.30757e+08
1.37122e+08
1.43176e+08
1.48787e+08
1.53808e+08
1.58072e+08
1.61392e+08
1.63567e+08
1.64395e+08
1.63692e+08
1.613e+08
1.57089e+08
1.50942e+08
1.42758e+08
1.32455e+08
1.19994e+08
1.05396e+08
8.87426e+07
7.01592e+07
4.97994e+07
2.78503e+07
4.55065e+06
-1.98025e+07
-4.48727e+07
-7.03144e+07
-9.57881e+07
-1.20955e+08
-1.45475e+08
-1.69024e+08
-1.91311e+08
-2.12077e+08
-2.31088e+08
-2.48146e+08
-2.63111e+08
-2.75901e+08
-2.86479e+08
-2.94862e+08
-3.01133e+08
-3.0542e+08
-3.07885e+08
-3.08744e+08
-3.08238e+08
-3.06604e+08
-3.04112e+08
-3.01021e+08
-2.97587e+08
-2.94059e+08
-2.90679e+08
-2.87659e+08
-2.85085e+08
-2.83185e+08
-2.81866e+08
-2.81178e+08
-2.64772e+08
-2.64059e+08
-2.62763e+08
-2.60693e+08
-2.5776e+08
-2.53814e+08
-2.49042e+08
-2.4325e+08
-2.36484e+08
-2.28787e+08
-2.20145e+08
-2.10593e+08
-2.00133e+08
-1.88863e+08
-1.76758e+08
-1.63917e+08
-1.50395e+08
-1.36239e+08
-1.21608e+08
-1.06574e+08
-9.12472e+07
-7.57923e+07
-6.03326e+07
-4.50269e+07
-3.00688e+07
-1.55967e+07
-1.72542e+06
1.14119e+07
2.37218e+07
3.51719e+07
4.5732e+07
5.5362e+07
6.40715e+07
7.19381e+07
7.90517e+07
8.54769e+07
9.12806e+07
9.65681e+07
1.01467e+08
1.06082e+08
1.10488e+08
1.14751e+08
1.18964e+08
1.23227e+08
1.27608e+08
1.32108e+08
1.3667e+08
1.41203e+08
1.45611e+08
1.498e+08
1.5367e+08
1.57102e+08
1.59943e+08
1.62015e+08
1.63125e+08
1.63082e+08
1.61718e+08
1.5889e+08
1.54473e+08
1.48349e+08
1.40408e+08
1.30554e+08
1.1874e+08
1.04978e+08
8.93364e+07
7.19209e+07
5.28621e+07
3.23279e+07
1.05431e+07
-1.2209e+07
-3.56113e+07
-5.93424e+07
-8.30842e+07
-1.06515e+08
-1.29309e+08
-1.51162e+08
-1.718e+08
-1.90976e+08
-2.08461e+08
-2.24068e+08
-2.37671e+08
-2.492e+08
-2.58626e+08
-2.65983e+08
-2.71377e+08
-2.74956e+08
-2.76901e+08
-2.7744e+08
-2.76827e+08
-2.75327e+08
-2.7323e+08
-2.70795e+08
-2.68271e+08
-2.65899e+08
-2.63876e+08
-2.6237e+08
-2.61333e+08
-2.60855e+08
-2.60667e+08
-2.60654e+08
-2.46387e+08
-2.45263e+08
-2.43233e+08
-2.4025e+08
-2.36407e+08
-2.3167e+08
-2.26059e+08
-2.19573e+08
-2.12273e+08
-2.04151e+08
-1.95179e+08
-1.85383e+08
-1.74741e+08
-1.63321e+08
-1.51073e+08
-1.38081e+08
-1.24383e+08
-1.10015e+08
-9.51097e+07
-7.97324e+07
-6.39942e+07
-4.80619e+07
-3.20759e+07
-1.62137e+07
-675429
1.43886e+07
2.88368e+07
4.25048e+07
5.52651e+07
6.70459e+07
7.7781e+07
8.74087e+07
9.59294e+07
1.03412e+08
1.09934e+08
1.15554e+08
1.20341e+08
1.24409e+08
1.27901e+08
1.30939e+08
1.33615e+08
1.36021e+08
1.38271e+08
1.40489e+08
1.42766e+08
1.45127e+08
1.47543e+08
1.49956e+08
1.52305e+08
1.54534e+08
1.56577e+08
1.58335e+08
1.59673e+08
1.60424e+08
1.60407e+08
1.59449e+08
1.57396e+08
1.54123e+08
1.49511e+08
1.43439e+08
1.35786e+08
1.26447e+08
1.15366e+08
1.02545e+08
8.80373e+07
7.19252e+07
5.43146e+07
3.53528e+07
1.52482e+07
-5.73389e+06
-2.7301e+07
-4.9158e+07
-7.10087e+07
-9.25473e+07
-1.13468e+08
-1.33486e+08
-1.52348e+08
-1.69818e+08
-1.8568e+08
-1.99764e+08
-2.11959e+08
-2.22203e+08
-2.30483e+08
-2.3685e+08
-2.41419e+08
-2.44349e+08
-2.45847e+08
-2.46153e+08
-2.45521e+08
-2.44229e+08
-2.42587e+08
-2.40875e+08
-2.39339e+08
-2.38205e+08
-2.376e+08
-2.37644e+08
-2.38158e+08
-2.39101e+08
-2.40042e+08
-2.40704e+08
-2.27931e+08
-2.26375e+08
-2.23727e+08
-2.19978e+08
-2.15203e+08
-2.09712e+08
-2.03355e+08
-1.96301e+08
-1.88568e+08
-1.80117e+08
-1.7092e+08
-1.60987e+08
-1.50264e+08
-1.38792e+08
-1.26503e+08
-1.1346e+08
-9.96741e+07
-8.51681e+07
-7.00536e+07
-5.4393e+07
-3.83035e+07
-2.19519e+07
-5.4892e+06
1.08961e+07
2.69988e+07
4.26524e+07
5.76827e+07
7.18896e+07
8.51111e+07
9.72388e+07
1.08174e+08
1.17832e+08
1.26197e+08
1.33319e+08
1.3926e+08
1.44069e+08
1.47821e+08
1.50645e+08
1.52698e+08
1.54119e+08
1.55019e+08
1.55512e+08
1.55736e+08
1.55841e+08
1.55942e+08
1.56091e+08
1.56291e+08
1.56518e+08
1.56751e+08
1.56968e+08
1.57132e+08
1.57169e+08
1.56961e+08
1.56355e+08
1.55185e+08
1.53298e+08
1.5056e+08
1.46859e+08
1.42084e+08
1.36108e+08
1.28801e+08
1.20049e+08
1.09788e+08
9.80094e+07
8.47474e+07
7.00586e+07
5.40223e+07
3.67643e+07
1.8474e+07
-606042
-2.02118e+07
-4.00765e+07
-5.99248e+07
-7.94679e+07
-9.84199e+07
-1.1652e+08
-1.33532e+08
-1.49232e+08
-1.63423e+08
-1.75957e+08
-1.8674e+08
-1.95715e+08
-2.02884e+08
-2.08313e+08
-2.12118e+08
-2.14467e+08
-2.15586e+08
-2.15723e+08
-2.1514e+08
-2.14132e+08
-2.13012e+08
-2.12078e+08
-2.11567e+08
-2.11687e+08
-2.12493e+08
-2.1405e+08
-2.16074e+08
-2.18395e+08
-2.20435e+08
-2.21757e+08
-2.09921e+08
-2.07979e+08
-2.04696e+08
-2.00235e+08
-1.9477e+08
-1.88518e+08
-1.81598e+08
-1.74125e+08
-1.66074e+08
-1.57419e+08
-1.48127e+08
-1.38186e+08
-1.27507e+08
-1.16104e+08
-1.03888e+08
-9.08947e+07
-7.71122e+07
-6.255e+07
-4.73037e+07
-3.14373e+07
-1.50717e+07
1.63113e+06
1.85153e+07
3.53832e+07
5.20215e+07
6.82416e+07
8.38354e+07
9.85702e+07
1.12252e+08
1.2474e+08
1.359e+08
1.45623e+08
1.53868e+08
1.60659e+08
1.66039e+08
1.70052e+08
1.7278e+08
1.74366e+08
1.74981e+08
1.74778e+08
1.73888e+08
1.72446e+08
1.70618e+08
1.68579e+08
1.66472e+08
1.64381e+08
1.62338e+08
1.60358e+08
1.58455e+08
1.56642e+08
1.5491e+08
1.53209e+08
1.5144e+08
1.49468e+08
1.47148e+08
1.44344e+08
1.40944e+08
1.3685e+08
1.31953e+08
1.26123e+08
1.19222e+08
1.11126e+08
1.01763e+08
9.1113e+07
7.91885e+07
6.60179e+07
5.1653e+07
3.61966e+07
1.98172e+07
2.73132e+06
-1.48272e+07
-3.26188e+07
-5.03881e+07
-6.78643e+07
-8.47837e+07
-1.00909e+08
-1.16022e+08
-1.29912e+08
-1.42402e+08
-1.53372e+08
-1.62744e+08
-1.70474e+08
-1.76581e+08
-1.81143e+08
-1.8427e+08
-1.86124e+08
-1.8694e+08
-1.86971e+08
-1.86503e+08
-1.8584e+08
-1.85295e+08
-1.85167e+08
-1.85672e+08
-1.87005e+08
-1.89154e+08
-1.92138e+08
-1.95589e+08
-1.99211e+08
-2.02293e+08
-2.04241e+08
-1.92493e+08
-1.90286e+08
-1.86489e+08
-1.81329e+08
-1.75321e+08
-1.685e+08
-1.61206e+08
-1.53453e+08
-1.45233e+08
-1.36542e+08
-1.27323e+08
-1.17529e+08
-1.07044e+08
-9.58475e+07
-8.38301e+07
-7.10033e+07
-5.73317e+07
-4.28175e+07
-2.75414e+07
-1.15678e+07
4.9835e+06
2.19576e+07
3.91945e+07
5.64864e+07
7.36075e+07
9.03455e+07
1.06462e+08
1.21697e+08
1.3583e+08
1.48683e+08
1.6009e+08
1.69909e+08
1.78071e+08
1.84569e+08
1.89426e+08
1.92682e+08
1.94428e+08
1.94818e+08
1.94035e+08
1.92243e+08
1.89588e+08
1.86232e+08
1.82367e+08
1.78198e+08
1.73897e+08
1.69577e+08
1.65306e+08
1.61133e+08
1.57106e+08
1.53274e+08
1.49656e+08
1.46228e+08
1.42912e+08
1.39594e+08
1.36148e+08
1.32462e+08
1.28443e+08
1.24003e+08
1.19038e+08
1.13413e+08
1.06979e+08
9.96072e+07
9.12162e+07
8.17716e+07
7.12619e+07
5.96853e+07
4.70649e+07
3.34795e+07
1.90737e+07
4.03607e+06
-1.14299e+07
-2.71092e+07
-4.27642e+07
-5.81418e+07
-7.30029e+07
-8.71352e+07
-1.00339e+08
-1.12424e+08
-1.23239e+08
-1.32685e+08
-1.40698e+08
-1.47247e+08
-1.52355e+08
-1.56108e+08
-1.58621e+08
-1.60064e+08
-1.60668e+08
-1.60677e+08
-1.6039e+08
-1.60118e+08
-1.60167e+08
-1.60833e+08
-1.62307e+08
-1.6477e+08
-1.68154e+08
-1.72441e+08
-1.77198e+08
-1.82009e+08
-1.86044e+08
-1.88564e+08
-1.76027e+08
-1.73528e+08
-1.69357e+08
-1.63775e+08
-1.57268e+08
-1.50154e+08
-1.42653e+08
-1.34785e+08
-1.26597e+08
-1.18068e+08
-1.09108e+08
-9.96305e+07
-8.94975e+07
-7.86553e+07
-6.69757e+07
-5.44456e+07
-4.10106e+07
-2.66654e+07
-1.1476e+07
4.49613e+06
2.11352e+07
3.82918e+07
5.5799e+07
7.34378e+07
9.09689e+07
1.08158e+08
1.24743e+08
1.40441e+08
1.55006e+08
1.68223e+08
1.7989e+08
1.89833e+08
1.97949e+08
2.04203e+08
2.08597e+08
2.11166e+08
2.12008e+08
2.11284e+08
2.09182e+08
2.05875e+08
2.01528e+08
1.96325e+08
1.90488e+08
1.8425e+08
1.77813e+08
1.7132e+08
1.64871e+08
1.5855e+08
1.52442e+08
1.46628e+08
1.41159e+08
1.36037e+08
1.3121e+08
1.26583e+08
1.22054e+08
1.17533e+08
1.12946e+08
1.08216e+08
1.03239e+08
9.78736e+07
9.19636e+07
8.53737e+07
7.80148e+07
6.98356e+07
6.07982e+07
5.08684e+07
4.00403e+07
2.83677e+07
1.59695e+07
3.00377e+06
-1.03568e+07
-2.39203e+07
-3.7465e+07
-5.07565e+07
-6.35787e+07
-7.57411e+07
-8.7062e+07
-9.7374e+07
-1.06553e+08
-1.1452e+08
-1.21226e+08
-1.26659e+08
-1.30857e+08
-1.33893e+08
-1.3588e+08
-1.36993e+08
-1.3746e+08
-1.37525e+08
-1.37474e+08
-1.37629e+08
-1.38275e+08
-1.39695e+08
-1.42054e+08
-1.4553e+08
-1.50013e+08
-1.55452e+08
-1.61361e+08
-1.6721e+08
-1.72068e+08
-1.75074e+08
-1.60874e+08
-1.58179e+08
-1.53682e+08
-1.47896e+08
-1.41115e+08
-1.33914e+08
-1.26379e+08
-1.18616e+08
-1.10687e+08
-1.02525e+08
-9.40029e+07
-8.50139e+07
-7.53957e+07
-6.50619e+07
-5.38684e+07
-4.17777e+07
-2.87179e+07
-1.46744e+07
303029
1.61574e+07
3.27764e+07
5.00121e+07
6.76888e+07
8.55777e+07
1.03428e+08
1.20988e+08
1.37974e+08
1.54087e+08
1.69051e+08
1.82619e+08
1.9455e+08
2.04637e+08
2.12749e+08
2.1882e+08
2.22833e+08
2.24814e+08
2.24863e+08
2.23143e+08
2.19843e+08
2.15144e+08
2.09225e+08
2.02295e+08
1.94603e+08
1.86411e+08
1.77943e+08
1.69374e+08
1.60834e+08
1.52443e+08
1.44322e+08
1.36588e+08
1.29325e+08
1.22563e+08
1.16274e+08
1.10388e+08
1.04827e+08
9.95225e+07
9.44186e+07
8.9448e+07
8.45055e+07
7.94438e+07
7.40998e+07
6.83333e+07
6.20465e+07
5.51698e+07
4.76362e+07
3.93793e+07
3.03646e+07
2.06218e+07
1.02438e+07
-643303
-1.18972e+07
-2.33486e+07
-3.47936e+07
-4.60189e+07
-5.6833e+07
-6.70657e+07
-7.65527e+07
-8.5153e+07
-9.27732e+07
-9.93536e+07
-1.04849e+08
-1.09256e+08
-1.12629e+08
-1.15037e+08
-1.16589e+08
-1.17464e+08
-1.17871e+08
-1.18066e+08
-1.18303e+08
-1.18906e+08
-1.20131e+08
-1.22244e+08
-1.25387e+08
-1.29741e+08
-1.35171e+08
-1.41588e+08
-1.48456e+08
-1.55145e+08
-1.60657e+08
-1.64039e+08
-1.47038e+08
-1.44304e+08
-1.39703e+08
-1.33759e+08
-1.27029e+08
-1.19907e+08
-1.12564e+08
-1.05163e+08
-9.7716e+07
-9.01157e+07
-8.22162e+07
-7.38939e+07
-6.49633e+07
-5.5305e+07
-4.47604e+07
-3.32662e+07
-2.07336e+07
-7.13633e+06
7.49134e+06
2.30959e+07
3.95675e+07
5.67572e+07
7.44809e+07
9.25037e+07
1.10567e+08
1.28402e+08
1.45709e+08
1.62172e+08
1.7749e+08
1.9138e+08
2.03569e+08
2.1382e+08
2.21972e+08
2.27935e+08
2.31667e+08
2.33187e+08
2.32588e+08
2.30028e+08
2.25694e+08
2.1977e+08
2.1245e+08
2.03965e+08
1.94589e+08
1.84605e+08
1.74261e+08
1.63756e+08
1.53253e+08
1.42908e+08
1.32879e+08
1.23319e+08
1.14346e+08
1.0602e+08
9.83385e+07
9.12588e+07
8.4726e+07
7.8695e+07
7.31264e+07
6.79601e+07
6.30901e+07
5.83638e+07
5.36134e+07
4.86948e+07
4.35008e+07
3.79416e+07
3.19196e+07
2.53361e+07
1.81294e+07
1.03056e+07
1.93063e+06
-6.90135e+06
-1.60779e+07
-2.54519e+07
-3.48397e+07
-4.40531e+07
-5.29279e+07
-6.13135e+07
-6.90606e+07
-7.60491e+07
-8.22108e+07
-8.75031e+07
-9.18915e+07
-9.53834e+07
-9.80336e+07
-9.99101e+07
-1.01127e+08
-1.01863e+08
-1.02306e+08
-1.02702e+08
-1.03273e+08
-1.04326e+08
-1.06094e+08
-1.08828e+08
-1.12653e+08
-1.17749e+08
-1.2396e+08
-1.31148e+08
-1.38743e+08
-1.46037e+08
-1.52004e+08
-1.55646e+08
-1.34863e+08
-1.32106e+08
-1.27612e+08
-1.2172e+08
-1.15245e+08
-1.0841e+08
-1.01531e+08
-9.47264e+07
-8.79568e+07
-8.10988e+07
-7.40049e+07
-6.65255e+07
-5.84533e+07
-4.96363e+07
-3.99012e+07
-2.91591e+07
-1.73054e+07
-4.3009e+06
9.83267e+06
2.5044e+07
4.1226e+07
5.82287e+07
7.5863e+07
9.38913e+07
1.12049e+08
1.30053e+08
1.47588e+08
1.64323e+08
1.79934e+08
1.94107e+08
2.06541e+08
2.16974e+08
2.2522e+08
2.3116e+08
2.34732e+08
2.35939e+08
2.34865e+08
2.31657e+08
2.26493e+08
2.19558e+08
2.11057e+08
2.01241e+08
1.90401e+08
1.78838e+08
1.66818e+08
1.54565e+08
1.4227e+08
1.30125e+08
1.18328e+08
1.07067e+08
9.64949e+07
8.67012e+07
7.77122e+07
6.95108e+07
6.20679e+07
5.53609e+07
4.93667e+07
4.40324e+07
3.92515e+07
3.48681e+07
3.07121e+07
2.6637e+07
2.25262e+07
1.82687e+07
1.37369e+07
8.80173e+06
3.37605e+06
-2.55763e+06
-8.96264e+06
-1.57784e+07
-2.29221e+07
-3.02687e+07
-3.76559e+07
-4.49231e+07
-5.19339e+07
-5.85587e+07
-6.46669e+07
-7.01598e+07
-7.49851e+07
-7.91073e+07
-8.25054e+07
-8.52044e+07
-8.72598e+07
-8.87316e+07
-8.97328e+07
-9.04316e+07
-9.10002e+07
-9.16606e+07
-9.26016e+07
-9.41011e+07
-9.63759e+07
-9.96666e+07
-1.04078e+08
-1.09778e+08
-1.1658e+08
-1.24298e+08
-1.32354e+08
-1.4e+08
-1.46226e+08
-1.50014e+08
-1.24494e+08
-1.21832e+08
-1.17477e+08
-1.11968e+08
-1.05891e+08
-9.96083e+07
-9.34408e+07
-8.74272e+07
-8.15135e+07
-7.55783e+07
-6.94688e+07
-6.30013e+07
-5.59489e+07
-4.81283e+07
-3.93531e+07
-2.95111e+07
-1.84836e+07
-6.21938e+06
7.2699e+06
2.19357e+07
3.76756e+07
5.4341e+07
7.1741e+07
8.96377e+07
1.07762e+08
1.25818e+08
1.43478e+08
1.60396e+08
1.7623e+08
1.90641e+08
2.03306e+08
2.13943e+08
2.22341e+08
2.28355e+08
2.31899e+08
2.3296e+08
2.31607e+08
2.2797e+08
2.22215e+08
2.14524e+08
2.05107e+08
1.94229e+08
1.82192e+08
1.69307e+08
1.55856e+08
1.42082e+08
1.28207e+08
1.14457e+08
1.01067e+08
8.82618e+07
7.62269e+07
6.50823e+07
5.48824e+07
4.56375e+07
3.73447e+07
3.00046e+07
2.36104e+07
1.81175e+07
1.342e+07
9.36131e+06
5.77185e+06
2.50416e+06
-566848
-3.57249e+06
-6.66804e+06
-1.0009e+07
-1.37039e+07
-1.77932e+07
-2.22713e+07
-2.71144e+07
-3.22718e+07
-3.7644e+07
-4.30947e+07
-4.84942e+07
-5.37332e+07
-5.87011e+07
-6.32871e+07
-6.74161e+07
-7.1049e+07
-7.41494e+07
-7.67026e+07
-7.8749e+07
-8.03455e+07
-8.15492e+07
-8.24641e+07
-8.3231e+07
-8.4013e+07
-8.49945e+07
-8.63446e+07
-8.83003e+07
-9.10627e+07
-9.4856e+07
-9.97581e+07
-1.05904e+08
-1.1308e+08
-1.21068e+08
-1.29317e+08
-1.37074e+08
-1.43374e+08
-1.47199e+08
-1.15807e+08
-1.134e+08
-1.09336e+08
-1.0439e+08
-9.89234e+07
-9.34598e+07
-8.82013e+07
-8.31521e+07
-7.82772e+07
-7.34507e+07
-6.84938e+07
-6.31941e+07
-5.73067e+07
-5.0623e+07
-4.29459e+07
-3.41429e+07
-2.40836e+07
-1.2706e+07
-12918.9
1.39527e+07
2.90958e+07
4.52714e+07
6.229e+07
7.99149e+07
9.78731e+07
1.15859e+08
1.33535e+08
1.50544e+08
1.66529e+08
1.81133e+08
1.94017e+08
2.04883e+08
2.13497e+08
2.19686e+08
2.23344e+08
2.24436e+08
2.23013e+08
2.19186e+08
2.13103e+08
2.04937e+08
1.949e+08
1.83259e+08
1.70324e+08
1.56409e+08
1.41806e+08
1.26777e+08
1.1157e+08
9.64454e+07
8.16724e+07
6.75104e+07
5.4176e+07
4.18187e+07
3.05209e+07
2.03209e+07
1.1243e+07
3.3119e+06
-3.46186e+06
-9.11428e+06
-1.37479e+07
-1.75174e+07
-2.05891e+07
-2.31092e+07
-2.52105e+07
-2.7043e+07
-2.87865e+07
-3.06182e+07
-3.26644e+07
-3.49867e+07
-3.76116e+07
-4.05531e+07
-4.37954e+07
-4.72684e+07
-5.08681e+07
-5.44999e+07
-5.80819e+07
-6.15193e+07
-6.47186e+07
-6.76258e+07
-7.02133e+07
-7.2445e+07
-7.43116e+07
-7.58598e+07
-7.71431e+07
-7.82199e+07
-7.91844e+07
-8.01374e+07
-8.12297e+07
-8.26013e+07
-8.44101e+07
-8.68466e+07
-9.00892e+07
-9.43318e+07
-9.96149e+07
-1.06032e+08
-1.13361e+08
-1.21373e+08
-1.29574e+08
-1.37224e+08
-1.43418e+08
-1.47167e+08
-1.08923e+08
-1.06773e+08
-1.03282e+08
-9.89773e+07
-9.43875e+07
-8.994e+07
-8.57489e+07
-8.18419e+07
-7.81875e+07
-7.46333e+07
-7.09697e+07
-6.69641e+07
-6.23597e+07
-5.69297e+07
-5.04683e+07
-4.28258e+07
-3.38627e+07
-2.35066e+07
-1.17513e+07
1.36911e+06
1.57692e+07
3.13101e+07
4.78055e+07
6.50212e+07
8.2682e+07
1.00476e+08
1.1806e+08
1.35071e+08
1.51139e+08
1.65897e+08
1.78993e+08
1.90116e+08
1.99011e+08
2.05481e+08
2.09395e+08
2.10701e+08
2.09423e+08
2.05653e+08
1.99516e+08
1.9117e+08
1.80823e+08
1.68739e+08
1.55224e+08
1.40592e+08
1.2514e+08
1.09146e+08
9.28828e+07
7.66397e+07
6.07187e+07
4.54101e+07
3.09594e+07
1.75437e+07
5.27272e+06
-5.78672e+06
-1.55819e+07
-2.40633e+07
-3.12022e+07
-3.70246e+07
-4.16276e+07
-4.51606e+07
-4.77832e+07
-4.96377e+07
-5.08619e+07
-5.16218e+07
-5.21173e+07
-5.25433e+07
-5.30409e+07
-5.36926e+07
-5.45573e+07
-5.56875e+07
-5.71022e+07
-5.87643e+07
-6.06076e+07
-6.25767e+07
-6.46179e+07
-6.66521e+07
-6.86021e+07
-7.04324e+07
-7.21237e+07
-7.36434e+07
-7.49907e+07
-7.6212e+07
-7.73478e+07
-7.84532e+07
-7.96088e+07
-8.08752e+07
-8.23838e+07
-8.42265e+07
-8.65524e+07
-8.95013e+07
-9.32172e+07
-9.78493e+07
-1.03397e+08
-1.09916e+08
-1.17203e+08
-1.25033e+08
-1.32977e+08
-1.40315e+08
-1.46221e+08
-1.49778e+08
-1.03815e+08
-1.01982e+08
-9.91756e+07
-9.56834e+07
-9.21809e+07
-8.88857e+07
-8.59219e+07
-8.33345e+07
-8.10592e+07
-7.89017e+07
-7.66385e+07
-7.40235e+07
-7.0795e+07
-6.6713e+07
-6.15643e+07
-5.51849e+07
-4.74286e+07
-3.82118e+07
-2.75188e+07
-1.53716e+07
-1.84549e+06
1.29283e+07
2.87695e+07
4.54479e+07
6.26884e+07
8.0178e+07
9.75714e+07
1.14503e+08