/*--------------------------------*- C++ -*----------------------------------*\
| =========                 |                                                 |
| \\      /  F ield         | OpenFOAM: The Open Source CFD Toolbox           |
|  \\    /   O peration     | Version:  2406                                  |
|   \\  /    A nd           | Website:  www.openfoam.com                      |
|    \\/     M anipulation  |                                                 |
\*---------------------------------------------------------------------------*/
FoamFile
{
    version     2.0;
    format      ascii;
    arch        "LSB;label=32;scalar=64";
    class       volScalarField;
    location    "10";
    object      p_rgh;
}
// * * * * * * * * * * * * * * * * * * * * * * * * * * * * * * * * * * * * * //

dimensions      [1 -1 -2 0 0 0 0];

internalField   nonuniform List<scalar> 
10000
(
-3.90213e+08
-3.91942e+08
-3.94438e+08
-3.96937e+08
-3.99149e+08
-4.00589e+08
-4.00951e+08
-4.00186e+08
-3.98337e+08
-3.95211e+08
-3.90885e+08
-3.85459e+08
-3.79031e+08
-3.71693e+08
-3.63573e+08
-3.54724e+08
-3.45294e+08
-3.35373e+08
-3.25082e+08
-3.14481e+08
-3.0364e+08
-2.92721e+08
-2.81771e+08
-2.70795e+08
-2.59892e+08
-2.49102e+08
-2.38371e+08
-2.27688e+08
-2.17053e+08
-2.0638e+08
-1.9556e+08
-1.84552e+08
-1.73337e+08
-1.6185e+08
-1.50004e+08
-1.37748e+08
-1.25067e+08
-1.11956e+08
-9.84073e+07
-8.44227e+07
-7.00218e+07
-5.52449e+07
-4.01625e+07
-2.4885e+07
-9.5538e+06
5.68437e+06
2.06911e+07
3.53201e+07
4.93863e+07
6.26505e+07
7.48396e+07
8.56874e+07
9.49661e+07
1.02489e+08
1.08089e+08
1.11596e+08
1.12834e+08
1.11642e+08
1.07895e+08
1.01529e+08
9.25292e+07
8.09237e+07
6.67629e+07
5.01148e+07
3.10738e+07
9.77777e+06
-1.35801e+07
-3.87549e+07
-6.5467e+07
-9.34212e+07
-1.22316e+08
-1.5184e+08
-1.81668e+08
-2.1146e+08
-2.40879e+08
-2.69605e+08
-2.97346e+08
-3.2383e+08
-3.48802e+08
-3.72036e+08
-3.93343e+08
-4.12576e+08
-4.29618e+08
-4.44376e+08
-4.56788e+08
-4.66831e+08
-4.7452e+08
-4.79896e+08
-4.83028e+08
-4.84022e+08
-4.83016e+08
-4.80173e+08
-4.75695e+08
-4.69827e+08
-4.62861e+08
-4.55168e+08
-4.47226e+08
-4.39677e+08
-4.33447e+08
-4.29581e+08
-3.87837e+08
-3.89522e+08
-3.92116e+08
-3.9464e+08
-3.96885e+08
-3.98325e+08
-3.98731e+08
-3.97873e+08
-3.95776e+08
-3.92572e+08
-3.88139e+08
-3.82542e+08
-3.75961e+08
-3.68454e+08
-3.60134e+08
-3.51088e+08
-3.41474e+08
-3.3137e+08
-3.20884e+08
-3.10115e+08
-2.99134e+08
-2.8807e+08
-2.76996e+08
-2.65936e+08
-2.54962e+08
-2.44116e+08
-2.3337e+08
-2.22705e+08
-2.12096e+08
-2.01464e+08
-1.90714e+08
-1.79801e+08
-1.68702e+08
-1.57348e+08
-1.45647e+08
-1.33535e+08
-1.21e+08
-1.08046e+08
-9.4666e+07
-8.08423e+07
-6.65739e+07
-5.19022e+07
-3.6917e+07
-2.17402e+07
-6.49995e+06
8.68289e+06
2.36841e+07
3.83478e+07
5.24644e+07
6.57764e+07
7.801e+07
8.89112e+07
9.82628e+07
1.05876e+08
1.11571e+08
1.15163e+08
1.16466e+08
1.1532e+08
1.11606e+08
1.05261e+08
9.6271e+07
8.46555e+07
7.04548e+07
5.37294e+07
3.45741e+07
1.3135e+07
-1.03838e+07
-3.57294e+07
-6.26204e+07
-9.07635e+07
-1.19857e+08
-1.49582e+08
-1.79602e+08
-2.09566e+08
-2.39134e+08
-2.67988e+08
-2.95831e+08
-3.22383e+08
-3.47386e+08
-3.70614e+08
-3.91886e+08
-4.11057e+08
-4.28005e+08
-4.42637e+08
-4.54897e+08
-4.64769e+08
-4.7227e+08
-4.77436e+08
-4.80345e+08
-4.81117e+08
-4.79896e+08
-4.76837e+08
-4.72138e+08
-4.6605e+08
-4.58863e+08
-4.50955e+08
-4.42828e+08
-4.35141e+08
-4.28886e+08
-4.25093e+08
-3.83461e+08
-3.85049e+08
-3.87703e+08
-3.90371e+08
-3.92578e+08
-3.94032e+08
-3.94403e+08
-3.93512e+08
-3.91307e+08
-3.87826e+08
-3.83127e+08
-3.77264e+08
-3.70394e+08
-3.62579e+08
-3.53928e+08
-3.44571e+08
-3.3464e+08
-3.24221e+08
-3.13448e+08
-3.02396e+08
-2.91149e+08
-2.7986e+08
-2.6859e+08
-2.57359e+08
-2.46249e+08
-2.35307e+08
-2.24516e+08
-2.13855e+08
-2.03282e+08
-1.92708e+08
-1.8206e+08
-1.71315e+08
-1.60429e+08
-1.49296e+08
-1.37808e+08
-1.25929e+08
-1.13668e+08
-1.01016e+08
-8.79267e+07
-7.43586e+07
-6.03221e+07
-4.58829e+07
-3.11338e+07
-1.61705e+07
-1.08841e+06
1.40041e+07
2.89679e+07
4.36207e+07
5.77376e+07
7.10649e+07
8.3342e+07
9.43215e+07
1.03779e+08
1.11508e+08
1.17315e+08
1.21005e+08
1.22393e+08
1.2132e+08
1.17668e+08
1.11369e+08
1.02397e+08
9.07618e+07
7.64928e+07
5.96486e+07
4.03295e+07
1.86917e+07
-5.05096e+06
-3.06406e+07
-5.77954e+07
-8.62209e+07
-1.15608e+08
-1.45625e+08
-1.75918e+08
-2.06127e+08
-2.35905e+08
-2.64932e+08
-2.92902e+08
-3.19527e+08
-3.44544e+08
-3.67734e+08
-3.88918e+08
-4.07952e+08
-4.24714e+08
-4.39119e+08
-4.5112e+08
-4.60709e+08
-4.67898e+08
-4.7273e+08
-4.75288e+08
-4.75694e+08
-4.74096e+08
-4.70663e+08
-4.65604e+08
-4.59171e+08
-4.5167e+08
-4.43498e+08
-4.35181e+08
-4.2738e+08
-4.21057e+08
-4.17224e+08
-3.7711e+08
-3.78642e+08
-3.81198e+08
-3.83889e+08
-3.8605e+08
-3.87367e+08
-3.8756e+08
-3.86416e+08
-3.84064e+08
-3.8029e+08
-3.75252e+08
-3.69042e+08
-3.61774e+08
-3.53562e+08
-3.4449e+08
-3.34712e+08
-3.24387e+08
-3.13574e+08
-3.02397e+08
-2.90959e+08
-2.79381e+08
-2.67804e+08
-2.56244e+08
-2.44737e+08
-2.33429e+08
-2.22376e+08
-2.11509e+08
-2.00785e+08
-1.902e+08
-1.79706e+08
-1.69225e+08
-1.5869e+08
-1.48034e+08
-1.37159e+08
-1.25984e+08
-1.14474e+08
-1.02617e+08
-9.03721e+07
-7.7682e+07
-6.45132e+07
-5.08872e+07
-3.68641e+07
-2.25124e+07
-7.89853e+06
6.89686e+06
2.17592e+07
3.65325e+07
5.10238e+07
6.50114e+07
7.82512e+07
9.04874e+07
1.01467e+08
1.10953e+08
1.18728e+08
1.24587e+08
1.28335e+08
1.29788e+08
1.28784e+08
1.25199e+08
1.18954e+08
1.10009e+08
9.83617e+07
8.40357e+07
6.70897e+07
4.76301e+07
2.58215e+07
1.88454e+06
-2.39207e+07
-5.13126e+07
-7.99938e+07
-1.09644e+08
-1.39914e+08
-1.70433e+08
-2.00833e+08
-2.30762e+08
-2.59892e+08
-2.87908e+08
-3.14513e+08
-3.39446e+08
-3.62491e+08
-3.83473e+08
-4.02247e+08
-4.18695e+08
-4.32744e+08
-4.4436e+08
-4.53535e+08
-4.6029e+08
-4.64684e+08
-4.66809e+08
-4.66783e+08
-4.64759e+08
-4.60928e+08
-4.55503e+08
-4.48747e+08
-4.40988e+08
-4.3263e+08
-4.2423e+08
-4.16453e+08
-4.10202e+08
-4.06416e+08
-3.6872e+08
-3.70106e+08
-3.72513e+08
-3.75063e+08
-3.77072e+08
-3.78174e+08
-3.78112e+08
-3.76674e+08
-3.73921e+08
-3.69786e+08
-3.64373e+08
-3.57783e+08
-3.50063e+08
-3.41368e+08
-3.31859e+08
-3.21657e+08
-3.10856e+08
-2.99543e+08
-2.8793e+08
-2.76108e+08
-2.64126e+08
-2.52131e+08
-2.40202e+08
-2.28413e+08
-2.16877e+08
-2.05612e+08
-1.94564e+08
-1.83737e+08
-1.73153e+08
-1.62742e+08
-1.52394e+08
-1.42042e+08
-1.31636e+08
-1.21093e+08
-1.1032e+08
-9.92587e+07
-8.78787e+07
-7.61415e+07
-6.39932e+07
-5.13992e+07
-3.83668e+07
-2.49333e+07
-1.11451e+07
2.94384e+06
1.72544e+07
3.16693e+07
4.60327e+07
6.01571e+07
7.38275e+07
8.68033e+07
9.88269e+07
1.0964e+08
1.19e+08
1.26683e+08
1.32485e+08
1.36209e+08
1.37669e+08
1.36696e+08
1.33157e+08
1.26958e+08
1.18051e+08
1.06421e+08
9.2087e+07
7.51078e+07
5.55937e+07
3.3715e+07
9.69521e+06
-1.62067e+07
-4.3711e+07
-7.25159e+07
-1.02288e+08
-1.32662e+08
-1.63253e+08
-1.93687e+08
-2.23609e+08
-2.52682e+08
-2.8058e+08
-3.07004e+08
-3.31694e+08
-3.5444e+08
-3.75067e+08
-3.93431e+08
-4.09426e+08
-4.22992e+08
-4.34103e+08
-4.42757e+08
-4.48983e+08
-4.5286e+08
-4.54495e+08
-4.54014e+08
-4.5158e+08
-4.47404e+08
-4.41712e+08
-4.34779e+08
-4.26949e+08
-4.18619e+08
-4.10342e+08
-4.02784e+08
-3.96775e+08
-3.93156e+08
-3.58377e+08
-3.59706e+08
-3.61781e+08
-3.63996e+08
-3.65677e+08
-3.66404e+08
-3.6592e+08
-3.64153e+08
-3.60926e+08
-3.56389e+08
-3.50547e+08
-3.43468e+08
-3.35297e+08
-3.26181e+08
-3.16199e+08
-3.0549e+08
-2.9421e+08
-2.82446e+08
-2.70374e+08
-2.58069e+08
-2.45617e+08
-2.33194e+08
-2.2088e+08
-2.08731e+08
-1.96858e+08
-1.85302e+08
-1.74036e+08
-1.63078e+08
-1.52438e+08
-1.42039e+08
-1.3178e+08
-1.2161e+08
-1.11486e+08
-1.0131e+08
-9.09701e+07
-8.0403e+07
-6.95835e+07
-5.84761e+07
-4.70203e+07
-3.51622e+07
-2.28865e+07
-1.02138e+07
2.81783e+06
1.61592e+07
2.97394e+07
4.34531e+07
5.71567e+07
7.0671e+07
8.37845e+07
9.62581e+07
1.07835e+08
1.1826e+08
1.27291e+08
1.34709e+08
1.40309e+08
1.43894e+08
1.4527e+08
1.44262e+08
1.40726e+08
1.3456e+08
1.25706e+08
1.1414e+08
9.98754e+07
8.29672e+07
6.35278e+07
4.17298e+07
1.77952e+07
-8.02233e+06
-3.54459e+07
-6.41691e+07
-9.38464e+07
-1.24098e+08
-1.54533e+08
-1.84776e+08
-2.14467e+08
-2.43261e+08
-2.70826e+08
-2.96862e+08
-3.21115e+08
-3.43377e+08
-3.63473e+08
-3.81264e+08
-3.96658e+08
-4.09609e+08
-4.201e+08
-4.28141e+08
-4.3378e+08
-4.37108e+08
-4.38246e+08
-4.37343e+08
-4.34581e+08
-4.30181e+08
-4.24389e+08
-4.17485e+08
-4.09812e+08
-4.01762e+08
-3.93853e+08
-3.86726e+08
-3.8112e+08
-3.77781e+08
-3.46135e+08
-3.47349e+08
-3.4905e+08
-3.50766e+08
-3.51972e+08
-3.52192e+08
-3.51179e+08
-3.48872e+08
-3.45168e+08
-3.40142e+08
-3.33835e+08
-3.26307e+08
-3.1767e+08
-3.08095e+08
-2.97659e+08
-2.86498e+08
-2.7475e+08
-2.62502e+08
-2.49946e+08
-2.37159e+08
-2.24234e+08
-2.11344e+08
-1.98572e+08
-1.85989e+08
-1.73724e+08
-1.61827e+08
-1.50282e+08
-1.39112e+08
-1.28338e+08
-1.17897e+08
-1.07703e+08
-9.77079e+07
-8.78564e+07
-7.80433e+07
-6.81585e+07
-5.81453e+07
-4.79826e+07
-3.76256e+07
-2.6993e+07
-1.60101e+07
-4.64908e+06
7.07425e+06
1.91276e+07
3.14755e+07
4.40674e+07
5.6818e+07
6.95972e+07
8.22328e+07
9.45171e+07
1.06216e+08
1.17082e+08
1.2687e+08
1.35351e+08
1.42311e+08
1.47546e+08
1.50853e+08
1.52033e+08
1.50905e+08
1.47319e+08
1.4117e+08
1.32391e+08
1.20948e+08
1.06844e+08
9.01317e+07
7.09218e+07
4.9385e+07
2.5737e+07
222987
-2.68842e+07
-5.52739e+07
-8.45916e+07
-1.1445e+08
-1.44458e+08
-1.7424e+08
-2.03436e+08
-2.31694e+08
-2.58681e+08
-2.841e+08
-3.07704e+08
-3.29284e+08
-3.48667e+08
-3.65723e+08
-3.80373e+08
-3.92583e+08
-4.02347e+08
-4.09695e+08
-4.14703e+08
-4.17471e+08
-4.18139e+08
-4.16885e+08
-4.1391e+08
-4.09445e+08
-4.03757e+08
-3.97119e+08
-3.89867e+08
-3.8237e+08
-3.75091e+08
-3.6862e+08
-3.63577e+08
-3.60608e+08
-3.32205e+08
-3.33203e+08
-3.34497e+08
-3.3559e+08
-3.36096e+08
-3.35661e+08
-3.34093e+08
-3.31127e+08
-3.26893e+08
-3.21354e+08
-3.14532e+08
-3.06539e+08
-2.97477e+08
-2.87486e+08
-2.76613e+08
-2.65007e+08
-2.52812e+08
-2.40113e+08
-2.27092e+08
-2.13819e+08
-2.0039e+08
-1.86993e+08
-1.73724e+08
-1.60669e+08
-1.47957e+08
-1.35644e+08
-1.23733e+08
-1.12276e+08
-1.01309e+08
-9.07818e+07
-8.06134e+07
-7.07544e+07
-6.1149e+07
-5.1698e+07
-4.23025e+07
-3.29117e+07
-2.34952e+07
-1.3988e+07
-4.28993e+06
5.68297e+06
1.59609e+07
2.65328e+07
3.73814e+07
4.84956e+07
5.98508e+07
7.1382e+07
8.2971e+07
9.44522e+07
1.05625e+08
1.16269e+08
1.26156e+08
1.35061e+08
1.42771e+08
1.49077e+08
1.53776e+08
1.56658e+08
1.57521e+08
1.56184e+08
1.52498e+08
1.46352e+08
1.37673e+08
1.26415e+08
1.12572e+08
9.61901e+07
7.73755e+07
5.62931e+07
3.31481e+07
8.17497e+06
-1.83592e+07
-4.61417e+07
-7.48133e+07
-1.03987e+08
-1.33278e+08
-1.62314e+08
-1.90736e+08
-2.18189e+08
-2.44344e+08
-2.68913e+08
-2.91653e+08
-3.12353e+08
-3.30845e+08
-3.47009e+08
-3.60784e+08
-3.72143e+08
-3.81093e+08
-3.87693e+08
-3.92045e+08
-3.9427e+08
-3.94527e+08
-3.93022e+08
-3.89972e+08
-3.85616e+08
-3.80229e+08
-3.74079e+08
-3.67487e+08
-3.60787e+08
-3.54384e+08
-3.48798e+08
-3.44488e+08
-3.41976e+08
-3.16852e+08
-3.17485e+08
-3.1825e+08
-3.18695e+08
-3.1842e+08
-3.17185e+08
-3.14843e+08
-3.11254e+08
-3.06404e+08
-3.00296e+08
-2.92984e+08
-2.84564e+08
-2.75092e+08
-2.64695e+08
-2.53418e+08
-2.41422e+08
-2.28832e+08
-2.15712e+08
-2.02232e+08
-1.88468e+08
-1.74533e+08
-1.60623e+08
-1.46837e+08
-1.33263e+08
-1.20037e+08
-1.07235e+08
-9.48955e+07
-8.30966e+07
-7.18852e+07
-6.12154e+07
-5.1016e+07
-4.12501e+07
-3.18742e+07
-2.28011e+07
-1.39392e+07
-5.2325e+06
3.36543e+06
1.19369e+07
2.05911e+07
2.94133e+07
3.84357e+07
4.76599e+07
5.70928e+07
6.6753e+07
7.66425e+07
8.67138e+07
9.68586e+07
1.0692e+08
1.16712e+08
1.26039e+08
1.34699e+08
1.42495e+08
1.49226e+08
1.54694e+08
1.5869e+08
1.61005e+08
1.61438e+08
1.59812e+08
1.5598e+08
1.49831e+08
1.41282e+08
1.30276e+08
1.16796e+08
1.0088e+08
8.26286e+07
6.21963e+07
3.97744e+07
1.55838e+07
-1.01155e+07
-3.70122e+07
-6.47483e+07
-9.29448e+07
-1.21227e+08
-1.49231e+08
-1.766e+08
-2.02985e+08
-2.28065e+08
-2.51561e+08
-2.73233e+08
-2.92872e+08
-3.10314e+08
-3.25453e+08
-3.38238e+08
-3.48654e+08
-3.56729e+08
-3.62548e+08
-3.66238e+08
-3.67952e+08
-3.67874e+08
-3.66227e+08
-3.63245e+08
-3.59179e+08
-3.54293e+08
-3.48844e+08
-3.43133e+08
-3.37461e+08
-3.32151e+08
-3.27645e+08
-3.2422e+08
-3.22256e+08
-3.00385e+08
-3.0054e+08
-3.00636e+08
-3.0029e+08
-2.99188e+08
-2.97173e+08
-2.93944e+08
-2.89651e+08
-2.8416e+08
-2.77496e+08
-2.69713e+08
-2.60874e+08
-2.51011e+08
-2.40255e+08
-2.28642e+08
-2.16315e+08
-2.03368e+08
-1.8985e+08
-1.75933e+08
-1.61703e+08
-1.47285e+08
-1.32861e+08
-1.18527e+08
-1.04388e+08
-9.05978e+07
-7.72616e+07
-6.44501e+07
-5.22587e+07
-4.07401e+07
-2.98612e+07
-1.95759e+07
-9.87283e+06
-723916
7.95152e+06
1.62458e+07
2.42228e+07
3.19415e+07
3.94944e+07
4.69949e+07
5.45294e+07
6.21375e+07
6.98402e+07
7.76739e+07
8.56878e+07
9.39076e+07
1.02301e+08
1.1077e+08
1.19173e+08
1.27348e+08
1.3513e+08
1.42351e+08
1.48839e+08
1.54412e+08
1.58875e+08
1.62021e+08
1.63644e+08
1.63548e+08
1.61564e+08
1.57553e+08
1.51402e+08
1.43017e+08
1.3233e+08
1.19312e+08
1.03994e+08
8.64664e+07
6.6872e+07
4.53842e+07
2.22083e+07
-2.40554e+06
-2.81508e+07
-5.46772e+07
-8.16198e+07
-1.08619e+08
-1.35323e+08
-1.61381e+08
-1.86453e+08
-2.10232e+08
-2.32451e+08
-2.52872e+08
-2.71289e+08
-2.87547e+08
-3.01555e+08
-3.13266e+08
-3.22681e+08
-3.29856e+08
-3.34896e+08
-3.37949e+08
-3.39202e+08
-3.38868e+08
-3.37176e+08
-3.34381e+08
-3.30739e+08
-3.26509e+08
-3.21948e+08
-3.17326e+08
-3.12897e+08
-3.08874e+08
-3.0561e+08
-3.03197e+08
-3.0185e+08
-2.82898e+08
-2.82633e+08
-2.82082e+08
-2.8088e+08
-2.78818e+08
-2.75856e+08
-2.71865e+08
-2.66819e+08
-2.60674e+08
-2.53474e+08
-2.45238e+08
-2.36011e+08
-2.2581e+08
-2.14765e+08
-2.02878e+08
-1.90265e+08
-1.76999e+08
-1.63128e+08
-1.48823e+08
-1.34171e+08
-1.19289e+08
-1.04345e+08
-8.94437e+07
-7.47165e+07
-6.03426e+07
-4.64478e+07
-3.31254e+07
-2.04858e+07
-8.59594e+06
2.54914e+06
1.29584e+07
2.2616e+07
3.15394e+07
3.9808e+07
4.75152e+07
5.47284e+07
6.15131e+07
6.7968e+07
7.42112e+07
8.03354e+07
8.63943e+07
9.24327e+07
9.85159e+07
1.04721e+08
1.11094e+08
1.17618e+08
1.24213e+08
1.30759e+08
1.37123e+08
1.43178e+08
1.48788e+08
1.53809e+08
1.58074e+08
1.61394e+08
1.63568e+08
1.64396e+08
1.63693e+08
1.61302e+08
1.5709e+08
1.50943e+08
1.42759e+08
1.32456e+08
1.19995e+08
1.05397e+08
8.8744e+07
7.01607e+07
4.98008e+07
2.78517e+07
4.55209e+06
-1.98011e+07
-4.48713e+07
-7.0313e+07
-9.57866e+07
-1.20954e+08
-1.45474e+08
-1.69023e+08
-1.91309e+08
-2.12075e+08
-2.31086e+08
-2.48144e+08
-2.63109e+08
-2.75899e+08
-2.86478e+08
-2.94861e+08
-3.01132e+08
-3.05419e+08
-3.07884e+08
-3.08743e+08
-3.08237e+08
-3.06602e+08
-3.0411e+08
-3.01019e+08
-2.97585e+08
-2.94057e+08
-2.90678e+08
-2.87658e+08
-2.85084e+08
-2.83184e+08
-2.81865e+08
-2.81176e+08
-2.6477e+08
-2.64057e+08
-2.62761e+08
-2.60692e+08
-2.57758e+08
-2.53812e+08
-2.4904e+08
-2.43248e+08
-2.36483e+08
-2.28786e+08
-2.20144e+08
-2.10592e+08
-2.00131e+08
-1.88862e+08
-1.76757e+08
-1.63916e+08
-1.50394e+08
-1.36238e+08
-1.21606e+08
-1.06572e+08
-9.12456e+07
-7.57907e+07
-6.03311e+07
-4.50253e+07
-3.00672e+07
-1.55952e+07
-1.72384e+06
1.14135e+07
2.37234e+07
3.51735e+07
4.57336e+07
5.53636e+07
6.40731e+07
7.19397e+07
7.90533e+07
8.54785e+07
9.12822e+07
9.65697e+07
1.01468e+08
1.06084e+08
1.10489e+08
1.14753e+08
1.18966e+08
1.23229e+08
1.27609e+08
1.3211e+08
1.36672e+08
1.41205e+08
1.45612e+08
1.49801e+08
1.53672e+08
1.57103e+08
1.59945e+08
1.62017e+08
1.63126e+08
1.63084e+08
1.6172e+08
1.58891e+08
1.54474e+08
1.48351e+08
1.40409e+08
1.30556e+08
1.18741e+08
1.04979e+08
8.9338e+07
7.19225e+07
5.28637e+07
3.23295e+07
1.05447e+07
-1.22074e+07
-3.56097e+07
-5.93408e+07
-8.30827e+07
-1.06513e+08
-1.29307e+08
-1.5116e+08
-1.71798e+08
-1.90974e+08
-2.08459e+08
-2.24066e+08
-2.3767e+08
-2.49198e+08
-2.58624e+08
-2.65981e+08
-2.71375e+08
-2.74954e+08
-2.76899e+08
-2.77439e+08
-2.76826e+08
-2.75325e+08
-2.73228e+08
-2.70793e+08
-2.6827e+08
-2.65897e+08
-2.63874e+08
-2.62369e+08
-2.61332e+08
-2.60853e+08
-2.60665e+08
-2.60652e+08
-2.46386e+08
-2.45262e+08
-2.43231e+08
-2.40248e+08
-2.36405e+08
-2.31668e+08
-2.26057e+08
-2.19572e+08
-2.12271e+08
-2.04149e+08
-1.95178e+08
-1.85381e+08
-1.7474e+08
-1.63319e+08
-1.51071e+08
-1.38079e+08
-1.24381e+08
-1.10013e+08
-9.51079e+07
-7.97307e+07
-6.39925e+07
-4.80601e+07
-3.20741e+07
-1.62119e+07
-673712
1.43903e+07
2.88386e+07
4.25065e+07
5.52668e+07
6.70476e+07
7.77827e+07
8.74105e+07
9.59311e+07
1.03413e+08
1.09936e+08
1.15556e+08
1.20342e+08
1.24411e+08
1.27902e+08
1.3094e+08
1.33617e+08
1.36023e+08
1.38273e+08
1.40491e+08
1.42768e+08
1.45129e+08
1.47545e+08
1.49957e+08
1.52306e+08
1.54536e+08
1.56578e+08
1.58336e+08
1.59675e+08
1.60426e+08
1.60409e+08
1.5945e+08
1.57398e+08
1.54125e+08
1.49512e+08
1.43441e+08
1.35788e+08
1.26449e+08
1.15367e+08
1.02547e+08
8.8039e+07
7.19269e+07
5.43163e+07
3.53545e+07
1.525e+07
-5.73218e+06
-2.72993e+07
-4.91563e+07
-7.1007e+07
-9.25455e+07
-1.13466e+08
-1.33484e+08
-1.52346e+08
-1.69816e+08
-1.85678e+08
-1.99762e+08
-2.11957e+08
-2.22201e+08
-2.30481e+08
-2.36848e+08
-2.41417e+08
-2.44347e+08
-2.45845e+08
-2.46151e+08
-2.45519e+08
-2.44228e+08
-2.42585e+08
-2.40873e+08
-2.39337e+08
-2.38203e+08
-2.37599e+08
-2.37642e+08
-2.38156e+08
-2.39099e+08
-2.4004e+08
-2.40702e+08
-2.27929e+08
-2.26373e+08
-2.23726e+08
-2.19976e+08
-2.15201e+08
-2.0971e+08
-2.03353e+08
-1.963e+08
-1.88566e+08
-1.80115e+08
-1.70918e+08
-1.60985e+08
-1.50262e+08
-1.3879e+08
-1.26501e+08
-1.13458e+08
-9.96723e+07
-8.51662e+07
-7.00518e+07
-5.43912e+07
-3.83016e+07
-2.19501e+07
-5.48734e+06
1.08979e+07
2.70007e+07
4.26543e+07
5.76845e+07
7.18914e+07
8.5113e+07
9.72407e+07
1.08175e+08
1.17834e+08
1.26198e+08
1.33321e+08
1.39262e+08
1.44071e+08
1.47823e+08
1.50647e+08
1.527e+08
1.54121e+08
1.55021e+08
1.55513e+08
1.55738e+08
1.55843e+08
1.55943e+08
1.56093e+08
1.56293e+08
1.5652e+08
1.56753e+08
1.5697e+08
1.57134e+08
1.57171e+08
1.56963e+08
1.56356e+08
1.55187e+08
1.53299e+08
1.50562e+08
1.46861e+08
1.42085e+08
1.3611e+08
1.28803e+08
1.20051e+08
1.0979e+08
9.80112e+07
8.47493e+07
7.00604e+07
5.40242e+07
3.67661e+07
1.84759e+07
-604187
-2.021e+07
-4.00746e+07
-5.9923e+07
-7.94661e+07
-9.8418e+07
-1.16518e+08
-1.3353e+08
-1.4923e+08
-1.63421e+08
-1.75955e+08
-1.86738e+08
-1.95713e+08
-2.02882e+08
-2.08311e+08
-2.12116e+08
-2.14465e+08
-2.15585e+08
-2.15721e+08
-2.15138e+08
-2.1413e+08
-2.1301e+08
-2.12076e+08
-2.11565e+08
-2.11685e+08
-2.12491e+08
-2.14048e+08
-2.16073e+08
-2.18394e+08
-2.20433e+08
-2.21755e+08
-2.09919e+08
-2.07977e+08
-2.04694e+08
-2.00233e+08
-1.94768e+08
-1.88516e+08
-1.81596e+08
-1.74123e+08
-1.66072e+08
-1.57417e+08
-1.48125e+08
-1.38184e+08
-1.27505e+08
-1.16102e+08
-1.03886e+08
-9.08928e+07
-7.71102e+07
-6.2548e+07
-4.73017e+07
-3.14354e+07
-1.50697e+07
1.63312e+06
1.85173e+07
3.53852e+07
5.20235e+07
6.82436e+07
8.38374e+07
9.85721e+07
1.12254e+08
1.24742e+08
1.35902e+08
1.45625e+08
1.5387e+08
1.60661e+08
1.66041e+08
1.70054e+08
1.72782e+08
1.74368e+08
1.74983e+08
1.7478e+08
1.7389e+08
1.72448e+08
1.7062e+08
1.68581e+08
1.66474e+08
1.64383e+08
1.6234e+08
1.6036e+08
1.58457e+08
1.56644e+08
1.54912e+08
1.53211e+08
1.51442e+08
1.4947e+08
1.4715e+08
1.44346e+08
1.40946e+08
1.36852e+08
1.31955e+08
1.26125e+08
1.19224e+08
1.11128e+08
1.01765e+08
9.1115e+07
7.91905e+07
6.60199e+07
5.1655e+07
3.61986e+07
1.98192e+07
2.73331e+06
-1.48252e+07
-3.26168e+07
-5.03861e+07
-6.78623e+07
-8.47817e+07
-1.00907e+08
-1.1602e+08
-1.2991e+08
-1.424e+08
-1.5337e+08
-1.62742e+08
-1.70472e+08
-1.76579e+08
-1.81141e+08
-1.84268e+08
-1.86122e+08
-1.86938e+08
-1.86969e+08
-1.86501e+08
-1.85838e+08
-1.85293e+08
-1.85165e+08
-1.8567e+08
-1.87003e+08
-1.89152e+08
-1.92136e+08
-1.95587e+08
-1.99209e+08
-2.02291e+08
-2.04239e+08
-1.92491e+08
-1.90284e+08
-1.86487e+08
-1.81327e+08
-1.75319e+08
-1.68497e+08
-1.61203e+08
-1.5345e+08
-1.45231e+08
-1.36539e+08
-1.27321e+08
-1.17527e+08
-1.07042e+08
-9.58454e+07
-8.3828e+07
-7.10011e+07
-5.73296e+07
-4.28154e+07
-2.75392e+07
-1.15656e+07
4.98563e+06
2.19598e+07
3.91966e+07
5.64885e+07
7.36096e+07
9.03477e+07
1.06464e+08
1.21699e+08
1.35832e+08
1.48685e+08
1.60092e+08
1.69911e+08
1.78073e+08
1.84571e+08
1.89428e+08
1.92684e+08
1.9443e+08
1.9482e+08
1.94037e+08
1.92245e+08
1.8959e+08
1.86234e+08
1.82369e+08
1.782e+08
1.73899e+08
1.69579e+08
1.65308e+08
1.61135e+08
1.57109e+08
1.53276e+08
1.49658e+08
1.4623e+08
1.42914e+08
1.39596e+08
1.36151e+08
1.32464e+08
1.28445e+08
1.24005e+08
1.1904e+08
1.13416e+08
1.06981e+08
9.96093e+07
9.12183e+07
8.17737e+07
7.12641e+07
5.96875e+07
4.70671e+07
3.34816e+07
1.90759e+07
4.0382e+06
-1.14278e+07
-2.71071e+07
-4.2762e+07
-5.81397e+07
-7.30008e+07
-8.7133e+07
-1.00337e+08
-1.12422e+08
-1.23237e+08
-1.32683e+08
-1.40696e+08
-1.47245e+08
-1.52353e+08
-1.56106e+08
-1.58619e+08
-1.60062e+08
-1.60665e+08
-1.60675e+08
-1.60388e+08
-1.60116e+08
-1.60165e+08
-1.60831e+08
-1.62305e+08
-1.64768e+08
-1.68152e+08
-1.72439e+08
-1.77196e+08
-1.82007e+08
-1.86042e+08
-1.88562e+08
-1.76025e+08
-1.73525e+08
-1.69355e+08
-1.63773e+08
-1.57265e+08
-1.50152e+08
-1.42651e+08
-1.34783e+08
-1.26595e+08
-1.18066e+08
-1.09106e+08
-9.96282e+07
-8.94952e+07
-7.86531e+07
-6.69735e+07
-5.44433e+07
-4.10083e+07
-2.66631e+07
-1.14738e+07
4.4984e+06
2.11374e+07
3.8294e+07
5.58012e+07
7.344e+07
9.09712e+07
1.0816e+08
1.24745e+08
1.40444e+08
1.55008e+08
1.68226e+08
1.79893e+08
1.89835e+08
1.97951e+08
2.04206e+08
2.086e+08
2.11169e+08
2.1201e+08
2.11286e+08
2.09184e+08
2.05878e+08
2.0153e+08
1.96327e+08
1.9049e+08
1.84253e+08
1.77815e+08
1.71323e+08
1.64874e+08
1.58553e+08
1.52444e+08
1.4663e+08
1.41161e+08
1.3604e+08
1.31212e+08
1.26585e+08
1.22057e+08
1.17535e+08
1.12948e+08
1.08218e+08
1.03241e+08
9.78759e+07
9.19659e+07
8.5376e+07
7.8017e+07
6.98379e+07
6.08004e+07
5.08707e+07
4.00426e+07
2.83699e+07
1.59718e+07
3.00604e+06
-1.03545e+07
-2.3918e+07
-3.74628e+07
-5.07542e+07
-6.35765e+07
-7.57388e+07
-8.70597e+07
-9.73717e+07
-1.0655e+08
-1.14518e+08
-1.21224e+08
-1.26656e+08
-1.30854e+08
-1.33891e+08
-1.35877e+08
-1.36991e+08
-1.37457e+08
-1.37523e+08
-1.37471e+08
-1.37626e+08
-1.38272e+08
-1.39693e+08
-1.42052e+08
-1.45528e+08
-1.50011e+08
-1.5545e+08
-1.61359e+08
-1.67207e+08
-1.72066e+08
-1.75072e+08
-1.60871e+08
-1.58177e+08
-1.53679e+08
-1.47893e+08
-1.41113e+08
-1.33912e+08
-1.26376e+08
-1.18614e+08
-1.10684e+08
-1.02522e+08
-9.40005e+07
-8.50115e+07
-7.53933e+07
-6.50595e+07
-5.3866e+07
-4.17753e+07
-2.87155e+07
-1.4672e+07
305433
1.61598e+07
3.27788e+07
5.00145e+07
6.76912e+07
8.55801e+07
1.03431e+08
1.2099e+08
1.37976e+08
1.54089e+08
1.69054e+08
1.82622e+08
1.94552e+08
2.0464e+08
2.12751e+08
2.18823e+08
2.22835e+08
2.24816e+08
2.24865e+08
2.23145e+08
2.19845e+08
2.15146e+08
2.09227e+08
2.02297e+08
1.94606e+08
1.86413e+08
1.77945e+08
1.69376e+08
1.60836e+08
1.52445e+08
1.44325e+08
1.36591e+08
1.29328e+08
1.22566e+08
1.16276e+08
1.10391e+08
1.04829e+08
9.95249e+07
9.4421e+07
8.94504e+07
8.45079e+07
7.94462e+07
7.41022e+07
6.83357e+07
6.20489e+07
5.51722e+07
4.76386e+07
3.93817e+07
3.0367e+07
2.06242e+07
1.02462e+07
-640898
-1.18948e+07
-2.33462e+07
-3.47912e+07
-4.60165e+07
-5.68306e+07
-6.70633e+07
-7.65503e+07
-8.51506e+07
-9.27708e+07
-9.93512e+07
-1.04846e+08
-1.09254e+08
-1.12626e+08
-1.15035e+08
-1.16587e+08
-1.17461e+08
-1.17869e+08
-1.18063e+08
-1.183e+08
-1.18903e+08
-1.20129e+08
-1.22242e+08
-1.25385e+08
-1.29738e+08
-1.35168e+08
-1.41585e+08
-1.48454e+08
-1.55143e+08
-1.60654e+08
-1.64037e+08
-1.47035e+08
-1.44301e+08
-1.397e+08
-1.33756e+08
-1.27026e+08
-1.19904e+08
-1.12562e+08
-1.0516e+08
-9.77134e+07
-9.01131e+07
-8.22136e+07
-7.38914e+07
-6.49607e+07
-5.53024e+07
-4.47578e+07
-3.32636e+07
-2.07311e+07
-7.13379e+06
7.49388e+06
2.30984e+07
3.95701e+07
5.67597e+07
7.44834e+07
9.25062e+07
1.1057e+08
1.28405e+08
1.45712e+08
1.62175e+08
1.77493e+08
1.91383e+08
2.03571e+08
2.13822e+08
2.21975e+08
2.27938e+08
2.3167e+08
2.3319e+08
2.32591e+08
2.30031e+08
2.25697e+08
2.19773e+08
2.12452e+08
2.03968e+08
1.94592e+08
1.84607e+08
1.74263e+08
1.63758e+08
1.53256e+08
1.4291e+08
1.32881e+08
1.23321e+08
1.14349e+08
1.06022e+08
9.8341e+07
9.12614e+07
8.47286e+07
7.86976e+07
7.31289e+07
6.79627e+07
6.30927e+07
5.83663e+07
5.36159e+07
4.86973e+07
4.35034e+07
3.79441e+07
3.19221e+07
2.53386e+07
1.81319e+07
1.03082e+07
1.93317e+06
-6.89881e+06
-1.60753e+07
-2.54494e+07
-3.48372e+07
-4.40505e+07
-5.29254e+07
-6.13109e+07
-6.90581e+07
-7.60466e+07
-8.22082e+07
-8.75006e+07
-9.1889e+07
-9.53808e+07
-9.8031e+07
-9.99075e+07
-1.01125e+08
-1.0186e+08
-1.02303e+08
-1.027e+08
-1.0327e+08
-1.04323e+08
-1.06091e+08
-1.08826e+08
-1.1265e+08
-1.17746e+08
-1.23957e+08
-1.31145e+08
-1.38741e+08
-1.46034e+08
-1.52002e+08
-1.55643e+08
-1.34861e+08
-1.32103e+08
-1.2761e+08
-1.21717e+08
-1.15243e+08
-1.08408e+08
-1.01528e+08
-9.47237e+07
-8.79541e+07
-8.10961e+07
-7.40022e+07
-6.65228e+07
-5.84507e+07
-4.96336e+07
-3.98985e+07
-2.91564e+07
-1.73027e+07
-4.29822e+06
9.83535e+06
2.50466e+07
4.12287e+07
5.82313e+07
7.58657e+07
9.38939e+07
1.12052e+08
1.30055e+08
1.47591e+08
1.64326e+08
1.79937e+08
1.9411e+08
2.06543e+08
2.16977e+08
2.25223e+08
2.31163e+08
2.34735e+08
2.35942e+08
2.34868e+08
2.3166e+08
2.26496e+08
2.1956e+08
2.11059e+08
2.01243e+08
1.90404e+08
1.78841e+08
1.66821e+08
1.54567e+08
1.42273e+08
1.30128e+08
1.1833e+08
1.0707e+08
9.64975e+07
8.67039e+07
7.77148e+07
6.95135e+07
6.20706e+07
5.53636e+07
4.93694e+07
4.40351e+07
3.92542e+07
3.48708e+07
3.07148e+07
2.66396e+07
2.25288e+07
1.82714e+07
1.37396e+07
8.80441e+06
3.37873e+06
-2.55495e+06
-8.95996e+06
-1.57757e+07
-2.29194e+07
-3.0266e+07
-3.76532e+07
-4.49204e+07
-5.19312e+07
-5.8556e+07
-6.46643e+07
-7.01572e+07
-7.49824e+07
-7.91047e+07
-8.25027e+07
-8.52018e+07
-8.72572e+07
-8.8729e+07
-8.97301e+07
-9.04289e+07
-9.09976e+07
-9.16579e+07
-9.2599e+07
-9.40984e+07
-9.63732e+07
-9.96639e+07
-1.04076e+08
-1.09775e+08
-1.16577e+08
-1.24295e+08
-1.32351e+08
-1.39997e+08
-1.46223e+08
-1.50012e+08
-1.24491e+08
-1.21829e+08
-1.17474e+08
-1.11965e+08
-1.05888e+08
-9.96055e+07
-9.3438e+07
-8.74244e+07
-8.15106e+07
-7.55755e+07
-6.9466e+07
-6.29985e+07
-5.59461e+07
-4.81255e+07
-3.93503e+07
-2.95083e+07
-1.84808e+07
-6.21656e+06
7.27272e+06
2.19385e+07
3.76785e+07
5.43438e+07
7.17438e+07
8.96406e+07
1.07765e+08
1.25821e+08
1.43481e+08
1.60399e+08
1.76233e+08
1.90644e+08
2.03309e+08
2.13946e+08
2.22344e+08
2.28357e+08
2.31902e+08
2.32963e+08
2.31609e+08
2.27973e+08
2.22218e+08
2.14526e+08
2.0511e+08
1.94231e+08
1.82194e+08
1.6931e+08
1.55859e+08
1.42084e+08
1.2821e+08
1.1446e+08
1.0107e+08
8.82646e+07
7.62297e+07
6.50852e+07
5.48853e+07
4.56403e+07
3.73475e+07
3.00074e+07
2.36133e+07
1.81203e+07
1.34228e+07
9.36413e+06
5.77466e+06
2.50697e+06
-564033
-3.56968e+06
-6.66522e+06
-1.00062e+07
-1.37011e+07
-1.77904e+07
-2.22685e+07
-2.71115e+07
-3.2269e+07
-3.76412e+07
-4.30919e+07
-4.84914e+07
-5.37304e+07
-5.86983e+07
-6.32843e+07
-6.74133e+07
-7.10462e+07
-7.41466e+07
-7.66998e+07
-7.87461e+07
-8.03427e+07
-8.15464e+07
-8.24612e+07
-8.32282e+07
-8.40101e+07
-8.49917e+07
-8.63418e+07
-8.82974e+07
-9.10598e+07
-9.48532e+07
-9.97553e+07
-1.05901e+08
-1.13077e+08
-1.21065e+08
-1.29314e+08
-1.37071e+08
-1.43371e+08
-1.47197e+08
-1.15804e+08
-1.13397e+08
-1.09333e+08
-1.04387e+08
-9.89205e+07
-9.34569e+07
-8.81984e+07
-8.31492e+07
-7.82743e+07
-7.34478e+07
-6.84909e+07
-6.31912e+07
-5.73037e+07
-5.062e+07
-4.29429e+07
-3.41399e+07
-2.40806e+07
-1.2703e+07
-9965.29
1.39556e+07
2.90987e+07
4.52744e+07
6.22929e+07
7.99178e+07
9.7876e+07
1.15862e+08
1.33538e+08
1.50547e+08
1.66532e+08
1.81136e+08
1.9402e+08
2.04886e+08
2.135e+08
2.19689e+08
2.23347e+08
2.24439e+08
2.23016e+08
2.19189e+08
2.13106e+08
2.0494e+08
1.94903e+08
1.83262e+08
1.70327e+08
1.56412e+08
1.41809e+08
1.2678e+08
1.11573e+08
9.64484e+07
8.16753e+07
6.75133e+07
5.41789e+07
4.18217e+07
3.05239e+07
2.03238e+07
1.12459e+07
3.31485e+06
-3.45891e+06
-9.11133e+06
-1.37449e+07
-1.75145e+07
-2.05861e+07
-2.31062e+07
-2.52075e+07
-2.704e+07
-2.87835e+07
-3.06152e+07
-3.26614e+07
-3.49838e+07
-3.76086e+07
-4.05502e+07
-4.37925e+07
-4.72654e+07
-5.08651e+07
-5.4497e+07
-5.80789e+07
-6.15164e+07
-6.47156e+07
-6.76228e+07
-7.02103e+07
-7.24421e+07
-7.43086e+07
-7.58569e+07
-7.71402e+07
-7.8217e+07
-7.91815e+07
-8.01344e+07
-8.12267e+07
-8.25984e+07
-8.44071e+07
-8.68436e+07
-9.00862e+07
-9.43289e+07
-9.96119e+07
-1.06029e+08
-1.13358e+08
-1.2137e+08
-1.29571e+08
-1.37221e+08
-1.43415e+08
-1.47164e+08
-1.0892e+08
-1.0677e+08
-1.03279e+08
-9.89743e+07
-9.43844e+07
-8.99369e+07
-8.57458e+07
-8.18388e+07
-7.81844e+07
-7.46302e+07
-7.09666e+07
-6.6961e+07
-6.23566e+07
-5.69266e+07
-5.04652e+07
-4.28227e+07
-3.38596e+07
-2.35035e+07
-1.17482e+07
1.3722e+06
1.57723e+07
3.13132e+07
4.78085e+07
6.50243e+07
8.2685e+07
1.00479e+08
1.18063e+08
1.35074e+08
1.51142e+08
1.659e+08
1.78997e+08
1.90119e+08
1.99014e+08
2.05484e+08
2.09399e+08
2.10704e+08
2.09426e+08
2.05656e+08
1.99519e+08
1.91173e+08
1.80826e+08
1.68742e+08
1.55227e+08
1.40595e+08
1.25144e+08
1.09149e+08
9.28859e+07
7.66428e+07
6.07218e+07
4.54132e+07
3.09625e+07
1.75467e+07
5.27581e+06
-5.78363e+06
-1.55788e+07
-2.40602e+07
-3.11991e+07
-3.70215e+07
-4.16245e+07
-4.51575e+07
-4.77801e+07
-4.96346e+07
-5.08589e+07
-5.16187e+07
-5.21142e+07
-5.25402e+07
-5.30378e+07
-5.36895e+07
-5.45542e+07
-5.56844e+07
-5.70991e+07
-5.87612e+07
-6.06045e+07
-6.25736e+07
-6.46148e+07
-6.6649e+07
-6.85991e+07
-7.04293e+07
-7.21206e+07
-7.36403e+07
-7.49876e+07
-7.62089e+07
-7.73447e+07
-7.84501e+07
-7.96058e+07
-8.08721e+07
-8.23807e+07
-8.42234e+07
-8.65493e+07
-8.94982e+07
-9.32141e+07
-9.78462e+07
-1.03394e+08
-1.09913e+08
-1.17199e+08
-1.2503e+08
-1.32974e+08
-1.40312e+08
-1.46218e+08
-1.49775e+08
-1.03812e+08
-1.01979e+08
-9.91723e+07
-9.56802e+07
-9.21777e+07
-8.88825e+07
-8.59187e+07
-8.33313e+07
-8.1056e+07
-7.88985e+07
-7.66352e+07
-7.40203e+07
-7.07918e+07
-6.67098e+07
-6.15611e+07
-5.51816e+07
-4.74254e+07
-3.82086e+07
-2.75155e+07
-1.53684e+07
-1.84226e+06
1.29315e+07
2.87727e+07
4.54511e+07
6.26917e+07
8.01812e+07
9.75746e+07
1.14506e+08