/*--------------------------------*- C++ -*----------------------------------*\
| =========                 |                                                 |
| \\      /  F ield         | OpenFOAM: The Open Source CFD Toolbox           |
|  \\    /   O peration     | Version:  2406                                  |
|   \\  /    A nd           | Website:  www.openfoam.com                      |
|    \\/     M anipulation  |                                                 |
\*---------------------------------------------------------------------------*/
FoamFile
{
    version     2.0;
    format      ascii;
    arch        "LSB;label=32;scalar=64";
    class       surfaceScalarField;
    location    "10";
    object      phi;
}
// * * * * * * * * * * * * * * * * * * * * * * * * * * * * * * * * * * * * * //

dimensions      [0 3 -1 0 0 0 0];

oriented        oriented;

internalField   nonuniform List<scalar> 
19800
(
4.12206e-09
-5.79207e-09
6.40866e-09
-8.4128e-09
6.68761e-09
-7.80216e-09
5.88418e-09
-7.12031e-09
3.93571e-09
-6.72531e-09
1.24152e-09
-6.56443e-09
-1.70091e-09
-6.43858e-09
-4.64028e-09
-6.64615e-09
-7.85455e-09
-7.20052e-09
-1.09465e-08
-7.56915e-09
-1.38374e-08
-8.0162e-09
-1.64746e-08
-8.58894e-09
-1.88634e-08
-9.16375e-09
-2.09634e-08
-9.79069e-09
-2.2864e-08
-1.04854e-08
-2.44306e-08
-1.11777e-08
-2.57474e-08
-1.18374e-08
-2.67746e-08
-1.24895e-08
-2.76054e-08
-1.315e-08
-2.82236e-08
-1.37426e-08
-2.84958e-08
-1.42541e-08
-2.86065e-08
-1.47382e-08
-2.8641e-08
-1.51571e-08
-2.84795e-08
-1.54736e-08
-2.82312e-08
-1.5722e-08
-2.80612e-08
-1.58934e-08
-2.7936e-08
-1.59462e-08
-2.78657e-08
-1.59035e-08
-2.79935e-08
-1.58102e-08
-2.83532e-08
-1.56546e-08
-2.88304e-08
-1.54025e-08
-2.93808e-08
-1.50563e-08
-3.00835e-08
-1.46453e-08
-3.09821e-08
-1.41956e-08
-3.20106e-08
-1.37286e-08
-3.30842e-08
-1.32578e-08
-3.41752e-08
-1.2776e-08
-3.52858e-08
-1.22712e-08
-3.63974e-08
-1.17615e-08
-3.74613e-08
-1.12971e-08
-3.84083e-08
-1.09144e-08
-3.91515e-08
-1.05998e-08
-3.96008e-08
-1.03144e-08
-3.96967e-08
-1.00518e-08
-3.94289e-08
-9.85992e-09
-3.88033e-08
-9.80213e-09
-3.77847e-08
-9.90006e-09
-3.62736e-08
-1.01151e-08
-3.41478e-08
-1.0381e-08
-3.1334e-08
-1.06528e-08
-2.785e-08
-1.09301e-08
-2.37816e-08
-1.12398e-08
-1.922e-08
-1.15996e-08
-1.42116e-08
-1.19962e-08
-8.75827e-09
-1.23912e-08
-2.85908e-09
-1.27438e-08
3.44453e-09
-1.30298e-08
1.00534e-08
-1.3245e-08
1.68321e-08
-1.33963e-08
2.36483e-08
-1.34879e-08
3.04034e-08
-1.3511e-08
3.70338e-08
-1.3443e-08
4.34866e-08
-1.32566e-08
4.96856e-08
-1.29349e-08
5.55163e-08
-1.24823e-08
6.08406e-08
-1.19232e-08
6.55322e-08
-1.12886e-08
6.95057e-08
-1.06001e-08
7.27188e-08
-9.86352e-09
7.51497e-08
-9.07777e-09
7.67708e-08
-8.25174e-09
7.75444e-08
-7.41376e-09
7.74436e-08
-6.60363e-09
7.64761e-08
-5.85429e-09
7.46861e-08
-5.18172e-09
7.21318e-08
-4.59327e-09
6.88669e-08
-4.10299e-09
6.49449e-08
-3.73323e-09
6.04385e-08
-3.49898e-09
5.54442e-08
-3.39599e-09
5.00596e-08
-3.41016e-09
4.43636e-08
-3.53623e-09
3.84252e-08
-3.77893e-09
3.23271e-08
-4.13506e-09
2.61678e-08
-4.58593e-09
2.00373e-08
-5.11416e-09
1.40098e-08
-5.71815e-09
8.16438e-09
-6.39854e-09
2.59246e-09
-7.13688e-09
-2.62502e-09
-7.90385e-09
-7.41689e-09
-8.68831e-09
-1.16903e-08
-9.50051e-09
-1.53307e-08
-1.03437e-08
-1.82043e-08
-1.12111e-08
-2.01064e-08
-1.21118e-08
-2.07269e-08
-1.30567e-08
-1.95866e-08
-1.4098e-08
-1.59593e-08
-1.53491e-08
-9.28923e-09
-1.59672e-08
-1.08367e-08
6.3603e-09
-1.13441e-08
1.02182e-08
-1.6775e-08
1.05637e-08
-1.60543e-08
9.28386e-09
-1.4811e-08
6.27153e-09
-1.43994e-08
2.32234e-09
-1.42336e-08
-2.32189e-09
-1.43176e-08
-7.01931e-09
-1.45354e-08
-1.14924e-08
-1.50368e-08
-1.61134e-08
-1.59428e-08
-2.04838e-08
-1.69095e-08
-2.43551e-08
-1.79267e-08
-2.79283e-08
-1.90329e-08
-3.11066e-08
-2.02148e-08
-3.39184e-08
-2.14558e-08
-3.62281e-08
-2.26617e-08
-3.81849e-08
-2.38702e-08
-3.97452e-08
-2.50656e-08
-4.09346e-08
-2.61892e-08
-4.1787e-08
-2.72598e-08
-4.21953e-08
-2.82449e-08
-4.23098e-08
-2.91071e-08
-4.22599e-08
-2.98655e-08
-4.19736e-08
-3.05114e-08
-4.15527e-08
-3.10118e-08
-4.11918e-08
-3.13509e-08
-4.09257e-08
-3.15215e-08
-4.08005e-08
-3.15335e-08
-4.09557e-08
-3.14164e-08
-4.14077e-08
-3.11724e-08
-4.20254e-08
-3.07547e-08
-4.27676e-08
-3.01382e-08
-4.37452e-08
-2.93828e-08
-4.50221e-08
-2.85843e-08
-4.65005e-08
-2.7774e-08
-4.80373e-08
-2.69029e-08
-4.95863e-08
-2.59304e-08
-5.11833e-08
-2.49e-08
-5.28357e-08
-2.39109e-08
-5.44569e-08
-2.30233e-08
-5.58889e-08
-2.22136e-08
-5.69722e-08
-2.14274e-08
-5.76061e-08
-2.06641e-08
-5.77636e-08
-2.00006e-08
-5.74543e-08
-1.95343e-08
-5.66526e-08
-1.93071e-08
-5.52489e-08
-1.92793e-08
-5.30669e-08
-1.9371e-08
-4.9944e-08
-1.95259e-08
-4.58146e-08
-1.97413e-08
-4.07319e-08
-2.00464e-08
-3.48154e-08
-2.04582e-08
-2.81699e-08
-2.09555e-08
-2.08394e-08
-2.14875e-08
-1.28233e-08
-2.20008e-08
-4.13534e-09
-2.24616e-08
5.14438e-09
-2.28584e-08
1.48596e-08
-2.3191e-08
2.48145e-08
-2.34551e-08
3.48286e-08
-2.36311e-08
4.47732e-08
-2.36841e-08
5.45626e-08
-2.35734e-08
6.41108e-08
-2.32683e-08
7.32856e-08
-2.27619e-08
8.18983e-08
-2.20739e-08
8.97385e-08
-2.12406e-08
9.66299e-08
-2.02962e-08
1.02464e-07
-1.92583e-08
1.0719e-07
-1.81294e-08
1.10769e-07
-1.69157e-08
1.13142e-07
-1.56467e-08
1.14242e-07
-1.43777e-08
1.14036e-07
-1.31693e-08
1.1255e-07
-1.20653e-08
1.09857e-07
-1.10883e-08
1.06034e-07
-1.02583e-08
1.01152e-07
-9.6067e-09
9.52929e-08
-9.16595e-09
8.85826e-08
-8.94798e-09
8.11708e-08
-8.94129e-09
7.31915e-08
-9.13246e-09
6.47489e-08
-9.52049e-09
5.59504e-08
-1.01014e-08
4.69324e-08
-1.08492e-08
3.78377e-08
-1.17288e-08
2.87821e-08
-1.2723e-08
1.98719e-08
-1.38279e-08
1.12439e-08
-1.5028e-08
3.04329e-09
-1.63031e-08
-4.63195e-09
-1.76447e-08
-1.17024e-08
-1.9036e-08
-1.8027e-08
-2.04398e-08
-2.34296e-08
-2.18298e-08
-2.77264e-08
-2.31877e-08
-3.0593e-08
-2.44864e-08
-3.15386e-08
-2.57387e-08
-2.98505e-08
-2.71004e-08
-2.42959e-08
-2.88909e-08
-1.39585e-08
-2.97714e-08
-2.02136e-08
6.40008e-09
-1.65249e-08
1.06818e-08
-2.43276e-08
1.1216e-08
-2.3751e-08
9.57643e-09
-2.25225e-08
6.60078e-09
-2.21484e-08
2.52569e-09
-2.239e-08
-2.13993e-09
-2.29124e-08
-6.9783e-09
-2.36857e-08
-1.17337e-08
-2.44158e-08
-1.6306e-08
-2.54968e-08
-2.06316e-08
-2.67475e-08
-2.44883e-08
-2.80844e-08
-2.80457e-08
-2.95649e-08
-3.12185e-08
-3.10882e-08
-3.39478e-08
-3.26679e-08
-3.62211e-08
-3.42481e-08
-3.81364e-08
-3.57763e-08
-3.96162e-08
-3.72976e-08
-4.07542e-08
-3.88002e-08
-4.1521e-08
-4.02186e-08
-4.18057e-08
-4.1486e-08
-4.18217e-08
-4.26237e-08
-4.16707e-08
-4.37008e-08
-4.12471e-08
-4.46639e-08
-4.06705e-08
-4.53858e-08
-4.01538e-08
-4.58571e-08
-3.97465e-08
-4.61756e-08
-3.95059e-08
-4.63756e-08
-3.95439e-08
-4.63714e-08
-3.98289e-08
-4.60758e-08
-4.02428e-08
-4.55064e-08
-4.08199e-08
-4.47551e-08
-4.17078e-08
-4.38892e-08
-4.29148e-08
-4.29049e-08
-4.42699e-08
-4.17658e-08
-4.56407e-08
-4.04697e-08
-4.70654e-08
-3.90721e-08
-4.86367e-08
-3.76493e-08
-5.03264e-08
-3.6245e-08
-5.19676e-08
-3.48543e-08
-5.33718e-08
-3.34572e-08
-5.44298e-08
-3.20676e-08
-5.51147e-08
-3.07526e-08
-5.54236e-08
-2.96032e-08
-5.53207e-08
-2.8679e-08
-5.47129e-08
-2.79768e-08
-5.3458e-08
-2.74493e-08
-5.14025e-08
-2.70521e-08
-4.8431e-08
-2.67755e-08
-4.45048e-08
-2.66371e-08
-3.96653e-08
-2.66511e-08
-3.3998e-08
-2.68051e-08
-2.75817e-08
-2.70613e-08
-2.04572e-08
-2.73739e-08
-1.2639e-08
-2.77081e-08
-4.15786e-09
-2.80464e-08
4.89906e-09
-2.83817e-08
1.43827e-08
-2.87031e-08
2.41143e-08
-2.89854e-08
3.39325e-08
-2.91888e-08
4.3719e-08
-2.92664e-08
5.33849e-08
-2.91775e-08
6.28275e-08
-2.88993e-08
7.18938e-08
-2.84337e-08
8.03816e-08
-2.78042e-08
8.80837e-08
-2.70435e-08
9.48418e-08
-2.61758e-08
1.00567e-07
-2.52079e-08
1.05211e-07
-2.41385e-08
1.0872e-07
-2.29807e-08
1.11014e-07
-2.17801e-08
1.12019e-07
-2.06045e-08
1.11714e-07
-1.95175e-08
1.10144e-07
-1.85592e-08
1.07385e-07
-1.77537e-08
1.03503e-07
-1.713e-08
9.85635e-08
-1.67269e-08
9.26628e-08
-1.65738e-08
8.5944e-08
-1.66731e-08
7.85576e-08
-1.7011e-08
7.06233e-08
-1.75798e-08
6.2243e-08
-1.8378e-08
5.35383e-08
-1.93873e-08
4.46503e-08
-2.05659e-08
3.57032e-08
-2.18765e-08
2.67961e-08
-2.33017e-08
1.80397e-08
-2.4818e-08
9.57271e-09
-2.63798e-08
1.52799e-09
-2.79557e-08
-5.99342e-09
-2.95452e-08
-1.28992e-08
-3.11257e-08
-1.90636e-08
-3.26389e-08
-2.43222e-08
-3.40461e-08
-2.84751e-08
-3.53106e-08
-3.11913e-08
-3.6392e-08
-3.19812e-08
-3.73651e-08
-3.01803e-08
-3.85001e-08
-2.45604e-08
-4.03303e-08
-1.4045e-08
-4.11657e-08
-2.78836e-08
6.13934e-09
-2.17152e-08
1.02972e-08
-3.20705e-08
1.10531e-08
-3.15261e-08
9.2996e-09
-3.05059e-08
6.17342e-09
-3.04672e-08
2.07783e-09
-3.10718e-08
-2.64271e-09
-3.1971e-08
-7.21712e-09
-3.30508e-08
-1.2137e-08
-3.43967e-08
-1.66793e-08
-3.57534e-08
-2.09069e-08
-3.71854e-08
-2.47441e-08
-3.86884e-08
-2.81918e-08
-4.03707e-08
-3.12842e-08
-4.21337e-08
-3.39012e-08
-4.38293e-08
-3.60337e-08
-4.55063e-08
-3.78669e-08
-4.72806e-08
-3.92651e-08
-4.90832e-08
-4.0277e-08
-5.07368e-08
-4.08703e-08
-5.22593e-08
-4.10106e-08
-5.37729e-08
-4.09549e-08
-5.52625e-08
-4.06887e-08
-5.65922e-08
-4.00352e-08
-5.76792e-08
-3.9224e-08
-5.85704e-08
-3.8567e-08
-5.934e-08
-3.80483e-08
-5.99591e-08
-3.76077e-08
-6.03179e-08
-3.73547e-08
-6.03513e-08
-3.7357e-08
-6.00907e-08
-3.75639e-08
-5.95999e-08
-3.79838e-08
-5.88984e-08
-3.86961e-08
-5.79602e-08
-3.96799e-08
-5.677e-08
-4.08018e-08
-5.53599e-08
-4.19903e-08
-5.37882e-08
-4.33079e-08
-5.20989e-08
-4.48157e-08
-5.03081e-08
-4.64384e-08
-4.84192e-08
-4.7997e-08
-4.64459e-08
-4.93421e-08
-4.44261e-08
-5.04214e-08
-4.24215e-08
-5.1233e-08
-4.05026e-08
-5.17438e-08
-3.87245e-08
-5.18601e-08
-3.71123e-08
-5.14522e-08
-3.56659e-08
-5.03896e-08
-3.43791e-08
-4.85588e-08
-3.32536e-08
-4.58732e-08
-3.23001e-08
-4.22896e-08
-3.15287e-08
-3.78205e-08
-3.09378e-08
-3.25236e-08
-3.05122e-08
-2.64687e-08
-3.02287e-08
-1.97068e-08
-3.0066e-08
-1.22683e-08
-3.00104e-08
-4.19126e-09
-3.00524e-08
4.4463e-09
-3.01778e-08
1.35163e-08
-3.03608e-08
2.28624e-08
-3.05632e-08
3.2337e-08
-3.07407e-08
4.18215e-08
-3.08503e-08
5.12149e-08
-3.0858e-08
6.03964e-08
-3.07458e-08
6.91984e-08
-3.05156e-08
7.74173e-08
-3.01859e-08
8.48605e-08
-2.9778e-08
9.13918e-08
-2.93003e-08
9.6935e-08
-2.8746e-08
1.01434e-07
-2.8109e-08
1.04811e-07
-2.74084e-08
1.06967e-07
-2.66972e-08
1.07832e-07
-2.60426e-08
1.07407e-07
-2.54968e-08
1.0575e-07
-2.50878e-08
1.0293e-07
-2.48368e-08
9.9004e-08
-2.47763e-08
9.40402e-08
-2.4943e-08
8.81559e-08
-2.53548e-08
8.1504e-08
-2.60047e-08
7.42249e-08
-2.68806e-08
6.64279e-08
-2.79795e-08
5.82243e-08
-2.92923e-08
4.97506e-08
-3.07844e-08
4.1139e-08
-3.24076e-08
3.24897e-08
-3.4128e-08
2.39016e-08
-3.59227e-08
1.54992e-08
-3.77525e-08
7.40167e-09
-3.95605e-08
-2.92217e-10
-4.12996e-08
-7.46591e-09
-4.29377e-08
-1.39986e-08
-4.44288e-08
-1.97897e-08
-4.57099e-08
-2.46792e-08
-4.67271e-08
-2.84453e-08
-4.74314e-08
-3.07954e-08
-4.78114e-08
-3.12255e-08
-4.80207e-08
-2.91715e-08
-4.85241e-08
-2.35901e-08
-5.00771e-08
-1.34211e-08
-5.06994e-08
-3.42635e-08
5.68526e-09
-2.67234e-08
9.68028e-09
-3.92566e-08
1.04215e-08
-3.89945e-08
8.64331e-09
-3.82993e-08
5.37273e-09
-3.8785e-08
1.17217e-09
-3.99478e-08
-3.62699e-09
-4.13976e-08
-8.38772e-09
-4.27796e-08
-1.32319e-08
-4.44341e-08
-1.77875e-08
-4.5995e-08
-2.20128e-08
-4.76269e-08
-2.59559e-08
-4.93886e-08
-2.94241e-08
-5.11128e-08
-3.24043e-08
-5.27918e-08
-3.49616e-08
-5.45757e-08
-3.71432e-08
-5.64306e-08
-3.89672e-08
-5.82423e-08
-4.02004e-08
-5.99939e-08
-4.10677e-08
-6.17364e-08
-4.16328e-08
-6.34947e-08
-4.17333e-08
-6.52073e-08
-4.15138e-08
-6.68004e-08
-4.10102e-08
-6.82553e-08
-4.01647e-08
-6.95851e-08
-3.92299e-08
-7.07898e-08
-3.84213e-08
-7.18299e-08
-3.7647e-08
-7.26349e-08
-3.68861e-08
-7.3151e-08
-3.63384e-08
-7.33731e-08
-3.61041e-08
-7.33152e-08
-3.60908e-08
-7.29653e-08
-3.62594e-08
-7.22939e-08
-3.66977e-08
-7.12966e-08
-3.74337e-08
-7.00078e-08
-3.83649e-08
-6.8472e-08
-3.94087e-08
-6.67129e-08
-4.05969e-08
-6.47316e-08
-4.19756e-08
-6.25302e-08
-4.34813e-08
-6.01352e-08
-4.4965e-08
-5.76007e-08
-4.63047e-08
-5.49911e-08
-4.74554e-08
-5.23608e-08
-4.83964e-08
-4.97498e-08
-4.90639e-08
-4.71917e-08
-4.93433e-08
-4.47228e-08
-4.91045e-08
-4.23811e-08
-4.82298e-08
-4.0198e-08
-4.66153e-08
-3.81933e-08
-4.41723e-08
-3.63772e-08
-4.08444e-08
-3.47557e-08
-3.66295e-08
-3.33338e-08
-3.15782e-08
-3.21175e-08
-2.57626e-08
-3.1113e-08
-1.92412e-08
-3.03241e-08
-1.20478e-08
-2.97478e-08
-4.21374e-09
-2.93703e-08
4.19729e-09
-2.91667e-08
1.30722e-08
-2.91051e-08
2.22638e-08
-2.91516e-08
3.16246e-08
-2.92723e-08
4.10291e-08
-2.94331e-08
5.03622e-08
-2.96029e-08
5.94866e-08
-2.97607e-08
6.82221e-08
-2.99017e-08
7.63654e-08
-3.00347e-08
8.37379e-08
-3.01662e-08
9.02191e-08
-3.02877e-08
9.57332e-08
-3.03792e-08
1.00203e-07
-3.0431e-08
1.03521e-07
-3.0465e-08
1.05578e-07
-3.05329e-08
1.06318e-07
-3.06888e-08
1.0576e-07
-3.09649e-08
1.0397e-07
-3.13739e-08
1.01007e-07
-3.19319e-08
9.6923e-08
-3.26686e-08
9.18027e-08
-3.36101e-08
8.57839e-08
-3.4759e-08
7.90236e-08
-3.61024e-08
7.16532e-08
-3.7634e-08
6.37859e-08
-3.93532e-08
5.55537e-08
-4.12403e-08
4.71033e-08
-4.32494e-08
3.85521e-08
-4.53326e-08
2.99882e-08
-4.74521e-08
2.15234e-08
-4.95616e-08
1.32973e-08
-5.16018e-08
5.41762e-09
-5.35195e-08
-2.03254e-09
-5.52591e-08
-8.92591e-09
-5.67477e-08
-1.5129e-08
-5.79211e-08
-2.05531e-08
-5.87225e-08
-2.50384e-08
-5.90868e-08
-2.8369e-08
-5.89875e-08
-3.02964e-08
-5.84621e-08
-3.03364e-08
-5.77277e-08
-2.7972e-08
-5.7426e-08
-2.23802e-08
-5.85535e-08
-1.2626e-08
-5.88938e-08
-3.97166e-08
5.30266e-09
-3.15505e-08
8.57949e-09
-4.644e-08
9.19494e-09
-4.62169e-08
7.38812e-09
-4.57893e-08
4.01139e-09
-4.67591e-08
-3.02316e-10
-4.84389e-08
-4.97481e-09
-5.03538e-08
-1.00096e-08
-5.23056e-08
-1.4732e-08
-5.41391e-08
-1.93443e-08
-5.59697e-08
-2.36778e-08
-5.7737e-08
-2.75701e-08
-5.94687e-08
-3.09846e-08
-6.122e-08
-3.40487e-08
-6.29547e-08
-3.66596e-08
-6.46897e-08
-3.87924e-08
-6.6434e-08
-4.05512e-08
-6.82089e-08
-4.17656e-08
-7.00069e-08
-4.26364e-08
-7.18031e-08
-4.31497e-08
-7.3593e-08
-4.313e-08
-7.53611e-08
-4.27694e-08
-7.7089e-08
-4.21373e-08
-7.87516e-08
-4.11655e-08
-8.03112e-08
-4.00644e-08
-8.17369e-08
-3.9018e-08
-8.29948e-08
-3.79543e-08
-8.40358e-08
-3.69014e-08
-8.4813e-08
-3.60755e-08
-8.52892e-08
-3.55495e-08
-8.5428e-08
-3.52124e-08
-8.5198e-08
-3.50502e-08
-8.45925e-08
-3.51913e-08
-8.3632e-08
-3.56758e-08
-8.23401e-08
-3.63808e-08
-8.07211e-08
-3.71984e-08
-7.87634e-08
-3.81593e-08
-7.64653e-08
-3.93354e-08
-7.38584e-08
-4.06944e-08
-7.10028e-08
-4.21e-08
-6.7961e-08
-4.34197e-08
-6.47756e-08
-4.459e-08
-6.14727e-08
-4.55813e-08
-5.80837e-08
-4.63334e-08
-5.46622e-08
-4.67369e-08
-5.12779e-08
-4.66591e-08
-4.79961e-08
-4.59717e-08
-4.48598e-08
-4.45597e-08
-4.18901e-08
-4.23274e-08
-3.90985e-08
-3.92172e-08
-3.65028e-08
-3.52285e-08
-3.41337e-08
-3.04134e-08
-3.20304e-08
-2.48425e-08
-3.02282e-08
-1.85675e-08
-2.87449e-08
-1.16106e-08
-2.7576e-08
-3.99089e-09
-2.66992e-08
4.2362e-09
-2.60873e-08
1.29604e-08
-2.57172e-08
2.20344e-08
-2.55709e-08
3.13105e-08
-2.56285e-08
4.066e-08
-2.58619e-08
4.9959e-08
-2.62375e-08
5.90555e-08
-2.67276e-08
6.77585e-08
-2.73189e-08
7.58669e-08
-2.8008e-08
8.32158e-08
-2.87861e-08
8.9695e-08
-2.96285e-08
9.52187e-08
-3.05047e-08
9.96803e-08
-3.14022e-08
1.02947e-07
-3.23416e-08
1.04908e-07
-3.33636e-08
1.05525e-07
-3.45011e-08
1.04836e-07
-3.57623e-08
1.02903e-07
-3.71449e-08
9.97733e-08
-3.86585e-08
9.55036e-08
-4.03232e-08
9.01981e-08
-4.21478e-08
8.40091e-08
-4.41198e-08
7.70888e-08
-4.62241e-08
6.95643e-08
-4.84598e-08
6.15658e-08
-5.08244e-08
5.32485e-08
-5.32879e-08
4.47614e-08
-5.58021e-08
3.62127e-08
-5.83261e-08
2.76977e-08
-6.0816e-08
1.93394e-08
-6.31968e-08
1.12719e-08
-6.53848e-08
3.60619e-09
-6.73215e-08
-3.55785e-09
-6.89403e-08
-1.01017e-08
-7.01454e-08
-1.59035e-08
-7.0867e-08
-2.0867e-08
-7.10538e-08
-2.48652e-08
-7.06419e-08
-2.77052e-08
-6.96394e-08
-2.91678e-08
-6.81182e-08
-2.88351e-08
-6.63739e-08
-2.62346e-08
-6.52085e-08
-2.07502e-08
-6.58234e-08
-1.15729e-08
-6.58312e-08
-4.43221e-08
4.74526e-09
-3.59e-08
7.2202e-09
-5.3035e-08
7.39605e-09
-5.28586e-08
5.5451e-09
-5.26073e-08
2.1034e-09
-5.41601e-08
-2.2382e-09
-5.63691e-08
-6.91962e-09
-5.85851e-08
-1.18316e-08
-6.09365e-08
-1.65601e-08
-6.30039e-08
-2.11131e-08
-6.49645e-08
-2.54112e-08
-6.68703e-08
-2.93153e-08
-6.86355e-08
-3.2709e-08
-7.02909e-08
-3.57756e-08
-7.19164e-08
-3.83958e-08
-7.35786e-08
-4.05537e-08
-7.52569e-08
-4.23298e-08
-7.69418e-08
-4.35421e-08
-7.86469e-08
-4.44056e-08
-8.03961e-08
-4.48923e-08
-8.22062e-08
-4.48279e-08
-8.4049e-08
-4.44005e-08
-8.58874e-08
-4.36664e-08
-8.7686e-08
-4.2558e-08
-8.94119e-08
-4.12819e-08
-9.10497e-08
-4.00147e-08
-9.25672e-08
-3.86895e-08
-9.38865e-08
-3.73395e-08
-9.49216e-08
-3.61769e-08
-9.56178e-08
-3.52801e-08
-9.59432e-08
-3.45664e-08
-9.58751e-08
-3.40506e-08
-9.54049e-08
-3.38637e-08
-9.45322e-08
-3.40245e-08
-9.32448e-08
-3.43923e-08
-9.15174e-08
-3.48693e-08
-8.9339e-08
-3.55202e-08
-8.67389e-08
-3.64472e-08
-8.37778e-08
-3.76219e-08
-8.05151e-08
-3.88879e-08
-7.69843e-08
-4.00942e-08
-7.31999e-08
-4.11804e-08
-6.9185e-08
-4.2138e-08
-6.49954e-08
-4.29244e-08
-6.07167e-08
-4.34281e-08
-5.64406e-08
-4.34965e-08
-5.22374e-08
-4.29783e-08
-4.81463e-08
-4.17478e-08
-4.41882e-08
-3.97136e-08
-4.03874e-08
-3.68311e-08
-3.67893e-08
-3.31089e-08
-3.34601e-08
-2.85956e-08
-3.04704e-08
-2.33458e-08
-2.78718e-08
-1.73888e-08
-2.56837e-08
-1.07291e-08
-2.38961e-08
-3.37925e-09
-2.24864e-08
4.60181e-09
-2.14374e-08
1.30989e-08
-2.07441e-08
2.19659e-08
-2.04065e-08
3.1062e-08
-2.04148e-08
4.02634e-08
-2.07416e-08
4.94411e-08
-2.13486e-08
5.84306e-08
-2.22012e-08
6.70324e-08
-2.32781e-08
7.50501e-08
-2.45644e-08
8.23323e-08
-2.60365e-08
8.87729e-08
-2.76558e-08
9.4269e-08
-2.9384e-08
9.86842e-08
-3.12053e-08
1.01867e-07
-3.31335e-08
1.03714e-07
-3.51915e-08
1.04209e-07
-3.7386e-08
1.03398e-07
-3.97017e-08
1.01333e-07
-4.21227e-08
9.80546e-08
-4.46491e-08
9.3628e-08
-4.72855e-08
8.81764e-08
-5.00211e-08
8.18554e-08
-5.28323e-08
7.48059e-08
-5.57064e-08
6.71573e-08
-5.86453e-08
5.90641e-08
-6.16395e-08
5.06988e-08
-6.46508e-08
4.22049e-08
-6.76329e-08
3.36952e-08
-7.05467e-08
2.5293e-08
-7.33367e-08
1.71295e-08
-7.5912e-08
9.31616e-09
-7.81732e-08
1.97158e-09
-8.00402e-08
-4.77521e-09
-8.14322e-08
-1.08316e-08
-8.22593e-08
-1.60966e-08
-8.24561e-08
-2.04626e-08
-8.19808e-08
-2.38699e-08
-8.08041e-08
-2.61412e-08
-7.89429e-08
-2.71097e-08
-7.65029e-08
-2.64512e-08
-7.38367e-08
-2.37329e-08
-7.18386e-08
-1.85632e-08
-7.18907e-08
-1.02313e-08
-7.15113e-08
-4.80565e-08
3.90255e-09
-3.96134e-08
5.59856e-09
-5.88209e-08
5.12839e-09
-5.88628e-08
3.02089e-09
-5.86172e-08
-3.60138e-10
-6.04494e-08
-4.47923e-09
-6.31397e-08
-9.27125e-09
-6.59375e-08
-1.38915e-08
-6.84016e-08
-1.85328e-08
-7.07223e-08
-2.30293e-08
-7.2844e-08
-2.71865e-08
-7.47217e-08
-3.09871e-08
-7.64024e-08
-3.43528e-08
-7.79926e-08
-3.74513e-08
-7.95467e-08
-4.00852e-08
-8.10796e-08
-4.22513e-08
-8.25824e-08
-4.4048e-08
-8.41035e-08
-4.53014e-08
-8.57035e-08
-4.62214e-08
-8.74115e-08
-4.67394e-08
-8.9211e-08
-4.66706e-08
-9.10567e-08
-4.62021e-08
-9.29286e-08
-4.53924e-08
-9.48192e-08
-4.41905e-08
-9.6711e-08
-4.27888e-08
-9.85734e-08
-4.13233e-08
-1.00333e-07
-3.97173e-08
-1.01878e-07
-3.80284e-08
-1.03122e-07
-3.64913e-08
-1.04027e-07
-3.51998e-08
-1.04565e-07
-3.40874e-08
-1.04696e-07
-3.31741e-08
-1.04378e-07
-3.25761e-08
-1.03572e-07
-3.22988e-08
-1.02248e-07
-3.2217e-08
-1.00385e-07
-3.22733e-08
-9.80004e-08
-3.25642e-08
-9.51424e-08
-3.31912e-08
-9.18686e-08
-3.41006e-08
-8.82128e-08
-3.51162e-08
-8.41833e-08
-3.60952e-08
-7.97906e-08
-3.70079e-08
-7.50789e-08
-3.78757e-08
-7.01344e-08
-3.86626e-08
-6.50643e-08
-3.92375e-08
-5.99639e-08
-3.94178e-08
-5.48956e-08
-3.90334e-08
-4.98926e-08
-3.79612e-08
-4.49838e-08
-3.61297e-08
-4.02187e-08
-3.35144e-08
-3.56775e-08
-3.01282e-08
-3.14584e-08
-2.60023e-08
-2.76502e-08
-2.116e-08
-2.43088e-08
-1.5602e-08
-2.14504e-08
-9.31975e-09
-1.90648e-08
-2.32991e-09
-1.7139e-08
5.29748e-09
-1.56737e-08
1.34426e-08
-1.4684e-08
2.19678e-08
-1.41841e-08
3.07481e-08
-1.41695e-08
3.96701e-08
-1.46104e-08
4.8602e-08
-1.54631e-08
5.73683e-08
-1.66879e-08
6.57639e-08
-1.82574e-08
7.36e-08
-2.01472e-08
8.07369e-08
-2.2321e-08
8.70677e-08
-2.47289e-08
9.24685e-08
-2.73255e-08
9.67768e-08
-3.00901e-08
9.98326e-08
-3.30248e-08
1.01546e-07
-3.61306e-08
1.0192e-07
-3.9387e-08
1.01002e-07
-4.27579e-08
9.88303e-08
-4.62148e-08
9.54421e-08
-4.97448e-08
9.09156e-08
-5.3333e-08
8.53849e-08
-5.6949e-08
7.89971e-08
-6.05626e-08
7.18809e-08
-6.41646e-08
6.41764e-08
-6.77553e-08
5.60634e-08
-7.13161e-08
4.77237e-08
-7.48083e-08
3.9296e-08
-7.81921e-08
3.09089e-08
-8.14218e-08
2.27196e-08
-8.44239e-08
1.48677e-08
-8.71051e-08
7.44737e-09
-8.93663e-08
5.77537e-10
-9.11006e-08
-5.60486e-09
-9.2212e-08
-1.10331e-08
-9.26312e-08
-1.56298e-08
-9.22956e-08
-1.93033e-08
-9.11686e-08
-2.20336e-08
-8.92611e-08
-2.36783e-08
-8.66066e-08
-2.41315e-08
-8.33274e-08
-2.31569e-08
-7.98115e-08
-2.04101e-08
-7.70661e-08
-1.57684e-08
-7.65944e-08
-8.5808e-09
-7.58218e-08
-5.08468e-08
2.65881e-09
-4.25856e-08
3.53939e-09
-6.34672e-08
2.57233e-09
-6.37701e-08
1.10056e-10
-6.37399e-08
-3.30681e-09
-6.57552e-08
-7.31571e-09
-6.85684e-08
-1.1731e-08
-7.17011e-08
-1.62147e-08
-7.4423e-08
-2.06579e-08
-7.68535e-08
-2.49176e-08
-7.89778e-08
-2.88828e-08
-8.08094e-08
-3.25913e-08
-8.24339e-08
-3.59184e-08
-8.39341e-08
-3.89949e-08
-8.53235e-08
-4.15997e-08
-8.66437e-08
-4.3783e-08
-8.7949e-08
-4.5656e-08
-8.93245e-08
-4.70144e-08
-9.08177e-08
-4.80247e-08
-9.24332e-08
-4.85899e-08
-9.4141e-08
-4.85454e-08
-9.59228e-08
-4.8091e-08
-9.78057e-08
-4.72795e-08
-9.97927e-08
-4.60455e-08
-1.01835e-07
-4.45379e-08
-1.03866e-07
-4.28582e-08
-1.05793e-07
-4.09511e-08
-1.0751e-07
-3.89193e-08
-1.08949e-07
-3.70127e-08
-1.10079e-07
-3.53164e-08
-1.1085e-07
-3.3759e-08
-1.11175e-07
-3.23625e-08
-1.10974e-07
-3.12465e-08
-1.10194e-07
-3.04325e-08
-1.08817e-07
-2.98299e-08
-1.06842e-07
-2.94154e-08
-1.04295e-07
-2.92916e-08
-1.01217e-07
-2.95371e-08
-9.76477e-08
-3.00739e-08
-9.36021e-08
-3.07285e-08
-8.90865e-08
-3.1391e-08
-8.4127e-08
-3.20723e-08
-7.87923e-08
-3.2814e-08
-7.31876e-08
-3.35687e-08
-6.74241e-08
-3.41738e-08
-6.15891e-08
-3.44192e-08
-5.57365e-08
-3.41299e-08
-4.99034e-08
-3.32026e-08
-4.41383e-08
-3.15953e-08
-3.8521e-08
-2.93003e-08
-3.31607e-08
-2.63216e-08
-2.81739e-08
-2.26588e-08
-2.36552e-08
-1.82971e-08
-1.96588e-08
-1.32117e-08
-1.62003e-08
-7.39004e-09
-1.32768e-08
-8.61252e-10
-1.08912e-08
6.29181e-09
-9.06458e-09
1.39501e-08
-7.82975e-09
2.19935e-08
-7.21054e-09
3.03199e-08
-7.20301e-09
3.88296e-08
-7.77328e-09
4.73882e-08
-8.87349e-09
5.58102e-08
-1.04616e-08
6.3888e-08
-1.25069e-08
7.14428e-08
-1.49778e-08
7.83459e-08
-1.78268e-08
8.44855e-08
-2.0994e-08
8.97159e-08
-2.44276e-08
9.38543e-08
-2.80997e-08
9.67415e-08
-3.1998e-08
9.83063e-08
-3.60997e-08
9.85644e-08
-4.03589e-08
9.75575e-08
-4.47222e-08
9.53125e-08
-4.91497e-08
9.18665e-08
-5.36143e-08
8.73107e-08
-5.80814e-08
8.17789e-08
-6.25058e-08
7.54001e-08
-6.68543e-08
6.82949e-08
-7.11176e-08
6.06194e-08
-7.52863e-08
5.25725e-08
-7.93291e-08
4.43386e-08
-8.32086e-08
3.60643e-08
-8.68933e-08
2.79038e-08
-9.03289e-08
2.00346e-08
-9.34263e-08
1.26027e-08
-9.60979e-08
5.71019e-09
-9.82593e-08
-5.34539e-10
-9.97967e-08
-6.02319e-09
-1.00613e-07
-1.06978e-08
-1.00658e-07
-1.45077e-08
-9.98686e-08
-1.74116e-08
-9.82203e-08
-1.94035e-08
-9.57172e-08
-2.03762e-08
-9.23768e-08
-2.02898e-08
-8.83491e-08
-1.9041e-08
-8.4073e-08
-1.63548e-08
-8.06578e-08
-1.24055e-08
-7.97119e-08
-6.6277e-09
-7.85936e-08
-5.26126e-08
1.09803e-09
-4.51037e-08
1.04096e-09
-6.7065e-08
-4.32209e-10
-6.73266e-08
-3.08233e-09
-6.73771e-08
-6.40404e-09
-6.96894e-08
-1.049e-08
-7.28637e-08
-1.44365e-08
-7.58656e-08
-1.86503e-08
-7.87081e-08
-2.27895e-08
-8.11831e-08
-2.67597e-08
-8.32534e-08
-3.05202e-08
-8.50047e-08
-3.41031e-08
-8.65079e-08
-3.73167e-08
-8.78234e-08
-4.0323e-08
-8.89886e-08
-4.29121e-08
-9.00906e-08
-4.51636e-08
-9.12131e-08
-4.71525e-08
-9.24301e-08
-4.86313e-08
-9.37573e-08
-4.97331e-08
-9.52021e-08
-5.03722e-08
-9.67701e-08
-5.04251e-08
-9.84807e-08
-5.00707e-08
-1.0037e-07
-4.93148e-08
-1.02416e-07
-4.80676e-08
-1.04535e-07
-4.64515e-08
-1.06648e-07
-4.45599e-08
-1.08676e-07
-4.23745e-08
-1.10539e-07
-4.00308e-08
-1.12176e-07
-3.77627e-08
-1.1353e-07
-3.56238e-08
-1.14504e-07
-3.35429e-08
-1.14975e-07
-3.15703e-08
-1.1485e-07
-2.98558e-08
-1.14088e-07
-2.84456e-08
-1.12682e-07
-2.72737e-08
-1.10638e-07
-2.63315e-08
-1.07968e-07
-2.57154e-08
-1.04696e-07
-2.54841e-08
-1.00845e-07
-2.55513e-08
-9.64325e-08
-2.57643e-08
-9.14806e-08
-2.60544e-08
-8.60375e-08
-2.64671e-08
-8.01875e-08
-2.70492e-08
-7.40374e-08
-2.77302e-08
-6.76885e-08
-2.83162e-08
-6.12184e-08
-2.85812e-08
-5.46825e-08
-2.83615e-08
-4.81349e-08
-2.75837e-08
-4.16502e-08
-2.62338e-08
-3.53337e-08
-2.43105e-08
-2.93113e-08
-2.17966e-08
-2.37041e-08
-1.86529e-08
-1.86044e-08
-1.4828e-08
-1.40635e-08
-1.0279e-08
-1.01012e-08
-4.99784e-09
-6.72733e-09
9.70142e-10
-3.96409e-09
7.53188e-09
-1.8521e-09
1.4577e-08
-4.37607e-10
2.20108e-08
2.51324e-10
2.97595e-08
2.2147e-10
3.77369e-08
-4.88952e-10
4.58051e-08
-1.83075e-09
5.37693e-08
-3.76305e-09
6.14229e-08
-6.25422e-09
6.86003e-08
-9.26587e-09
7.51833e-08
-1.27402e-08
8.10527e-08
-1.66082e-08
8.60417e-08
-2.0812e-08
8.99544e-08
-2.53158e-08
9.264e-08
-3.00908e-08
9.40472e-08
-3.50904e-08
9.41989e-08
-4.02468e-08
9.31255e-08
-4.54924e-08
9.08431e-08
-5.07772e-08
8.73946e-08
-5.60599e-08
8.28795e-08
-6.12892e-08
7.74204e-08
-6.64111e-08
7.11259e-08
-7.1393e-08
6.41162e-08
-7.62227e-08
5.65661e-08
-8.08776e-08
4.86808e-08
-8.53141e-08
4.0642e-08
-8.94932e-08
3.26181e-08
-9.33832e-08
2.47959e-08
-9.6923e-08
1.7353e-08
-1.0002e-07
1.04333e-08
-1.02593e-07
4.16703e-09
-1.04573e-07
-1.35339e-09
-1.05862e-07
-6.06875e-09
-1.06373e-07
-9.90871e-09
-1.06058e-07
-1.28642e-08
-1.0486e-07
-1.49228e-08
-1.02757e-07
-1.60854e-08
-9.97485e-08
-1.6321e-08
-9.58661e-08
-1.56713e-08
-9.12681e-08
-1.41997e-08
-8.63979e-08
-1.1686e-08
-8.2443e-08
-8.58174e-09
-8.11112e-08
-4.43565e-09
-7.97352e-08
-5.331e-08
-4.41678e-10
-4.67473e-08
-1.55017e-09
-6.95305e-08
-3.69772e-09
-6.99333e-08
-6.62296e-09
-6.99519e-08
-9.89226e-09
-7.21146e-08
-1.35269e-08
-7.53549e-08
-1.72758e-08
-7.83941e-08
-2.1122e-08
-8.12069e-08
-2.48679e-08
-8.35758e-08
-2.85256e-08
-8.55024e-08
-3.20362e-08
-8.70809e-08
-3.54287e-08
-8.83686e-08
-3.8489e-08
-8.94308e-08
-4.14313e-08
-9.03549e-08
-4.40402e-08
-9.12352e-08
-4.63843e-08
-9.21412e-08
-4.84814e-08
-9.31312e-08
-5.0075e-08
-9.42255e-08
-5.12986e-08
-9.54649e-08
-5.20811e-08
-9.68857e-08
-5.23108e-08
-9.85134e-08
-5.21093e-08
-1.00362e-07
-5.14269e-08
-1.0238e-07
-5.01712e-08
-1.04481e-07
-4.84668e-08
-1.06607e-07
-4.64086e-08
-1.08706e-07
-4.39971e-08
-1.10703e-07
-4.13679e-08
-1.12513e-07
-3.87181e-08
-1.14044e-07
-3.60775e-08
-1.15164e-07
-3.34019e-08
-1.1574e-07
-3.07932e-08
-1.15684e-07
-2.84354e-08
-1.14966e-07
-2.63879e-08
-1.13577e-07
-2.45932e-08
-1.11507e-07
-2.30501e-08
-1.08748e-07
-2.18544e-08
-1.05308e-07
-2.10603e-08
-1.01211e-07
-2.05888e-08
-9.64877e-08
-2.03135e-08
-9.11834e-08
-2.01997e-08
-8.53629e-08
-2.03129e-08
-7.91129e-08
-2.06948e-08
-7.25299e-08
-2.12523e-08
-6.57036e-08
-2.17713e-08
-5.8709e-08
-2.20252e-08
-5.16137e-08
-2.18705e-08
-4.44942e-08
-2.12629e-08
-3.74489e-08
-2.02069e-08
-3.05995e-08
-1.86967e-08
-2.40772e-08
-1.66868e-08
-1.79999e-08
-1.40994e-08
-1.24541e-08
-1.08529e-08
-7.49049e-09
-6.8948e-09
-3.13655e-09
-2.2275e-09
5.81561e-10
3.08736e-09
3.62223e-09
8.95231e-09
5.9285e-09
1.52741e-08
7.44616e-09
2.19908e-08
8.14793e-09
2.90578e-08
8.04559e-09
3.64006e-08
7.18028e-09
4.38752e-08
5.59918e-09
5.12797e-08
3.33942e-09
5.84135e-08
4.33114e-10
6.51278e-08
-3.07399e-09
7.13138e-08
-7.11363e-09
7.68428e-08
-1.16087e-08
8.15292e-08
-1.64961e-08
8.51712e-08
-2.1731e-08
8.76333e-08
-2.72672e-08
8.88823e-08
-3.30362e-08
8.89417e-08
-3.89531e-08
8.78269e-08
-4.49418e-08
8.55468e-08
-5.09449e-08
8.21516e-08
-5.69081e-08
7.77415e-08
-6.27656e-08
7.242e-08
-6.84572e-08
6.62778e-08
-7.39482e-08
5.94436e-08
-7.92163e-08
5.21106e-08
-8.42241e-08
4.44814e-08
-8.8923e-08
3.67333e-08
-9.3275e-08
2.9062e-08
-9.72422e-08
2.16841e-08
-1.00763e-07
1.47669e-08
-1.03761e-07
8.44455e-09
-1.06164e-07
2.87134e-09
-1.07903e-07
-1.86859e-09
-1.08924e-07
-5.75372e-09
-1.09174e-07
-8.71023e-09
-1.08573e-07
-1.0766e-08
-1.07051e-07
-1.19289e-08
-1.04584e-07
-1.22236e-08
-1.01177e-07
-1.16893e-08
-9.68699e-08
-1.04474e-08
-9.18649e-08
-8.7919e-09
-8.6619e-08
-6.57159e-09
-8.23416e-08
-4.45062e-09
-8.07667e-08
-2.09717e-09
-7.92339e-08
-5.29259e-08
-2.0445e-09
-4.74807e-08
-4.35703e-09
-7.05424e-08
-7.05137e-09
-7.08759e-08
-1.00684e-08
-7.09012e-08
-1.34634e-08
-7.30572e-08
-1.65936e-08
-7.59206e-08
-2.00879e-08
-7.89721e-08
-2.34913e-08
-8.16035e-08
-2.68067e-08
-8.37069e-08
-3.0119e-08
-8.53766e-08
-3.33363e-08
-8.66843e-08
-3.6501e-08
-8.76838e-08
-3.9422e-08
-8.84548e-08
-4.23202e-08
-8.91018e-08
-4.49535e-08
-8.9708e-08
-4.7378e-08
-9.03343e-08
-4.95766e-08
-9.10436e-08
-5.13132e-08
-9.18811e-08
-5.27188e-08
-9.29152e-08
-5.37106e-08
-9.41806e-08
-5.41595e-08
-9.56808e-08
-5.41234e-08
-9.74103e-08
-5.35226e-08
-9.93185e-08
-5.22901e-08
-1.01343e-07
-5.05553e-08
-1.03451e-07
-4.83939e-08
-1.05597e-07
-4.57968e-08
-1.07689e-07
-4.2884e-08
-1.09616e-07
-3.98219e-08
-1.11257e-07
-3.66378e-08
-1.12473e-07
-3.33325e-08
-1.13137e-07
-3.00621e-08
-1.1317e-07
-2.7034e-08
-1.12537e-07
-2.43068e-08
-1.11206e-07
-2.18257e-08
-1.09143e-07
-1.96025e-08
-1.06324e-07
-1.77479e-08
-1.02756e-07
-1.63274e-08
-9.8474e-08
-1.5276e-08
-9.35272e-08
-1.44874e-08
-8.79725e-08
-1.39462e-08
-8.18798e-08
-1.37262e-08
-7.53321e-08
-1.38625e-08
-6.84184e-08
-1.42491e-08
-6.12242e-08
-1.46666e-08
-5.38301e-08
-1.48973e-08
-4.63187e-08
-1.48191e-08
-3.87856e-08
-1.4409e-08
-3.13457e-08
-1.36795e-08
-2.41284e-08
-1.26117e-08