/*--------------------------------*- C++ -*----------------------------------*\
| =========                 |                                                 |
| \\      /  F ield         | OpenFOAM: The Open Source CFD Toolbox           |
|  \\    /   O peration     | Version:  2406                                  |
|   \\  /    A nd           | Website:  www.openfoam.com                      |
|    \\/     M anipulation  |                                                 |
\*---------------------------------------------------------------------------*/
FoamFile
{
    version     2.0;
    format      ascii;
    arch        "LSB;label=32;scalar=64";
    class       volVectorField;
    location    "10";
    object      U;
}
// * * * * * * * * * * * * * * * * * * * * * * * * * * * * * * * * * * * * * //

dimensions      [0 1 -1 0 0 0 0];

internalField   nonuniform List<vector> 
10000
(
(2.24192e-05 -2.89117e-05 0)
(5.52043e-05 -4.09447e-05 0)
(6.75086e-05 -3.64375e-05 0)
(6.41852e-05 -3.19377e-05 0)
(5.0017e-05 -2.93636e-05 0)
(2.65078e-05 -2.79603e-05 0)
(-2.019e-06 -2.69662e-05 0)
(-3.16972e-05 -2.78054e-05 0)
(-6.24876e-05 -3.0437e-05 0)
(-9.40491e-05 -3.2438e-05 0)
(-0.000124174 -3.46885e-05 0)
(-0.000151871 -3.75356e-05 0)
(-0.000176952 -4.04473e-05 0)
(-0.000199418 -4.36274e-05 0)
(-0.000219452 -4.71751e-05 0)
(-0.000236785 -5.07042e-05 0)
(-0.000251186 -5.40673e-05 0)
(-0.000262883 -5.73818e-05 0)
(-0.000272182 -6.06993e-05 0)
(-0.000279439 -6.36892e-05 0)
(-0.000283864 -6.62792e-05 0)
(-0.000285713 -6.86874e-05 0)
(-0.00028639 -7.074e-05 0)
(-0.000285718 -7.22792e-05 0)
(-0.000283591 -7.34827e-05 0)
(-0.000281416 -7.42977e-05 0)
(-0.000279884 -7.4483e-05 0)
(-0.000278842 -7.41399e-05 0)
(-0.000279085 -7.35411e-05 0)
(-0.00028156 -7.26778e-05 0)
(-0.000285807 -7.13595e-05 0)
(-0.000290933 -6.95475e-05 0)
(-0.000297142 -6.73846e-05 0)
(-0.000305152 -6.50602e-05 0)
(-0.000314864 -6.27406e-05 0)
(-0.000325444 -6.04946e-05 0)
(-0.00033628 -5.82395e-05 0)
(-0.000347281 -5.58711e-05 0)
(-0.000358422 -5.34835e-05 0)
(-0.000369385 -5.1368e-05 0)
(-0.000379553 -4.97376e-05 0)
(-0.000388108 -4.85123e-05 0)
(-0.000394132 -4.74533e-05 0)
(-0.000396873 -4.64967e-05 0)
(-0.000396012 -4.58971e-05 0)
(-0.000391576 -4.60197e-05 0)
(-0.000383445 -4.70103e-05 0)
(-0.000370924 -4.86652e-05 0)
(-0.00035284 -5.05992e-05 0)
(-0.000328163 -5.25286e-05 0)
(-0.000296614 -5.44218e-05 0)
(-0.000258759 -5.64209e-05 0)
(-0.000215539 -5.86427e-05 0)
(-0.000167664 -6.10408e-05 0)
(-0.000115351 -6.34192e-05 0)
(-5.85606e-05 -6.55482e-05 0)
(2.5364e-06 -6.72732e-05 0)
(6.7231e-05 -6.85516e-05 0)
(0.000134316 -6.94162e-05 0)
(0.000202415 -6.99043e-05 0)
(0.000270357 -6.99927e-05 0)
(0.000337349 -6.95794e-05 0)
(0.000402842 -6.85232e-05 0)
(0.000466215 -6.67242e-05 0)
(0.000526511 -6.41899e-05 0)
(0.000582434 -6.10398e-05 0)
(0.000632628 -5.7441e-05 0)
(0.000676018 -5.35206e-05 0)
(0.000711985 -4.93228e-05 0)
(0.000740236 -4.48465e-05 0)
(0.000760537 -4.01337e-05 0)
(0.000772547 -3.53279e-05 0)
(0.000775917 -3.06412e-05 0)
(0.000770543 -2.62582e-05 0)
(0.000756701 -2.22745e-05 0)
(0.000734922 -1.87332e-05 0)
(0.000705768 -1.57076e-05 0)
(0.000669758 -1.33164e-05 0)
(0.000627517 -1.16456e-05 0)
(0.000579907 -1.06802e-05 0)
(0.00052792 -1.03485e-05 0)
(0.000472435 -1.06233e-05 0)
(0.000414172 -1.15332e-05 0)
(0.000353886 -1.30688e-05 0)
(0.000292499 -1.51389e-05 0)
(0.000230961 -1.76573e-05 0)
(0.000170078 -2.06194e-05 0)
(0.00011061 -2.40292e-05 0)
(5.3431e-05 -2.779e-05 0)
(-5.94571e-07 -3.17539e-05 0)
(-5.07317e-05 -3.5871e-05 0)
(-9.61729e-05 -4.02051e-05 0)
(-0.000135878 -4.481e-05 0)
(-0.000168636 -4.97145e-05 0)
(-0.000192811 -5.50122e-05 0)
(-0.000205901 -6.07996e-05 0)
(-0.000204031 -6.7347e-05 0)
(-0.000181087 -7.52358e-05 0)
(-0.000130646 -8.05728e-05 0)
(-4.9004e-05 -5.53367e-05 0)
(3.54301e-05 -8.70613e-05 0)
(8.78615e-05 -0.000128334 0)
(0.000107758 -0.000121685 0)
(0.00010164 -0.000111681 0)
(7.93451e-05 -0.000107214 0)
(4.40309e-05 -0.000105269 0)
(3.7484e-07 -0.000104763 0)
(-4.6603e-05 -0.000106884 0)
(-9.26091e-05 -0.000112321 0)
(-0.000138311 -0.0001189 0)
(-0.000183388 -0.000126248 0)
(-0.000224683 -0.000134491 0)
(-0.000261892 -0.000143201 0)
(-0.00029567 -0.000152585 0)
(-0.000325677 -0.000162674 0)
(-0.000351282 -0.000172596 0)
(-0.000372592 -0.000182312 0)
(-0.000390129 -0.000191913 0)
(-0.000403891 -0.000201231 0)
(-0.000414177 -0.000209915 0)
(-0.000420405 -0.00021768 0)
(-0.000422846 -0.00022463 0)
(-0.000423136 -0.000230705 0)
(-0.000421418 -0.000235677 0)
(-0.000417687 -0.000239525 0)
(-0.000413611 -0.000242089 0)
(-0.000410398 -0.000243125 0)
(-0.000408327 -0.000242856 0)
(-0.000408408 -0.000241704 0)
(-0.000411545 -0.000239593 0)
(-0.000417002 -0.000236066 0)
(-0.000423733 -0.000231004 0)
(-0.000432212 -0.000224896 0)
(-0.000443529 -0.0002184 0)
(-0.000457477 -0.000211794 0)
(-0.000472651 -0.000204879 0)
(-0.000488048 -0.000197387 0)
(-0.000503744 -0.00018948 0)
(-0.00052008 -0.00018179 0)
(-0.000536645 -0.000174925 0)
(-0.000552123 -0.000168959 0)
(-0.000564851 -0.000163505 0)
(-0.000573505 -0.000158311 0)
(-0.00057747 -0.000153726 0)
(-0.000576723 -0.000150538 0)
(-0.000571252 -0.000149342 0)
(-0.000560406 -0.000150063 0)
(-0.0005427 -0.000152055 0)
(-0.000516337 -0.000154629 0)
(-0.000480098 -0.000157503 0)
(-0.000433927 -0.00016083 0)
(-0.000378773 -0.000164864 0)
(-0.000315851 -0.000169609 0)
(-0.000245937 -0.000174729 0)
(-0.000169199 -0.00017972 0)
(-8.56249e-05 -0.000184161 0)
(4.36592e-06 -0.000187854 0)
(9.95762e-05 -0.000190784 0)
(0.00019818 -0.000192983 0)
(0.000298232 -0.00019439 0)
(0.000398164 -0.000194781 0)
(0.000496942 -0.000193817 0)
(0.00059377 -0.000191178 0)
(0.0006876 -0.000186724 0)
(0.000776808 -0.00018058 0)
(0.000859334 -0.000173075 0)
(0.000933179 -0.00016457 0)
(0.000996906 -0.000155287 0)
(0.00104976 -0.000145274 0)
(0.00109135 -0.00013455 0)
(0.00112119 -0.000123307 0)
(0.00113862 -0.000111981 0)
(0.0011431 -0.000101107 0)
(0.00113457 -9.1096e-05 0)
(0.00111358 -8.21562e-05 0)
(0.00108091 -7.44269e-05 0)
(0.00103728 -6.81451e-05 0)
(0.000983436 -6.36058e-05 0)
(0.000920409 -6.09598e-05 0)
(0.000849615 -6.01254e-05 0)
(0.000772503 -6.09523e-05 0)
(0.00069025 -6.34077e-05 0)
(0.000603883 -6.75058e-05 0)
(0.000514623 -7.31026e-05 0)
(0.000423893 -7.9916e-05 0)
(0.000332989 -8.77642e-05 0)
(0.000242995 -9.66249e-05 0)
(0.000155129 -0.000106431 0)
(7.08281e-05 -0.00011698 0)
(-8.68618e-06 -0.000128067 0)
(-8.25585e-05 -0.000139549 0)
(-0.000149714 -0.000151305 0)
(-0.000208586 -0.000163238 0)
(-0.000257412 -0.000175231 0)
(-0.000293736 -0.000187188 0)
(-0.000313635 -0.000199195 0)
(-0.00031124 -0.000212203 0)
(-0.000276928 -0.000228148 0)
(-0.000199771 -0.000235342 0)
(-7.4309e-05 -0.000158837 0)
(3.54551e-05 -0.000139654 0)
(9.0714e-05 -0.00020613 0)
(0.000113549 -0.000199404 0)
(0.0001065 -0.00018669 0)
(8.24383e-05 -0.000182365 0)
(4.66136e-05 -0.000182477 0)
(2.30831e-06 -0.000185249 0)
(-4.5578e-05 -0.00018998 0)
(-9.36509e-05 -0.000196166 0)
(-0.000140496 -0.000206073 0)
(-0.000185147 -0.000217286 0)
(-0.000226082 -0.000229255 0)
(-0.000263124 -0.000242418 0)
(-0.000296815 -0.000256233 0)
(-0.0003264 -0.000270601 0)
(-0.000351375 -0.000284767 0)
(-0.000372273 -0.000298697 0)
(-0.000389263 -0.000312544 0)
(-0.000402386 -0.000325917 0)
(-0.00041195 -0.000338536 0)
(-0.000417106 -0.000349932 0)
(-0.000418456 -0.000360072 0)
(-0.000417799 -0.000369369 0)
(-0.000414889 -0.000377474 0)
(-0.000409623 -0.00038359 0)
(-0.000403953 -0.000387601 0)
(-0.000399301 -0.000389981 0)
(-0.000396001 -0.000390971 0)
(-0.00039492 -0.000390286 0)
(-0.000396605 -0.000387468 0)
(-0.000400183 -0.000382367 0)
(-0.000405064 -0.00037535 0)
(-0.000412285 -0.000367091 0)
(-0.000422827 -0.000358053 0)
(-0.000435808 -0.000348191 0)
(-0.000449497 -0.000337237 0)
(-0.000463395 -0.000325275 0)
(-0.000478334 -0.000312938 0)
(-0.000494769 -0.000300967 0)
(-0.000511665 -0.000289639 0)
(-0.000527099 -0.000278703 0)
(-0.000539506 -0.000267929 0)
(-0.000548234 -0.000257657 0)
(-0.000553208 -0.000248765 0)
(-0.000554295 -0.000242078 0)
(-0.000550876 -0.000237791 0)
(-0.000541754 -0.000235432 0)
(-0.000525397 -0.000234336 0)
(-0.000500387 -0.000234149 0)
(-0.000465905 -0.000234954 0)
(-0.000421982 -0.000236985 0)
(-0.000369319 -0.00024027 0)
(-0.000308811 -0.000244495 0)
(-0.000241074 -0.000249144 0)
(-0.000166345 -0.000253749 0)
(-8.47851e-05 -0.000258041 0)
(3.05525e-06 -0.000261935 0)
(9.59778e-05 -0.000265385 0)
(0.000192285 -0.000268249 0)
(0.000290218 -0.000270219 0)
(0.000388367 -0.000270872 0)
(0.000485739 -0.000269783 0)
(0.000581439 -0.000266675 0)
(0.000674217 -0.000261523 0)
(0.000762264 -0.000254557 0)
(0.000843459 -0.000246141 0)
(0.000915915 -0.000236584 0)
(0.000978404 -0.000226018 0)
(0.00103031 -0.000214449 0)
(0.00107116 -0.000201974 0)
(0.00110028 -0.00018897 0)
(0.00111684 -0.000176072 0)
(0.00112032 -0.000163927 0)
(0.00111087 -0.000152973 0)
(0.00108913 -0.000143451 0)
(0.00105585 -0.000135614 0)
(0.00101164 -0.000129822 0)
(0.000957284 -0.000126399 0)
(0.000893998 -0.000125426 0)
(0.000823298 -0.000126773 0)
(0.000746551 -0.000130327 0)
(0.000664836 -0.000136081 0)
(0.000579246 -0.000143927 0)
(0.000491118 -0.00015352 0)
(0.000401798 -0.00016449 0)
(0.000312387 -0.000176664 0)
(0.000223911 -0.000189909 0)
(0.000137627 -0.000203925 0)
(5.49194e-05 -0.000218465 0)
(-2.30378e-05 -0.000233496 0)
(-9.53062e-05 -0.000248826 0)
(-0.000160829 -0.000263983 0)
(-0.000218171 -0.000278636 0)
(-0.00026555 -0.000292485 0)
(-0.000300393 -0.000305167 0)
(-0.00031873 -0.000317069 0)
(-0.000314996 -0.000330297 0)
(-0.000280007 -0.000349116 0)
(-0.000202188 -0.000357944 0)
(-7.35514e-05 -0.000242259 0)
(3.37942e-05 -0.000191301 0)
(8.72019e-05 -0.000282148 0)
(0.000110791 -0.00027642 0)
(0.000104336 -0.000264925 0)
(7.88566e-05 -0.000262651 0)
(4.20868e-05 -0.00026672 0)
(-2.417e-06 -0.000273791 0)
(-4.92878e-05 -0.000282918 0)
(-9.69649e-05 -0.00029326 0)
(-0.000144375 -0.00030546 0)
(-0.000188388 -0.000318927 0)
(-0.000228718 -0.000333263 0)
(-0.000265162 -0.000349237 0)
(-0.000297902 -0.000365848 0)
(-0.00032643 -0.000382418 0)
(-0.00035015 -0.000398888 0)
(-0.00037002 -0.000415588 0)
(-0.000386187 -0.000432377 0)
(-0.000398203 -0.000448297 0)
(-0.000406261 -0.000463124 0)
(-0.000409884 -0.000477138 0)
(-0.000410188 -0.00049036 0)
(-0.000408577 -0.000502454 0)
(-0.0004039 -0.000512729 0)
(-0.000396302 -0.000520777 0)
(-0.000388797 -0.000526948 0)
(-0.000382926 -0.000531608 0)
(-0.00037807 -0.000534361 0)
(-0.000374509 -0.000534425 0)
(-0.000373301 -0.000531525 0)
(-0.000374417 -0.000526101 0)
(-0.00037748 -0.000518733 0)
(-0.000383052 -0.000509624 0)
(-0.00039161 -0.000498661 0)
(-0.000402292 -0.000485815 0)
(-0.000413864 -0.000471377 0)
(-0.00042629 -0.00045588 0)
(-0.000440394 -0.000439806 0)
(-0.000456213 -0.000423382 0)
(-0.000472364 -0.000406613 0)
(-0.000487038 -0.000389567 0)
(-0.000499192 -0.00037264 0)
(-0.000508641 -0.00035657 0)
(-0.000515299 -0.00034212 0)
(-0.000518553 -0.000329701 0)
(-0.000517254 -0.000319254 0)
(-0.000510067 -0.00031047 0)
(-0.000495744 -0.000303131 0)
(-0.000473255 -0.000297265 0)
(-0.000441927 -0.000293035 0)
(-0.000401608 -0.000290505 0)
(-0.000352684 -0.000289509 0)
(-0.000295842 -0.000289702 0)
(-0.000231711 -0.000290729 0)
(-0.00016068 -0.000292349 0)
(-8.30423e-05 -0.000294446 0)
(6.56781e-07 -0.000296925 0)
(8.93793e-05 -0.000299603 0)
(0.000181658 -0.000302146 0)
(0.000275928 -0.00030411 0)
(0.000370849 -0.000305032 0)
(0.000465363 -0.000304532 0)
(0.000558412 -0.000302416 0)
(0.000648567 -0.000298714 0)
(0.000733929 -0.00029365 0)
(0.000812448 -0.000287502 0)
(0.000882442 -0.000280436 0)
(0.000942881 -0.000272451 0)
(0.000993166 -0.000263505 0)
(0.00103266 -0.000253766 0)
(0.00106044 -0.000243735 0)
(0.00107559 -0.000234107 0)
(0.00107776 -0.000225474 0)
(0.00106726 -0.000218187 0)
(0.0010448 -0.000212476 0)
(0.00101099 -0.000208656 0)
(0.000966434 -0.000207117 0)
(0.000912027 -0.000208103 0)
(0.000849162 -0.000211591 0)
(0.000779352 -0.000217445 0)
(0.000703835 -0.000225613 0)
(0.000623683 -0.000236049 0)
(0.000540137 -0.000248484 0)
(0.000454571 -0.000262459 0)
(0.000368145 -0.000277616 0)
(0.000281827 -0.000293764 0)
(0.00019673 -0.00031059 0)
(0.000114088 -0.000327576 0)
(3.49946e-05 -0.000344342 0)
(-3.94723e-05 -0.000360739 0)
(-0.000108137 -0.000376435 0)
(-0.000169917 -0.000390815 0)
(-0.000223532 -0.000403393 0)
(-0.000267121 -0.000413717 0)
(-0.000298167 -0.000421499 0)
(-0.000312768 -0.00042784 0)
(-0.000305787 -0.000436409 0)
(-0.000269601 -0.000453714 0)
(-0.000193803 -0.000461296 0)
(-6.95993e-05 -0.000311947 0)
(3.14876e-05 -0.000242379 0)
(8.14272e-05 -0.000356904 0)
(0.000104341 -0.000352901 0)
(9.79751e-05 -0.000344277 0)
(7.16296e-05 -0.000346393 0)
(3.35104e-05 -0.000355154 0)
(-1.19481e-05 -0.000366873 0)
(-6.00553e-05 -0.000379304 0)
(-0.000108294 -0.000394258 0)
(-0.00015541 -0.000408921 0)
(-0.000199456 -0.000424283 0)
(-0.000240358 -0.000440673 0)
(-0.000277386 -0.000457841 0)
(-0.00030965 -0.000475172 0)
(-0.000337361 -0.000492688 0)
(-0.000361023 -0.000510481 0)
(-0.000381071 -0.000528548 0)
(-0.000396367 -0.000546446 0)
(-0.000406848 -0.000563538 0)
(-0.000414045 -0.000580037 0)
(-0.000417318 -0.000596245 0)
(-0.000416617 -0.000611718 0)
(-0.000413017 -0.000625685 0)
(-0.000406167 -0.00063779 0)
(-0.000396967 -0.000648261 0)
(-0.000388117 -0.00065729 0)
(-0.000380256 -0.000664392 0)
(-0.000372511 -0.000668734 0)
(-0.000365822 -0.000669947 0)
(-0.000361925 -0.000668269 0)
(-0.000360766 -0.00066399 0)
(-0.000361491 -0.000657071 0)
(-0.000364436 -0.000647332 0)
(-0.000370363 -0.000634848 0)
(-0.000378832 -0.00062002 0)
(-0.000388726 -0.000603303 0)
(-0.000399797 -0.00058494 0)
(-0.000412621 -0.000564994 0)
(-0.0004272 -0.000543573 0)
(-0.000442362 -0.000521004 0)
(-0.000456603 -0.000497833 0)
(-0.000469076 -0.000474687 0)
(-0.000479548 -0.000452138 0)
(-0.000487674 -0.000430605 0)
(-0.000492555 -0.000410355 0)
(-0.000492919 -0.000391551 0)
(-0.000487497 -0.000374327 0)
(-0.000475177 -0.000358818 0)
(-0.000454982 -0.000345152 0)
(-0.000426165 -0.000333402 0)
(-0.000388418 -0.000323562 0)
(-0.000342001 -0.000315552 0)
(-0.000287577 -0.000309275 0)
(-0.000225838 -0.000304653 0)
(-0.000157237 -0.000301618 0)
(-8.20544e-05 -0.000300068 0)
(-7.23472e-07 -0.000299805 0)
(8.58732e-05 -0.000300524 0)
(0.000176395 -0.000301844 0)
(0.000269325 -0.00030336 0)
(0.00036329 -0.000304685 0)
(0.000457123 -0.000305498 0)
(0.000549603 -0.000305615 0)
(0.000639143 -0.000305031 0)
(0.000723777 -0.000303887 0)
(0.000801536 -0.000302323 0)
(0.000870912 -0.000300339 0)
(0.000930972 -0.000297795 0)
(0.000981001 -0.000294609 0)
(0.00102007 -0.000290993 0)
(0.00104706 -0.000287482 0)
(0.00106107 -0.000284697 0)
(0.00106192 -0.000283066 0)
(0.0010501 -0.000282797 0)
(0.00102627 -0.000284079 0)
(0.000990961 -0.00028723 0)
(0.000944808 -0.000292573 0)
(0.000888932 -0.000300215 0)
(0.000824859 -0.000310049 0)
(0.000754054 -0.000321981 0)
(0.000677716 -0.000335997 0)
(0.000597051 -0.000351955 0)
(0.000513483 -0.000369444 0)
(0.000428353 -0.000387977 0)
(0.00034266 -0.000407201 0)
(0.000257379 -0.000426782 0)
(0.000173784 -0.00044623 0)
(9.31254e-05 -0.000464993 0)
(1.63444e-05 -0.000482554 0)
(-5.55128e-05 -0.000498386 0)
(-0.000121135 -0.000511935 0)
(-0.000179422 -0.000522586 0)
(-0.000229166 -0.000529723 0)
(-0.000268541 -0.000532957 0)
(-0.000295274 -0.000532402 0)
(-0.000305727 -0.000529924 0)
(-0.000295039 -0.000531079 0)
(-0.000257002 -0.000544673 0)
(-0.000183081 -0.000549626 0)
(-6.49432e-05 -0.000370916 0)
(2.94765e-05 -0.000291705 0)
(7.37404e-05 -0.000429056 0)
(9.2437e-05 -0.000426561 0)
(8.54465e-05 -0.000421013 0)
(5.85485e-05 -0.000428363 0)
(1.93995e-05 -0.000442585 0)
(-2.61084e-05 -0.000459345 0)
(-7.49594e-05 -0.000476108 0)
(-0.000123886 -0.000493614 0)
(-0.000170733 -0.000510615 0)
(-0.000215519 -0.000527685 0)
(-0.000256756 -0.000545224 0)
(-0.000293321 -0.000562682 0)
(-0.000325679 -0.000579832 0)
(-0.000354035 -0.000597491 0)
(-0.00037777 -0.000615572 0)
(-0.000397304 -0.00063362 0)
(-0.000412146 -0.000651471 0)
(-0.00042249 -0.000669225 0)
(-0.000429471 -0.00068701 0)
(-0.000431948 -0.000704484 0)
(-0.000429945 -0.000721164 0)
(-0.000424945 -0.000736785 0)
(-0.000416793 -0.000751229 0)
(-0.000406168 -0.00076438 0)
(-0.00039535 -0.000775884 0)
(-0.00038485 -0.000785113 0)
(-0.000374148 -0.000791546 0)
(-0.000364575 -0.000794995 0)
(-0.000357832 -0.00079537 0)
(-0.000353605 -0.000792448 0)
(-0.000351044 -0.000786022 0)
(-0.000350823 -0.000776166 0)
(-0.000353999 -0.000763199 0)
(-0.000360095 -0.000747398 0)
(-0.000367743 -0.000728824 0)
(-0.00037654 -0.000707439 0)
(-0.000387189 -0.000683378 0)
(-0.000399998 -0.000657075 0)
(-0.000414029 -0.000629149 0)
(-0.000427786 -0.000600174 0)
(-0.000440267 -0.00057056 0)
(-0.000451094 -0.000540634 0)
(-0.000459898 -0.000510796 0)
(-0.000465828 -0.000481559 0)
(-0.000467626 -0.000453455 0)
(-0.000463956 -0.000426886 0)
(-0.000453591 -0.000402076 0)
(-0.000435466 -0.000379129 0)
(-0.000408793 -0.000358141 0)
(-0.000373263 -0.000339266 0)
(-0.000329159 -0.000322723 0)
(-0.000277147 -0.00030873 0)
(-0.000217877 -0.000297414 0)
(-0.000151706 -0.000288746 0)
(-7.87899e-05 -0.000282546 0)
(5.43332e-07 -0.000278539 0)
(8.54653e-05 -0.000276431 0)
(0.000174647 -0.000275953 0)
(0.000266569 -0.000276835 0)
(0.000359845 -0.000278773 0)
(0.000453248 -0.00028145 0)
(0.000545434 -0.000284628 0)
(0.000634674 -0.000288219 0)
(0.000718955 -0.000292249 0)
(0.000796402 -0.000296706 0)
(0.00086565 -0.000301419 0)
(0.000925779 -0.000306133 0)
(0.000975861 -0.000310735 0)
(0.00101466 -0.000315445 0)
(0.00104089 -0.000320735 0)
(0.00105378 -0.000327051 0)
(0.00105336 -0.000334594 0)
(0.00104017 -0.000343418 0)
(0.00101479 -0.000353653 0)
(0.000977707 -0.000365557 0)
(0.000929676 -0.000379307 0)
(0.000872017 -0.000394853 0)
(0.000806299 -0.00041205 0)
(0.000733916 -0.000430862 0)
(0.000656126 -0.000451278 0)
(0.000574365 -0.000473047 0)
(0.000490191 -0.00049569 0)
(0.00040489 -0.000518763 0)
(0.000319447 -0.000541863 0)
(0.000234936 -0.000564383 0)
(0.000152664 -0.000585614 0)
(7.38657e-05 -0.000605002 0)
(-4.16983e-07 -0.000621933 0)
(-6.90992e-05 -0.000635548 0)
(-0.000130961 -0.000645158 0)
(-0.000184919 -0.000650203 0)
(-0.0002299 -0.000650025 0)
(-0.000264345 -0.000644523 0)
(-0.000286257 -0.000634255 0)
(-0.000292457 -0.000621826 0)
(-0.000278533 -0.000614506 0)
(-0.000239558 -0.000623346 0)
(-0.000168784 -0.000625204 0)
(-5.90703e-05 -0.000421142 0)
(2.67084e-05 -0.00033781 0)
(6.38753e-05 -0.000498252 0)
(7.63046e-05 -0.000496206 0)
(6.69416e-05 -0.000492826 0)
(3.96899e-05 -0.000505571 0)
(1.77479e-07 -0.000525108 0)
(-4.54882e-05 -0.000545899 0)
(-9.38247e-05 -0.000567363 0)
(-0.000142147 -0.000586986 0)
(-0.000188669 -0.000605995 0)
(-0.000233066 -0.000624433 0)
(-0.000274159 -0.000642012 0)
(-0.000310607 -0.000659078 0)
(-0.0003429 -0.000675901 0)
(-0.000371386 -0.000692967 0)
(-0.000395297 -0.000710182 0)
(-0.000414997 -0.00072754 0)
(-0.000429899 -0.00074508 0)
(-0.000440228 -0.000762854 0)
(-0.00044708 -0.000780932 0)
(-0.000449204 -0.000799056 0)
(-0.000446617 -0.000816926 0)
(-0.000440755 -0.000834253 0)
(-0.000431426 -0.000850707 0)
(-0.000419283 -0.000866051 0)
(-0.000406506 -0.000879944 0)
(-0.00039357 -0.000891751 0)
(-0.000380045 -0.000900818 0)
(-0.000367296 -0.00090669 0)
(-0.000357012 -0.000909008 0)
(-0.000349027 -0.000907488 0)
(-0.00034279 -0.000902067 0)
(-0.000339162 -0.000892877 0)
(-0.000339098 -0.000879994 0)
(-0.000341898 -0.000863295 0)
(-0.000346137 -0.00084263 0)
(-0.000351648 -0.000818117 0)
(-0.000359482 -0.000790227 0)
(-0.00037013 -0.000759595 0)
(-0.000382558 -0.000726724 0)
(-0.000395058 -0.000691899 0)
(-0.000406537 -0.000655335 0)
(-0.000416754 -0.000617438 0)
(-0.000425553 -0.000578897 0)
(-0.000432171 -0.000540534 0)
(-0.000435231 -0.000503056 0)
(-0.00043316 -0.00046689 0)
(-0.000424552 -0.000432239 0)
(-0.000408313 -0.000399269 0)
(-0.000383752 -0.000368278 0)
(-0.000350687 -0.000339746 0)
(-0.000309438 -0.000314231 0)
(-0.000260569 -0.000292187 0)
(-0.000204523 -0.000273812 0)
(-0.000141443 -0.000259031 0)
(-7.13629e-05 -0.00024761 0)
(5.39915e-06 -0.00023931 0)
(8.7961e-05 -0.000233983 0)
(0.000174968 -0.000231537 0)
(0.000264948 -0.000231833 0)
(0.000356585 -0.000234601 0)
(0.000448653 -0.000239484 0)
(0.00053971 -0.000246172 0)
(0.000627909 -0.000254488 0)
(0.000711216 -0.000264339 0)
(0.000787862 -0.000275559 0)
(0.000856595 -0.000287828 0)
(0.000916429 -0.000300799 0)
(0.000966179 -0.000314333 0)
(0.00100434 -0.000328608 0)
(0.00102955 -0.000343951 0)
(0.00104124 -0.000360564 0)
(0.00103959 -0.000378408 0)
(0.00102515 -0.000397393 0)
(0.000998371 -0.000417568 0)
(0.000959736 -0.000439064 0)
(0.000910176 -0.00046187 0)
(0.000851132 -0.000485802 0)
(0.000784113 -0.000510717 0)
(0.000710447 -0.000536626 0)
(0.000631537 -0.000563471 0)
(0.000549052 -0.000590907 0)
(0.0004646 -0.000618457 0)
(0.000379445 -0.000645727 0)
(0.000294743 -0.000672221 0)
(0.00021177 -0.0006971 0)
(0.000131743 -0.000719441 0)
(5.58135e-05 -0.000738554 0)
(-1.47785e-05 -0.000753699 0)
(-7.89261e-05 -0.000763931 0)
(-0.000135644 -0.000768558 0)
(-0.000183902 -0.000767106 0)
(-0.000222903 -0.000759107 0)
(-0.000251492 -0.000744692 0)
(-0.000268031 -0.000724768 0)
(-0.000270038 -0.000702599 0)
(-0.000253705 -0.000686725 0)
(-0.000215413 -0.000690146 0)
(-0.000150109 -0.000688388 0)
(-5.18094e-05 -0.000462882 0)
(2.24585e-05 -0.00037828 0)
(5.11044e-05 -0.000560498 0)
(5.64377e-05 -0.000559802 0)
(4.26624e-05 -0.000557306 0)
(1.45966e-05 -0.000574312 0)
(-2.35012e-05 -0.00059891 0)
(-6.84661e-05 -0.000624186 0)
(-0.0001158 -0.00064836 0)
(-0.000162357 -0.000670366 0)
(-0.000208099 -0.000690874 0)
(-0.000251483 -0.000709863 0)
(-0.000291347 -0.000727127 0)
(-0.000327142 -0.000743402 0)
(-0.000359483 -0.000759368 0)
(-0.000388213 -0.000775407 0)
(-0.000412214 -0.000791351 0)
(-0.000432047 -0.000807407 0)
(-0.00044728 -0.000823971 0)
(-0.000458129 -0.000841313 0)
(-0.000465434 -0.000859424 0)
(-0.000467685 -0.000877921 0)
(-0.000464862 -0.000896514 0)
(-0.000458418 -0.000914994 0)
(-0.000448264 -0.000933113 0)
(-0.000435061 -0.000950651 0)
(-0.00042068 -0.000967081 0)
(-0.000405329 -0.000981452 0)
(-0.000388679 -0.000992885 0)
(-0.000372347 -0.0010009 0)
(-0.000358202 -0.0010052 0)
(-0.000346233 -0.00100549 0)
(-0.000336014 -0.00100156 0)
(-0.000328356 -0.000993202 0)
(-0.000324049 -0.000980184 0)
(-0.000322383 -0.000962249 0)
(-0.000322229 -0.000939407 0)
(-0.000323816 -0.00091207 0)
(-0.000328363 -0.000880859 0)
(-0.000336211 -0.000846255 0)
(-0.00034607 -0.000808457 0)
(-0.000356157 -0.000767561 0)
(-0.000365591 -0.000723879 0)
(-0.000374467 -0.000678121 0)
(-0.000382829 -0.00063127 0)
(-0.000389842 -0.000584285 0)
(-0.000393853 -0.000537838 0)
(-0.000393022 -0.000492289 0)
(-0.000385858 -0.000447869 0)
(-0.000371395 -0.000404938 0)
(-0.000349163 -0.000364122 0)
(-0.000319123 -0.000326252 0)
(-0.000281526 -0.000292146 0)
(-0.000236675 -0.000262354 0)
(-0.00018469 -0.000237054 0)
(-0.000125498 -0.000216139 0)
(-5.90903e-05 -0.000199416 0)
(1.41193e-05 -0.000186793 0)
(9.3154e-05 -0.000178323 0)
(0.000176677 -0.000174082 0)
(0.00026335 -0.000174007 0)
(0.000352005 -0.000177818 0)
(0.000441456 -0.000185105 0)
(0.000530179 -0.000195493 0)
(0.000616229 -0.000208734 0)
(0.000697581 -0.000224627 0)
(0.000772586 -0.00024287 0)
(0.000840062 -0.000263018 0)
(0.000898907 -0.000284651 0)
(0.000947672 -0.000307591 0)
(0.000984657 -0.000331921 0)
(0.00100854 -0.000357768 0)
(0.00101894 -0.00038506 0)
(0.00101615 -0.000413537 0)
(0.00100066 -0.000442975 0)
(0.000972793 -0.000473313 0)
(0.000933094 -0.000504501 0)
(0.000882639 -0.000536328 0)
(0.00082288 -0.00056852 0)
(0.000755195 -0.000600969 0)
(0.000680893 -0.000633693 0)
(0.000601583 -0.000666554 0)
(0.00051912 -0.000699165 0)
(0.000435115 -0.000731097 0)
(0.000350875 -0.000761931 0)
(0.000267827 -0.000791023 0)
(0.000187474 -0.000817434 0)
(0.000110976 -0.000840159 0)
(3.93882e-05 -0.000858247 0)
(-2.59984e-05 -0.000870805 0)
(-8.4157e-05 -0.000877029 0)
(-0.000134358 -0.000876275 0)
(-0.00017578 -0.000868165 0)
(-0.000207896 -0.000852616 0)
(-0.00022991 -0.000829895 0)
(-0.000240651 -0.000801156 0)
(-0.000238376 -0.000770112 0)
(-0.000220114 -0.000746311 0)
(-0.000184005 -0.000744254 0)
(-0.000126688 -0.000738538 0)
(-4.30447e-05 -0.000495599 0)
(1.59819e-05 -0.000411789 0)
(3.386e-05 -0.00061284 0)
(3.28845e-05 -0.000614544 0)
(1.49863e-05 -0.000613158 0)
(-1.49302e-05 -0.000632501 0)
(-5.25239e-05 -0.000660247 0)
(-9.5029e-05 -0.000689953 0)
(-0.000139734 -0.000716121 0)
(-0.000184521 -0.000739973 0)
(-0.000228149 -0.000761285 0)
(-0.000269364 -0.000779921 0)
(-0.000307772 -0.000796507 0)
(-0.000342937 -0.000812016 0)
(-0.000375004 -0.000826796 0)
(-0.000403473 -0.000841108 0)
(-0.000427394 -0.000855171 0)
(-0.000447705 -0.000869675 0)
(-0.000463883 -0.000885185 0)
(-0.000475741 -0.000901865 0)
(-0.00048373 -0.000919466 0)
(-0.000486324 -0.000937649 0)
(-0.000483698 -0.000956452 0)
(-0.000477334 -0.000975873 0)
(-0.000467043 -0.000995601 0)
(-0.000453192 -0.00101515 0)
(-0.000437218 -0.00103365 0)
(-0.000419253 -0.00105002 0)
(-0.000399347 -0.00106345 0)
(-0.00037945 -0.00107362 0)
(-0.00036144 -0.00108017 0)
(-0.000345218 -0.00108249 0)
(-0.000330351 -0.00107993 0)
(-0.000317678 -0.00107205 0)
(-0.000308072 -0.00105855 0)
(-0.000301077 -0.00103933 0)
(-0.000295938 -0.00101461 0)
(-0.000293106 -0.000984898 0)
(-0.000293704 -0.000950662 0)
(-0.000297799 -0.000912144 0)
(-0.000303968 -0.000869385 0)
(-0.000310615 -0.000822548 0)
(-0.000317266 -0.000772198 0)
(-0.000324347 -0.000719314 0)
(-0.00033195 -0.000665012 0)
(-0.000338998 -0.000610214 0)
(-0.000343511 -0.000555494 0)
(-0.000343471 -0.000501188 0)
(-0.000337472 -0.000447673 0)
(-0.000324819 -0.000395591 0)
(-0.000305301 -0.000345902 0)
(-0.000278928 -0.000299696 0)
(-0.000245734 -0.000257909 0)
(-0.000205648 -0.000221095 0)
(-0.000158449 -0.000189407 0)
(-0.000103914 -0.00016277 0)
(-4.20911e-05 -0.000141124 0)
(2.64551e-05 -0.000124576 0)
(0.000100674 -0.000113373 0)
(0.000179325 -0.000107712 0)
(0.000261292 -0.00010756 0)
(0.000345607 -0.000112598 0)
(0.00043114 -0.000122366 0)
(0.000516285 -0.000136451 0)
(0.000599019 -0.000154557 0)
(0.000677361 -0.000176401 0)
(0.000749787 -0.000201564 0)
(0.00081516 -0.000229494 0)
(0.00087223 -0.000259705 0)
(0.000919307 -0.000291957 0)
(0.000954585 -0.000326204 0)
(0.000976861 -0.000362338 0)
(0.000985916 -0.000400022 0)
(0.000982128 -0.000438807 0)
(0.000965831 -0.000478346 0)
(0.0009373 -0.00051844 0)
(0.000897158 -0.00055884 0)
(0.000846565 -0.000599161 0)
(0.000786863 -0.000639082 0)
(0.000719272 -0.000678513 0)
(0.000645149 -0.000717417 0)
(0.0005663 -0.000755546 0)
(0.000484687 -0.000792519 0)
(0.000401955 -0.000827985 0)
(0.000319583 -0.000861444 0)
(0.000239247 -0.000892081 0)
(0.000162586 -0.000918979 0)
(9.08341e-05 -0.000941205 0)
(2.50286e-05 -0.000957632 0)
(-3.37398e-05 -0.000967278 0)
(-8.4624e-05 -0.000969548 0)
(-0.000127089 -0.000963822 0)
(-0.000160702 -0.000949811 0)
(-0.000185239 -0.0009276 0)
(-0.000200132 -0.000897457 0)
(-0.000204707 -0.00086075 0)
(-0.000198211 -0.000821624 0)
(-0.000178649 -0.000790692 0)
(-0.000145974 -0.000783593 0)
(-9.87577e-05 -0.000774124 0)
(-3.28013e-05 -0.000518463 0)
(7.77868e-06 -0.000439254 0)
(1.25584e-05 -0.000654139 0)
(4.83517e-06 -0.00065704 0)
(-1.62944e-05 -0.000657135 0)
(-4.67403e-05 -0.000678857 0)
(-8.40438e-05 -0.000709051 0)
(-0.000124418 -0.000739884 0)
(-0.000165489 -0.000767839 0)
(-0.000207319 -0.000792519 0)
(-0.000247966 -0.000813622 0)
(-0.000286679 -0.000831624 0)
(-0.000323439 -0.000847342 0)
(-0.000357437 -0.000861499 0)
(-0.000388585 -0.000874331 0)
(-0.000416602 -0.000886469 0)
(-0.000440786 -0.000898628 0)
(-0.000462057 -0.000911632 0)
(-0.00047946 -0.000925799 0)
(-0.000492386 -0.000941162 0)
(-0.000501179 -0.000957579 0)
(-0.000504623 -0.000975063 0)
(-0.000503018 -0.000993959 0)
(-0.000497475 -0.00101419 0)
(-0.000487431 -0.00103509 0)
(-0.000472993 -0.0010559 0)
(-0.000455403 -0.00107574 0)
(-0.000434944 -0.00109367 0)
(-0.000412075 -0.00110906 0)
(-0.000388838 -0.00112151 0)
(-0.000366826 -0.00113029 0)
(-0.000345754 -0.00113433 0)
(-0.000325352 -0.00113273 0)
(-0.000306775 -0.00112503 0)
(-0.000291165 -0.00111107 0)
(-0.000278316 -0.00109092 0)
(-0.000267685 -0.00106479 0)
(-0.000259772 -0.00103301 0)
(-0.000255548 -0.000995886 0)
(-0.000254906 -0.00095355 0)
(-0.000256475 -0.000906127 0)
(-0.000258998 -0.00085399 0)
(-0.000262414 -0.00079792 0)
(-0.000267368 -0.000738997 0)
(-0.000273846 -0.000678297 0)
(-0.000280466 -0.000616637 0)
(-0.000284988 -0.000554555 0)
(-0.000285367 -0.00049249 0)
(-0.000280421 -0.000431054 0)
(-0.000269774 -0.00037118 0)
(-0.00025341 -0.000314059 0)
(-0.000231262 -0.0002609 0)
(-0.000203043 -0.000212641 0)
(-0.000168275 -0.000169811 0)
(-0.000126449 -0.000132577 0)
(-7.7278e-05 -0.000100968 0)
(-2.09373e-05 -7.51054e-05 0)
(4.1853e-05 -5.53023e-05 0)
(0.000110025 -4.19619e-05 0)
(0.000182523 -3.53521e-05 0)
(0.000258523 -3.54234e-05 0)
(0.000337281 -4.18142e-05 0)
(0.000417713 -5.40344e-05 0)
(0.000498124 -7.16645e-05 0)
(0.000576439 -9.43902e-05 0)
(0.000650757 -0.00012186 0)
(0.000719696 -0.000153548 0)
(0.000782141 -0.000188809 0)
(0.000836678 -0.000227093 0)
(0.000881421 -0.000268086 0)
(0.000914539 -0.000311583 0)
(0.000935001 -0.000357237 0)
(0.000942735 -0.000404473 0)
(0.000938094 -0.000452682 0)
(0.000921284 -0.000501409 0)
(0.000892547 -0.000550308 0)
(0.000852599 -0.000598949 0)
(0.000802594 -0.000646826 0)
(0.000743691 -0.000693613 0)
(0.000676989 -0.000739209 0)
(0.000603953 -0.000783458 0)
(0.000526532 -0.000825986 0)
(0.000446688 -0.000866413 0)
(0.000366153 -0.000904426 0)
(0.0002867 -0.000939444 0)
(0.000210174 -0.000970544 0)
(0.000138197 -0.000996878 0)
(7.21419e-05 -0.00101767 0)
(1.31117e-05 -0.00103184 0)
(-3.81382e-05 -0.00103847 0)
(-8.09514e-05 -0.00103705 0)
(-0.00011494 -0.001027 0)
(-0.000140022 -0.00100811 0)
(-0.00015615 -0.000980405 0)