/*--------------------------------*- C++ -*----------------------------------*\
| =========                 |                                                 |
| \\      /  F ield         | OpenFOAM: The Open Source CFD Toolbox           |
|  \\    /   O peration     | Version:  2406                                  |
|   \\  /    A nd           | Website:  www.openfoam.com                      |
|    \\/     M anipulation  |                                                 |
\*---------------------------------------------------------------------------*/
FoamFile
{
    version     2.0;
    format      ascii;
    arch        "LSB;label=32;scalar=64";
    class       surfaceScalarField;
    location    "4";
    object      alphaPhi0.grout;
}
// * * * * * * * * * * * * * * * * * * * * * * * * * * * * * * * * * * * * * //

dimensions      [0 3 -1 0 0 0 0];

oriented        oriented;

internalField   nonuniform List<scalar> 
19800
(
3.08395e-15
2.60873e-13
4.04982e-14
3.85832e-13
7.13227e-14
4.13524e-13
1.28385e-13
4.5298e-13
1.73086e-13
5.2314e-13
2.4928e-13
6.32786e-13
3.00324e-13
7.49196e-13
2.81227e-13
8.41275e-13
2.65379e-13
8.99345e-13
3.06711e-13
9.03476e-13
3.31456e-13
8.40511e-13
2.47548e-13
7.42444e-13
6.76161e-14
6.64635e-13
-1.18508e-13
6.30612e-13
-2.46901e-13
6.1925e-13
-3.22032e-13
6.0006e-13
-3.7693e-13
5.65085e-13
-4.23096e-13
5.26534e-13
-4.43772e-13
4.96701e-13
-4.19504e-13
4.77395e-13
-3.48413e-13
4.64947e-13
-2.44298e-13
4.58636e-13
-1.23397e-13
4.62229e-13
4.01658e-15
4.79147e-13
1.32424e-13
5.07705e-13
2.55475e-13
5.40723e-13
3.62326e-13
5.69299e-13
4.3863e-13
5.87706e-13
4.71462e-13
5.96224e-13
4.55196e-13
6.00244e-13
3.9474e-13
6.06343e-13
3.04037e-13
6.17909e-13
2.00566e-13
6.33098e-13
9.88843e-14
6.46339e-13
6.62192e-15
6.52334e-13
-7.53223e-14
6.49946e-13
-1.49223e-13
6.43531e-13
-2.16378e-13
6.40914e-13
-2.75099e-13
6.49324e-13
-3.21728e-13
6.7176e-13
-3.53406e-13
7.05744e-13
-3.70386e-13
7.44832e-13
-3.76357e-13
7.81721e-13
-3.76687e-13
8.11152e-13
-3.75677e-13
8.31293e-13
-3.74322e-13
8.43336e-13
-3.69682e-13
8.49942e-13
-3.56082e-13
8.53633e-13
-3.27423e-13
8.55933e-13
-2.79481e-13
8.57455e-13
-2.11311e-13
8.58561e-13
-1.25558e-13
8.60023e-13
-2.80241e-14
8.63349e-13
7.30935e-14
8.70704e-13
1.68124e-13
8.84516e-13
2.47047e-13
9.06828e-13
3.00748e-13
9.3847e-13
3.22114e-13
9.78312e-13
3.06692e-13
1.023e-12
2.52946e-13
1.06754e-12
1.6244e-13
1.10658e-12
4.02496e-14
1.13593e-12
-1.04492e-13
1.15361e-12
-2.58486e-13
1.16e-12
-4.05182e-13
1.15729e-12
-5.26841e-13
1.14872e-12
-6.07222e-13
1.1381e-12
-6.34088e-13
1.12954e-12
-6.0087e-13
1.1273e-12
-5.07375e-13
1.13525e-12
-3.59792e-13
1.15614e-12
-1.70283e-13
1.19084e-12
4.38038e-14
1.2381e-12
2.6129e-13
1.29475e-12
4.59261e-13
1.3565e-12
6.15778e-13
1.41858e-12
7.12776e-13
1.47626e-12
7.38542e-13
1.52512e-12
6.89351e-13
1.56113e-12
5.70051e-13
1.5811e-12
3.93739e-13
1.58319e-12
1.80676e-13
1.56737e-12
-4.34259e-14
1.53534e-12
-2.49936e-13
1.48974e-12
-4.10753e-13
1.43299e-12
-5.02658e-13
1.36676e-12
-5.116e-13
1.2926e-12
-4.35703e-13
1.21398e-12
-2.85352e-13
1.13761e-12
-8.03361e-14
1.07276e-12
1.54914e-13
1.02713e-12
3.9515e-13
1.00219e-12
6.15873e-13
9.9059e-13
7.93236e-13
9.78503e-13
9.06255e-13
9.51097e-13
9.41594e-13
9.02453e-13
8.94866e-13
8.49148e-13
7.48412e-13
8.32168e-13
4.62024e-13
8.39557e-13
5.88846e-13
-1.15715e-14
6.63327e-13
7.32013e-14
1.00141e-12
1.31862e-13
1.05005e-12
2.43659e-13
1.14908e-12
3.54737e-13
1.251e-12
4.62408e-13
1.36133e-12
5.05044e-13
1.49714e-12
4.54976e-13
1.61455e-12
3.94787e-13
1.64803e-12
3.94534e-13
1.57834e-12
3.96823e-13
1.4443e-12
3.01739e-13
1.30945e-12
9.82511e-14
1.21515e-12
-1.32818e-13
1.15872e-12
-3.13006e-13
1.11353e-12
-4.2762e-13
1.06309e-12
-5.03397e-13
1.01313e-12
-5.56395e-13
9.7815e-13
-5.73471e-13
9.65203e-13
-5.33008e-13
9.71904e-13
-4.2975e-13
9.94362e-13
-2.78689e-13
1.0326e-12
-1.02511e-13
1.08816e-12
8.01158e-14
1.15832e-12
2.56765e-13
1.23346e-12
4.17076e-13
1.29993e-12
5.48724e-13
1.34626e-12
6.37173e-13
1.36827e-12
6.69325e-13
1.37002e-12
6.38866e-13
1.36035e-12
5.50108e-13
1.34721e-12
4.17819e-13
1.33361e-12
2.62819e-13
1.3174e-12
1.05509e-13
1.29483e-12
-3.95128e-14
1.26527e-12
-1.65396e-13
1.23396e-12
-2.71301e-13
1.21095e-12
-3.58837e-13
1.20685e-12
-4.29187e-13
1.22799e-12
-4.82456e-13
1.27363e-12
-5.18857e-13
1.33661e-12
-5.40208e-13
1.40667e-12
-5.50276e-13
1.47447e-12
-5.53554e-13
1.53444e-12
-5.53097e-13
1.58512e-12
-5.48616e-13
1.62768e-12
-5.35894e-13
1.66372e-12
-5.07927e-13
1.6938e-12
-4.57327e-13
1.71724e-12
-3.78916e-13
1.73317e-12
-2.71536e-13
1.74178e-12
-1.38666e-13
1.74506e-12
1.18843e-14
1.74692e-12
1.68721e-13
1.75248e-12
3.17845e-13
1.76704e-12
4.43976e-13
1.79482e-12
5.32326e-13
1.83783e-12
5.70609e-13
1.89519e-12
5.50814e-13
1.96327e-12
4.7035e-13
2.03671e-12
3.32581e-13
2.10998e-12
1.46967e-13
2.17881e-12
-7.10391e-14
2.2409e-12
-3.00602e-13
2.29584e-12
-5.1706e-13
2.34447e-12
-6.94637e-13
2.38844e-12
-8.09959e-13
2.42994e-12
-8.45532e-13
2.47166e-12
-7.92347e-13
2.51658e-12
-6.51149e-13
2.56731e-12
-4.32448e-13
2.62529e-12
-1.55577e-13
2.69011e-12
1.52942e-13
2.75941e-12
4.61728e-13
2.82932e-12
7.37583e-13
2.89531e-12
9.49199e-13
2.95288e-12
1.07109e-12
2.99804e-12
1.08712e-12
3.02751e-12
9.93035e-13
3.03879e-12
7.97415e-13
3.03049e-12
5.21058e-13
3.00263e-12
1.94935e-13
2.95674e-12
-1.43019e-13
2.89545e-12
-4.51776e-13
2.82134e-12
-6.91802e-13
2.73609e-12
-8.29955e-13
2.64054e-12
-8.44745e-13
2.53647e-12
-7.30613e-13
2.42886e-12
-5.00308e-13
2.32673e-12
-1.83279e-13
2.24008e-12
1.79484e-13
2.17456e-12
5.42976e-13
2.12683e-12
8.64297e-13
2.08511e-12
1.10794e-12
2.03267e-12
1.25303e-12
1.95233e-12
1.30196e-12
1.83503e-12
1.26503e-12
1.70484e-12
1.10019e-12
1.63103e-12
7.0839e-13
1.59643e-12
1.05576e-12
4.78245e-15
1.07791e-12
1.27378e-13
1.61591e-12
2.58096e-13
1.62507e-12
3.66539e-13
1.62107e-12
4.88552e-13
1.64161e-12
6.14542e-13
1.67981e-12
6.27985e-13
1.7486e-12
4.89598e-13
1.83515e-12
3.30351e-13
1.88872e-12
2.73204e-13
1.85699e-12
2.78742e-13
1.73372e-12
2.25014e-13
1.56951e-12
6.2809e-14
1.42584e-12
-1.47928e-13
1.32568e-12
-3.2189e-13
1.25481e-12
-4.2728e-13
1.19764e-12
-4.84172e-13
1.15916e-12
-5.14755e-13
1.15539e-12
-5.13656e-13
1.19422e-12
-4.60551e-13
1.26982e-12
-3.47179e-13
1.37078e-12
-1.87526e-13
1.48869e-12
-7.94741e-15
1.61891e-12
1.67383e-13
1.75572e-12
3.23519e-13
1.88829e-12
4.53333e-13
2.00099e-12
5.52404e-13
2.07778e-12
6.14777e-13
2.10788e-12
6.3228e-13
2.08961e-12
5.97803e-13
2.03054e-12
5.10483e-13
1.94396e-12
3.79338e-13
1.84376e-12
2.22675e-13
1.74054e-12
6.30663e-14
1.64074e-12
-7.97244e-14
1.54852e-12
-1.9429e-13
1.46871e-12
-2.79032e-13
1.40833e-12
-3.39448e-13
1.37563e-12
-3.83476e-13
1.37722e-12
-4.17603e-13
1.4151e-12
-4.45305e-13
1.48539e-12
-4.67615e-13
1.57934e-12
-4.84575e-13
1.68604e-12
-4.9625e-13
1.79522e-12
-5.02612e-13
1.899e-12
-5.02504e-13
1.99219e-12
-4.92589e-13
2.07142e-12
-4.67266e-13
2.13433e-12
-4.19925e-13
2.17931e-12
-3.45055e-13
2.206e-12
-2.40243e-13
2.21593e-12
-1.07375e-13
2.21281e-12
4.70393e-14
2.20221e-12
2.12099e-13
2.19091e-12
3.73172e-13
2.18625e-12
5.13195e-13
2.19542e-12
6.14863e-13
2.22461e-12
6.63458e-13
2.27792e-12
6.49526e-13
2.35648e-12
5.70562e-13
2.45814e-12
4.31356e-13
2.57809e-12
2.43392e-13
2.71008e-12
2.3863e-14
2.8477e-12
-2.05435e-13
2.98517e-12
-4.19618e-13
3.1175e-12
-5.93095e-13
3.24042e-12
-7.02835e-13
3.35056e-12
-7.31899e-13
3.4458e-12
-6.72269e-13
3.52563e-12
-5.26225e-13
3.5911e-12
-3.06104e-13
3.6441e-12
-3.2857e-14
3.68652e-12
2.66122e-13
3.71945e-12
5.59538e-13
3.74295e-12
8.15127e-13
3.75639e-12
1.003e-12
3.75893e-12
1.09926e-12
3.74985e-12
1.0894e-12
3.72855e-12
9.7084e-13
3.69443e-12
7.53779e-13
3.64705e-12
4.60281e-13
3.58678e-12
1.21561e-13
3.51571e-12
-2.25496e-13
3.43786e-12
-5.41949e-13
3.35831e-12
-7.89897e-13
3.28107e-12
-9.35951e-13
3.20735e-12
-9.55754e-13
3.13566e-12
-8.40233e-13
3.06449e-12
-6.01015e-13
2.99512e-12
-2.7157e-13
2.93197e-12
9.93721e-14
2.87926e-12
4.59041e-13
2.83776e-12
7.60606e-13
2.80395e-12
9.6958e-13
2.76979e-12
1.0756e-12
2.71841e-12
1.10839e-12
2.62556e-12
1.10956e-12
2.48838e-12
1.0323e-12
2.36126e-12
6.66207e-13
2.22006e-12
1.42161e-12
3.89329e-14
1.43392e-12
1.61132e-13
2.13399e-12
3.20997e-13
2.18923e-12
4.40455e-13
2.15573e-12
5.81811e-13
2.10802e-12
7.34099e-13
2.05462e-12
7.5676e-13
2.02702e-12
5.78779e-13
2.039e-12
3.31452e-13
2.06327e-12
1.8039e-13
2.04211e-12
1.38355e-13
1.93595e-12
9.47298e-14
1.76608e-12
-3.26333e-14
1.59318e-12
-2.17897e-13
1.46184e-12
-3.7942e-13
1.37798e-12
-4.68844e-13
1.33122e-12
-4.96293e-13
1.32161e-12
-4.90378e-13
1.36054e-12
-4.5775e-13
1.45485e-12
-3.83583e-13
1.59732e-12
-2.57457e-13
1.77124e-12
-9.01154e-14
1.95986e-12
9.13659e-14
2.151e-12
2.58476e-13
2.33537e-12
3.9223e-13
2.50273e-12
4.8561e-13
2.63983e-12
5.39839e-13
2.73156e-12
5.58404e-13
2.76473e-12
5.42548e-13
2.73276e-12
4.90748e-13
2.63885e-12
4.0221e-13
2.49591e-12
2.81708e-13
2.32309e-12
1.42162e-13
2.14063e-12
2.72127e-15
1.9655e-12
-1.17083e-13
1.80967e-12
-2.04095e-13
1.68106e-12
-2.55543e-13
1.5859e-12
-2.78406e-13
1.53012e-12
-2.85005e-13
1.51907e-12
-2.87533e-13
1.55551e-12
-2.94163e-13
1.63756e-12
-3.07921e-13
1.75792e-12
-3.27875e-13
1.90493e-12
-3.51209e-13
2.06487e-12
-3.74692e-13
2.22453e-12
-3.94801e-13
2.3729e-12
-4.06884e-13
2.50167e-12
-4.0451e-13
2.60506e-12
-3.80011e-13
2.67955e-12
-3.26299e-13
2.72405e-12
-2.39089e-13
2.74023e-12
-1.18542e-13
2.73261e-12
3.01143e-14
2.70813e-12
1.96717e-13
2.67535e-12
3.66721e-13
2.64378e-12
5.2227e-13
2.62337e-12
6.44192e-13
2.624e-12
7.14988e-13
2.65456e-12
7.22178e-13
2.72152e-12
6.60865e-13
2.82762e-12
5.34688e-13
2.97114e-12
3.55165e-13
3.14636e-12
1.40152e-13
3.34463e-12
-8.78855e-14
3.55569e-12
-3.03635e-13
3.76867e-12
-4.81138e-13
3.97272e-12
-5.96761e-13
4.15762e-12
-6.32696e-13
4.31464e-12
-5.80116e-13
4.43762e-12
-4.40986e-13
4.52369e-12
-2.28039e-13
4.57334e-12
3.692e-14
4.5897e-12
3.25691e-13
4.57737e-12
6.06714e-13
4.54133e-12
8.48126e-13
4.48636e-12
1.02086e-12
4.41686e-12
1.10186e-12
4.337e-12
1.0773e-12
4.25049e-12
9.45259e-13
4.1603e-12
7.16991e-13
4.0684e-12
4.15972e-13
3.97619e-12
7.46617e-14
3.88553e-12
-2.70233e-13
3.79995e-12
-5.82019e-13
3.72447e-12
-8.26681e-13
3.66373e-12
-9.73998e-13
3.61899e-12
-9.99998e-13
3.58649e-12
-8.92677e-13
3.55872e-12
-6.60294e-13
3.52828e-12
-3.3542e-13
3.49067e-12
3.08024e-14
3.44484e-12
3.8233e-13
3.3928e-12
6.68068e-13
3.34069e-12
8.46606e-13
3.29489e-12
9.02584e-13
3.24845e-12
8.79523e-13
3.17172e-12
8.56384e-13
3.03921e-12
8.19788e-13
2.88066e-12
5.13015e-13
2.65535e-12
1.6793e-12
8.70498e-14
1.5412e-12
2.55579e-13
2.34939e-12
3.82083e-13
2.47497e-12
4.72442e-13
2.48298e-12
6.0889e-13
2.44652e-12
7.89059e-13
2.36066e-12
8.47326e-13
2.25927e-12
6.74888e-13
2.18559e-12
3.75566e-13
2.15202e-12
1.31411e-13
2.11406e-12
1.15954e-14
2.012e-12
-5.51046e-14
1.83885e-12
-1.61814e-13
1.64567e-12
-3.17084e-13
1.48848e-12
-4.55852e-13
1.38857e-12
-5.21732e-13
1.34079e-12
-5.14254e-13
1.34126e-12
-4.65027e-13
1.39702e-12
-3.92976e-13
1.51456e-12
-2.92287e-13
1.68755e-12
-1.53098e-13
1.89724e-12
1.78943e-14
2.12127e-12
1.96348e-13
2.34113e-12
3.52768e-13
2.54388e-12
4.64876e-13
2.71997e-12
5.23293e-13
2.86022e-12
5.30703e-13
2.95413e-12
4.96927e-13
2.99072e-12
4.32893e-13
2.96175e-12
3.46676e-13
2.86586e-12
2.43419e-13
2.71142e-12
1.28381e-13
2.51605e-12
1.03737e-14
2.30281e-12
-9.73376e-14
2.09476e-12
-1.79918e-13
1.91046e-12
-2.26324e-13
1.76229e-12
-2.3406e-13
1.65751e-12
-2.10554e-13
1.60059e-12
-1.70441e-13
1.59457e-12
-1.30328e-13
1.6408e-12
-1.0365e-13
1.73734e-12
-9.76636e-14
1.87754e-12
-1.13246e-13
2.04989e-12
-1.46732e-13
2.23965e-12
-1.92206e-13
2.43136e-12
-2.4283e-13
2.6113e-12
-2.9084e-13
2.76877e-12
-3.2703e-13
2.89632e-12
-3.41008e-13
2.98946e-12
-3.22836e-13
3.0465e-12
-2.65474e-13
3.06879e-12
-1.66847e-13
3.06085e-12
-3.07291e-14
3.03002e-12
1.33482e-13
2.98553e-12
3.11512e-13
2.93761e-12
4.85218e-13
2.8969e-12
6.34171e-13
2.87427e-12
7.38268e-13
2.88032e-12
7.81182e-13
2.92441e-12
7.53681e-13
3.01294e-12
6.55617e-13
3.14798e-12
4.96022e-13
3.32659e-12
2.91663e-13
3.54135e-12
6.494e-14
3.78156e-12
-1.58299e-13
4.03444e-12
-3.51053e-13
4.28608e-12
-4.87961e-13
4.52221e-12
-5.48705e-13
4.72919e-12
-5.21452e-13
4.89541e-12
-4.0535e-13
5.01284e-12
-2.11219e-13
5.07799e-12
3.97778e-14
5.09202e-12
3.19002e-13
5.05976e-12
5.93925e-13
4.98833e-12
8.31724e-13
4.88577e-12
1.00257e-12
4.76039e-12
1.08273e-12
4.62041e-12
1.05754e-12
4.47387e-12
9.24288e-13
4.32809e-12
6.93999e-13
4.18898e-12
3.91118e-13
4.06058e-12
5.00137e-14
3.9457e-12
-2.90907e-13
3.84719e-12
-5.95406e-13
3.76903e-12
-8.32721e-13
3.71548e-12
-9.77518e-13
3.68835e-12
-1.00907e-12
3.68379e-12
-9.15019e-13
3.69169e-12
-7.00013e-13
3.69805e-12
-3.92525e-13
3.68875e-12
-3.9871e-14
3.65291e-12
3.05051e-13
3.58824e-12
5.8971e-13
3.50731e-12
7.58902e-13
3.43417e-12
7.76265e-13
3.38022e-12
6.8052e-13
3.32086e-12
5.85439e-13
3.21516e-12
5.33955e-13
3.06576e-12
3.02829e-13
2.81372e-12
1.78083e-12
1.94667e-13
1.40633e-12
4.32831e-13
2.20845e-12
5.0027e-13
2.37194e-12
5.23701e-13
2.44415e-12
6.07876e-13
2.46501e-12
7.74182e-13
2.40256e-12
8.5592e-13
2.27274e-12
7.13431e-13
2.13344e-12
3.99842e-13
2.0345e-12
8.39814e-14
1.95956e-12
-1.17662e-13
1.84875e-12
-2.22449e-13
1.6751e-12
-3.15528e-13
1.47299e-12
-4.34528e-13
1.29828e-12
-5.38533e-13
1.1817e-12
-5.71284e-13
1.12389e-12
-5.22751e-13
1.1192e-12
-4.24438e-13
1.17084e-12
-3.06277e-13
1.28449e-12
-1.73879e-13
1.45571e-12
-2.11418e-14
1.66672e-12
1.48468e-13
1.8932e-12
3.15758e-13
2.11246e-12
4.54278e-13
2.3077e-12
5.41663e-13
2.4682e-12
5.6661e-13
2.58747e-12
5.30651e-13
2.66082e-12
4.45763e-13
2.68379e-12
3.29347e-13
2.65233e-12
1.98837e-13
2.56528e-12
6.8323e-14
2.42746e-12
-5.18127e-14
2.25163e-12
-1.53086e-13
2.05725e-12
-2.27033e-13
1.86665e-12
-2.65295e-13
1.70003e-12
-2.62182e-13
1.57196e-12
-2.18248e-13
1.49056e-12
-1.42435e-13
1.45904e-12
-5.10754e-14
1.47779e-12
3.60849e-14
1.54548e-12
1.01127e-13
1.65865e-12
1.32272e-13
1.81058e-12
1.25721e-13
1.99056e-12
8.47968e-14
2.1847e-12
1.74755e-14
2.37798e-12
-6.59718e-14
2.55688e-12
-1.54088e-13
2.71105e-12
-2.3426e-13
2.83386e-12
-2.92883e-13
2.92187e-12
-3.16754e-13
2.97432e-12
-2.95618e-13
2.99298e-12
-2.24719e-13
2.98243e-12
-1.06127e-13
2.94992e-12
5.14815e-14
2.90457e-12
2.33977e-13
2.85626e-12
4.23107e-13
2.81465e-12
5.97914e-13
2.78892e-12
7.36764e-13
2.78788e-12
8.20335e-13
2.81976e-12
8.35122e-13
2.89131e-12
7.7629e-13
3.00639e-12
6.48819e-13
3.16483e-12
4.66702e-13
3.3622e-12
2.50842e-13
3.59039e-12
2.65228e-14
3.83857e-12
-1.79095e-13
4.09405e-12
-3.39631e-13
4.34275e-12
-4.32568e-13
4.56986e-12
-4.42662e-13
4.76098e-12
-3.64941e-13
4.90377e-12
-2.06332e-13
4.9898e-12
1.47835e-14
5.01571e-12
2.71035e-13
4.98331e-12
5.29899e-13
4.89856e-12
7.57916e-13
4.77017e-12
9.24538e-13
4.60826e-12
1.0053e-12
4.42373e-12
9.84608e-13
4.22794e-12
8.58333e-13
4.03233e-12
6.36027e-13
3.84747e-12
3.4137e-13
3.6818e-12
9.4364e-15
3.54098e-12
-3.19798e-13
3.42849e-12
-6.09319e-13
3.34697e-12
-8.30523e-13
3.299e-12
-9.63132e-13
3.28579e-12
-9.92311e-13
3.30448e-12
-9.09086e-13
3.34589e-12
-7.17844e-13
3.39431e-12
-4.42745e-13
3.42831e-12
-1.22039e-13
3.42402e-12
2.04959e-13
3.36572e-12
4.93716e-13
3.26304e-12
6.75002e-13
3.15477e-12
6.78032e-13
3.07833e-12
5.1754e-13
3.02803e-12
3.3265e-13
2.96085e-12
2.32322e-13
2.85463e-12
8.60222e-14
2.633e-12
1.67605e-12
3.49166e-13
1.1454e-12
6.47132e-13
1.82719e-12
6.76045e-13
1.95623e-12
6.21994e-13
2.04481e-12
6.17268e-13
2.10973e-12
7.17363e-13
2.0878e-12
7.8421e-13
1.96281e-12
6.68938e-13
1.78886e-12
3.67004e-13
1.64092e-12
8.9063e-15
1.53418e-12
-2.61263e-13
1.42244e-12
-4.06223e-13
1.2678e-12
-4.89271e-13
1.0853e-12
-5.67713e-13
9.21696e-13
-6.27051e-13
8.10806e-13
-6.17831e-13
7.58048e-13
-5.23092e-13
7.57327e-13
-3.72052e-13
8.08374e-13
-2.03424e-13
9.15372e-13
-3.49112e-14
1.07551e-12
1.33113e-13
1.27355e-12
2.98308e-13
1.48609e-12
4.46862e-13
1.68908e-12
5.58121e-13
1.86287e-12
6.13641e-13
1.99418e-12
6.03515e-13
2.07626e-12
5.28918e-13
2.10784e-12
4.01725e-13
2.09102e-12
2.41657e-13
2.0292e-12
7.17341e-14
1.92651e-12
-8.64463e-14
1.78905e-12
-2.15992e-13
1.62689e-12
-3.05719e-13
1.45499e-12
-3.49294e-13
1.29164e-12
-3.44001e-13
1.15498e-12
-2.90638e-13
1.05916e-12
-1.94822e-13
1.0122e-12
-6.84602e-14
1.01615e-12
7.03376e-14
1.06886e-12
1.99795e-13
1.1659e-12
2.98944e-13
1.3013e-12
3.52393e-13
1.46713e-12
3.5351e-13
1.65284e-12
3.04845e-13
1.8453e-12
2.1605e-13
2.03033e-12
1.00797e-13
2.19505e-12
-2.55712e-14
2.33004e-12
-1.46987e-13
2.43018e-12
-2.46945e-13
2.49417e-12
-3.09507e-13
2.52347e-12
-3.21619e-13
2.52161e-12
-2.75982e-13
2.4942e-12
-1.72999e-13
2.44901e-12
-2.08773e-14
2.39554e-12
1.65825e-13
2.34379e-12
3.68183e-13
2.30289e-12
5.64704e-13
2.28037e-12
7.33092e-13
2.28221e-12
8.52577e-13
2.31333e-12
9.06969e-13
2.3777e-12
8.8776e-13
2.4777e-12
7.96056e-13
2.61322e-12
6.42591e-13
2.78107e-12
4.45938e-13
2.97509e-12
2.29804e-13
3.18686e-12
2.02352e-14
3.4064e-12
-1.56972e-13
3.62244e-12
-2.78893e-13
3.82252e-12
-3.28354e-13
3.99339e-12
-2.96864e-13
4.1221e-12
-1.86829e-13
4.19786e-12
-1.21659e-14
4.214e-12
2.03207e-13
4.16917e-12
4.28791e-13
4.06743e-12
6.32009e-13
3.91711e-12
7.82646e-13
3.72927e-12
8.56459e-13
3.5164e-12
8.37776e-13
3.29183e-12
7.21643e-13
3.06939e-12
5.15717e-13
2.86272e-12
2.41342e-13
2.68381e-12
-6.81351e-14
2.54138e-12
-3.73026e-13
2.44004e-12
-6.3606e-13
2.38108e-12
-8.296e-13
2.36383e-12
-9.37224e-13
2.38644e-12
-9.50151e-13
2.44518e-12
-8.66137e-13
2.53313e-12
-6.94947e-13
2.63789e-12
-4.61981e-13
2.7375e-12
-1.95801e-13
2.79811e-12
8.83458e-14
2.78554e-12
3.70851e-13
2.69368e-12
5.78277e-13
2.56374e-12
5.98322e-13
2.45669e-12
4.03246e-13
2.39537e-12
1.39115e-13
2.35095e-12
-2.27921e-14
2.28773e-12
-9.44949e-14
2.12279e-12
1.35412e-12
4.91673e-13
8.31562e-13
8.11872e-13
1.30801e-12
8.45792e-13
1.34395e-12
7.43018e-13
1.38404e-12
6.4714e-13
1.44316e-12
6.46046e-13
1.44226e-12
6.59237e-13
1.33312e-12
5.56632e-13
1.15184e-12
2.82706e-13
9.81321e-13
-8.61653e-14
8.62087e-13
-4.01095e-13
7.67943e-13
-5.79216e-13
6.58459e-13
-6.54013e-13
5.30713e-13
-6.91742e-13
4.17006e-13
-7.02214e-13
3.48034e-13
-6.47242e-13
3.31016e-13
-5.0599e-13
3.59134e-13
-3.04208e-13
4.28875e-13
-8.67359e-14
5.42507e-13
1.17463e-13
6.98465e-13
3.00155e-13
8.84642e-13
4.57885e-13
1.0807e-12
5.8078e-13
1.26426e-12
6.54375e-13
1.41535e-12
6.66734e-13
1.51855e-12
6.13265e-13
1.56455e-12
4.98208e-13
1.55122e-12
3.34367e-13
1.48313e-12
1.41765e-13
1.3694e-12
-5.5017e-14
1.22098e-12
-2.30787e-13
1.0492e-12
-3.64101e-13
8.66015e-13
-4.40586e-13
6.84989e-13
-4.54078e-13
5.21492e-13
-4.05719e-13
3.91133e-13
-3.02326e-13
3.06932e-13
-1.55417e-13
2.76726e-13
1.89135e-14
3.02177e-13
2.00215e-13
3.79651e-13
3.65215e-13
5.021e-13
4.91153e-13
6.60692e-13
5.60244e-13
8.4536e-13
5.6362e-13
1.04448e-12
5.03049e-13
1.24462e-12
3.89692e-13
1.43136e-12
2.40754e-13
1.59129e-12
7.59199e-14
1.71442e-12
-8.48717e-14
1.7957e-12
-2.2227e-13
1.83497e-12
-3.18185e-13
1.83563e-12
-3.57524e-13
1.80341e-12
-3.30959e-13
1.74571e-12
-2.3742e-13
1.67168e-12
-8.48534e-14
1.5921e-12
1.11132e-13
1.51841e-12
3.29872e-13
1.46109e-12
5.48293e-13
1.42819e-12
7.43048e-13
1.42469e-12
8.92501e-13
1.45295e-12
9.79129e-13
1.51336e-12
9.92264e-13
1.60468e-12
9.3032e-13
1.72382e-12
8.01441e-13
1.86552e-12
6.22201e-13
2.02245e-12
4.14858e-13
2.18595e-12
2.04207e-13
2.34699e-12
1.47812e-14
2.49666e-12
-1.31448e-13
2.62622e-12
-2.17203e-13
2.72668e-12
-2.32128e-13
2.78892e-12
-1.74898e-13
2.80455e-12
-5.45062e-14
2.76761e-12
1.10075e-13
2.67641e-12
2.92259e-13
2.53453e-12
4.61922e-13
2.35058e-12
5.90169e-13
2.13669e-12
6.53539e-13
1.90675e-12
6.36926e-13
1.67501e-12
5.35269e-13
1.45566e-12
3.54774e-13
1.26252e-12
1.13725e-13
1.10823e-12
-1.58237e-13
1.00243e-12
-4.24483e-13
9.5009e-13
-6.4932e-13
9.50816e-13
-8.0612e-13
9.99794e-13
-8.80108e-13
1.08953e-12
-8.6601e-13
1.21208e-12
-7.6773e-13
1.36103e-12
-6.05073e-13
1.53038e-12
-4.13763e-13
1.70601e-12
-2.20315e-13
1.85407e-12
-1.19946e-14
1.9255e-12
2.34059e-13
1.89071e-12
4.60339e-13
1.77649e-12
5.17891e-13
1.65285e-12
3.25448e-13
1.56939e-12
1.3906e-14
1.52161e-12
-2.00243e-13
1.47389e-12
-2.21793e-13
1.35654e-12
8.51975e-13
5.59741e-13
4.89158e-13
8.60889e-13
7.22124e-13
9.37603e-13
6.5797e-13
8.35484e-13
6.19043e-13
6.7839e-13
6.31151e-13
5.7314e-13
6.20798e-13
5.12527e-13
5.20033e-13
4.09836e-13
3.41977e-13
1.75136e-13
1.62135e-13
-1.73828e-13
3.60008e-14
-5.0369e-13
-4.13355e-14
-7.007e-13
-1.05069e-13
-7.66646e-13
-1.70785e-13
-7.6706e-13
-2.21344e-13
-7.31297e-13
-2.33124e-13
-6.34167e-13
-2.00389e-13
-4.53272e-13
-1.31901e-13
-2.09995e-13
-3.44807e-14
4.73599e-14
9.22853e-14
2.80407e-13
2.47907e-13
4.73078e-13
4.23417e-13
6.19476e-13
6.02371e-13
7.11633e-13
7.66278e-13
7.39505e-13
8.98124e-13
6.97358e-13
9.83312e-13
5.87862e-13
1.01074e-12
4.21923e-13
9.75092e-13
2.16712e-13
8.78686e-13
-6.08168e-15
7.31131e-13
-2.21722e-13
5.46754e-13
-4.04665e-13
3.41438e-13
-5.32123e-13
1.30589e-13
-5.88141e-13
-7.12309e-14
-5.66417e-13
-2.49857e-13
-4.70638e-13
-3.91633e-13
-3.12684e-13
-4.84761e-13
-1.1013e-13
-5.21384e-13
1.15682e-13
-4.99173e-13
3.40876e-13
-4.21474e-13
5.40352e-13
-2.95995e-13
6.90132e-13
-1.3292e-13
7.70983e-13
5.64614e-14
7.72443e-13
2.60047e-13
6.9553e-13
4.64595e-13
5.52635e-13
6.55808e-13
3.6449e-13
8.19623e-13
1.55735e-13
9.44501e-13
-4.88256e-14
1.02357e-12
-2.26184e-13
1.05541e-12
-3.55901e-13
1.04325e-12
-4.21173e-13
9.93369e-13
-4.1102e-13
9.13825e-13
-3.22942e-13
8.14206e-13
-1.64449e-13
7.05728e-13
4.7689e-14
6.00852e-13
2.9022e-13
5.11904e-13
5.36953e-13
4.49169e-13
7.61843e-13
4.19403e-13
9.41313e-13
4.2542e-13
1.05632e-12
4.66586e-13
1.09458e-12
5.39547e-13
1.05264e-12
6.38607e-13
9.36938e-13
7.55797e-13
7.63008e-13
8.81141e-13
5.52885e-13
1.00354e-12
3.31571e-13
1.11214e-12
1.23646e-13
1.19771e-12
-4.92724e-14
1.25312e-12
-1.70257e-13
1.27312e-12
-2.28413e-13
1.25351e-12
-2.20201e-13
1.19079e-12
-1.50608e-13
1.08268e-12
-3.35778e-14
9.29513e-13
1.09064e-13
7.3579e-13
2.50573e-13
5.10855e-13
3.63709e-13
2.68095e-13
4.25478e-13
2.29677e-14
4.20786e-13
-2.09097e-13
3.44369e-13
-4.13962e-13
2.01332e-13
-5.79028e-13
7.17892e-15
-6.9335e-13
-2.13011e-13
-7.48488e-13
-4.27707e-13
-7.40252e-13
-6.05463e-13
-6.70329e-13
-7.21923e-13
-5.46976e-13
-7.62538e-13
-3.83807e-13
-7.20801e-13
-1.95859e-13
-6.0163e-13
7.08239e-15
-4.34149e-13
2.24216e-13
-2.72767e-13
4.54903e-13
-1.55767e-13
6.77642e-13
-4.9976e-14
8.41437e-13
1.19347e-13
8.96435e-13
3.33344e-13
8.43609e-13
4.24211e-13
7.41492e-13
2.58893e-13
6.51348e-13
-6.49167e-14
5.90697e-13
-3.07139e-13
5.32301e-13
-3.02789e-13
4.39555e-13
2.38697e-13
5.28508e-13
1.23022e-13
7.87057e-13
1.17192e-13
9.21214e-13
-8.10897e-15
8.62772e-13
-1.09338e-13
6.84709e-13
-1.5164e-13
4.94689e-13
-1.86721e-13
3.58131e-13
-2.85374e-13
2.46497e-13
-4.54978e-13
5.57622e-14
-6.37846e-13
-2.49005e-13
-7.74847e-13
-5.63909e-13
-8.52458e-13
-7.60703e-13
-8.95019e-13
-8.12895e-13
-9.2326e-13
-7.78868e-13
-9.31274e-13
-7.02266e-13
-9.02532e-13
-5.70694e-13
-8.34248e-13
-3.61104e-13
-7.38225e-13
-8.93288e-14
-6.24957e-13
1.95433e-13
-4.95813e-13
4.47376e-13
-3.5009e-13
6.43527e-13
-1.93818e-13
7.75589e-13
-3.98552e-14
8.36486e-13
9.76717e-14
8.18358e-13
2.06899e-13
7.19074e-13
2.77776e-13
5.47249e-13
3.01097e-13
3.21506e-13
2.69911e-13
6.63043e-14
1.82543e-13
-1.9195e-13
4.46182e-14
-4.26967e-13
-1.31598e-13
-6.13721e-13
-3.30084e-13
-7.30379e-13
-5.34375e-13
-7.61544e-13
-7.29633e-13
-7.01565e-13
-9.03057e-13
-5.56059e-13
-1.04348e-12
-3.40827e-13
-1.14138e-12
-7.89177e-14
-1.18978e-12
2.02689e-13
-1.18566e-12
4.75727e-13
-1.13076e-12
7.12538e-13
-1.03114e-12
8.87934e-13
-8.95668e-13
9.81828e-13
-7.34293e-13
9.82682e-13
-5.57204e-13
8.9062e-13
-3.75034e-13
7.18458e-13
-1.99445e-13
4.89591e-13
-4.29323e-14
2.33381e-13
8.26973e-14
-1.98794e-14
1.68598e-13
-2.42488e-13
2.10577e-13
-4.10871e-13
2.09228e-13
-5.063e-13
1.68674e-13
-5.16247e-13
9.50331e-14
-4.36654e-13
-4.3244e-15
-2.73948e-13
-1.20587e-13
-4.52222e-14
-2.43197e-13
2.24071e-13
-3.60363e-13
5.04079e-13
-4.60602e-13
7.64683e-13
-5.34642e-13
9.78732e-13
-5.76724e-13
1.12437e-12
-5.84893e-13
1.18697e-12
-5.60596e-13
1.16095e-12
-5.0824e-13
1.05099e-12
-4.35067e-13
8.71798e-13
-3.51062e-13
6.45944e-13
-2.68328e-13
4.00188e-13
-1.99636e-13
1.61347e-13
-1.56464e-13
-4.71391e-14
-1.47338e-13
-2.07331e-13
-1.77202e-13
-3.0775e-13
-2.47969e-13
-3.43741e-13
-3.59672e-13
-3.17778e-13
-5.11264e-13
-2.39782e-13
-7.00341e-13
-1.2692e-13
-9.21882e-13
-2.07607e-15
-1.16687e-12
1.09473e-13
-1.42201e-12
1.84683e-13
-1.67106e-12
2.07267e-13
-1.89732e-12
1.70522e-13
-2.08592e-12
7.80342e-14
-2.22495e-12
-5.71509e-14
-2.30541e-12
-2.14109e-13
-2.32105e-12
-3.67198e-13
-2.26897e-12
-4.91335e-13
-2.15122e-12
-5.67118e-13
-1.97708e-12
-5.80711e-13
-1.76423e-12
-5.2049e-13
-1.53523e-12
-3.84004e-13
-1.3073e-12
-2.02494e-13
-1.08098e-12
-5.08627e-14
-8.4381e-13
6.78081e-15
-5.96153e-13
7.00307e-15
-3.74791e-13
7.15514e-14
-2.35788e-13
2.34272e-13
-2.02943e-13
3.31942e-13
-2.44032e-13
1.94427e-13
-3.0621e-13
-1.19857e-13
-3.64187e-13
-3.65899e-13
-4.37735e-13
-3.5062e-13
-5.20231e-13
-4.0689e-13
4.1706e-13
-2.61363e-13
6.32785e-13
-4.7474e-13
8.17374e-13
-6.14192e-13
8.24057e-13
-7.39627e-13
6.56514e-13
-8.1883e-13
4.07829e-13
-8.73224e-13
2.02744e-13
-9.61776e-13
7.35785e-14
-1.10594e-12
-7.87499e-14
-1.27159e-12
-3.28495e-13
-1.40679e-12
-6.07115e-13
-1.48668e-12
-7.8603e-13
-1.52386e-12
-8.16927e-13
-1.53841e-12
-7.48361e-13
-1.52988e-12
-6.34672e-13
-1.48554e-12
-4.75778e-13
-1.40429e-12
-2.48127e-13
-1.301e-12
3.97407e-14
-1.19031e-12
3.40338e-13
-1.07564e-12
6.02159e-13
-9.54834e-13
7.96204e-13
-8.30838e-13
9.12728e-13
-7.13647e-13
9.46282e-13
-6.14334e-13
8.9044e-13
-5.40076e-13
7.43933e-13
-4.94685e-13
5.17765e-13
-4.81735e-13
2.35899e-13
-5.05723e-13
-6.9914e-14
-5.69993e-13
-3.66614e-13
-6.73519e-13
-6.2408e-13
-8.0924e-13
-8.16735e-13
-9.65124e-13
-9.24298e-13
-1.12714e-12
-9.33413e-13
-1.28232e-12
-8.40131e-13
-1.42038e-12
-6.51776e-13
-1.53369e-12
-3.86743e-13
-1.61653e-12
-7.20048e-14
-1.6647e-12
2.60734e-13
-1.67595e-12
5.78889e-13
-1.65078e-12
8.51948e-13
-1.59274e-12
1.0535e-12
-1.50767e-12
1.16309e-12
-1.40223e-12
1.16867e-12
-1.28276e-12
1.06935e-12
-1.1552e-12
8.77223e-13
-1.026e-12
6.16474e-13
-9.03059e-13
3.1948e-13
-7.95535e-13
2.11846e-14
-7.12199e-13
-2.45909e-13
-6.59396e-13
-4.54612e-13
-6.39888e-13
-5.84055e-13
-6.53239e-13
-6.20315e-13
-6.97165e-13
-5.5783e-13
-7.68614e-13
-4.01314e-13
-8.63781e-13
-1.66715e-13
-9.77326e-13
1.20113e-13
-1.10179e-12
4.27029e-13
-1.22804e-12
7.20295e-13
-1.34671e-12
9.68806e-13
-1.4498e-12
1.14711e-12
-1.53166e-12
1.23743e-12
-1.58926e-12
1.23125e-12
-1.62202e-12
1.13054e-12
-1.63197e-12
9.48025e-13
-1.62417e-12
7.05842e-13
-1.60694e-12
4.32268e-13
-1.59118e-12
1.57247e-13
-1.58863e-12
-9.20913e-14
-1.60954e-12
-2.94738e-13
-1.66077e-12
-4.37326e-13
-1.74514e-12
-5.14105e-13
-1.86222e-12
-5.26178e-13
-2.00975e-12
-4.80839e-13
-2.18471e-12
-3.91323e-13
-2.38301e-12
-2.76342e-13
-2.59816e-12
-1.58368e-13
-2.81986e-12
-6.00507e-14
-3.03402e-12
4.90773e-16
-3.22458e-12
1.37053e-14
-3.37636e-12
-1.96523e-14
-3.47754e-12
-8.91875e-14
-3.52057e-12
-1.77375e-13
-3.50155e-12
-2.63707e-13
-3.41936e-12
-3.30437e-13
-3.27579e-12
-3.66044e-13
-3.07839e-12
-3.60636e-13
-2.84463e-12
-2.9663e-13
-2.60198e-12
-1.56481e-13
-2.37698e-12
3.86494e-14
-2.17661e-12
2.00273e-13
-1.98198e-12
2.31308e-13
-1.77151e-12
1.52147e-13
-1.55587e-12
1.13959e-13
-1.37907e-12
2.02033e-13
-1.27683e-12
2.75614e-13
-1.24454e-12
1.48422e-13
-1.25171e-12
-1.53208e-13
-1.2817e-12
-3.89725e-13
-1.35532e-12
-3.7079e-13
-1.42539e-12
-1.0124e-12
2.67309e-13
-6.34923e-13
4.48152e-13
-1.0127e-12
6.68131e-13
-1.14178e-12
7.42242e-13
-1.2669e-12
6.05142e-13
-1.36851e-12
3.25356e-13
-1.43578e-12
6.63761e-14
-1.50533e-12
-8.67944e-14
-1.60458e-12
-2.14471e-13
-1.72342e-12
-4.13565e-13
-1.82525e-12
-6.49341e-13
-1.88311e-12
-8.01977e-13
-1.90253e-12
-8.07427e-13
-1.90198e-12
-7.03971e-13
-1.88289e-12
-5.55224e-13
-1.8322e-12
-3.74305e-13
-1.74729e-12
-1.37758e-13
-1.64452e-12
1.55173e-13
-1.54301e-12
4.61762e-13
-1.44913e-12
7.26316e-13
-1.3594e-12
9.13841e-13
-1.27292e-12
1.01361e-12
-1.19674e-12
1.0235e-12
-1.14042e-12
9.39961e-13
-1.109e-12
7.61874e-13
-1.10158e-12
4.99423e-13
-1.11518e-12
1.77758e-13
-1.1486e-12
-1.67074e-13
-1.20292e-12
-4.96063e-13
-1.27905e-12
-7.74122e-13
-1.37478e-12
-9.73586e-13
-1.48362e-12
-1.07509e-12
-1.59616e-12
-1.06785e-12
-1.7028e-12
-9.50529e-13
-1.79627e-12
-7.32363e-13
-1.87246e-12
-4.33273e-13
-1.92975e-12
-8.21618e-14
-1.96779e-12
2.86571e-13
-1.98663e-12
6.37371e-13
-1.98689e-12
9.37464e-13
-1.97021e-12
1.15955e-12
-1.93936e-12
1.28341e-12
-1.89743e-12
1.29727e-12
-1.84681e-12
1.19964e-12
-1.7887e-12
1.00117e-12
-1.72394e-12
7.24854e-13
-1.65454e-12
4.0345e-13
-1.5848e-12
7.42778e-14
-1.52094e-12
-2.2665e-13
-1.46947e-12
-4.68966e-13
-1.43545e-12
-6.2988e-13
-1.42185e-12
-6.94567e-13
-1.43022e-12
-6.56594e-13
-1.46189e-12
-5.19075e-13
-1.5183e-12
-2.95833e-13
-1.60033e-12
-1.10503e-14
-1.70699e-12
3.03406e-13
-1.83465e-12
6.12463e-13
-1.97735e-12
8.82629e-13
-2.12794e-12
1.08576e-12
-2.27933e-12
1.20141e-12
-2.42501e-12
1.21824e-12
-2.55932e-12
1.13501e-12
-2.67763e-12
9.6115e-13
-2.77724e-12
7.1624e-13
-2.8585e-12
4.27839e-13
-2.92548e-12
1.27519e-13
-2.98558e-12
-1.54084e-13
-3.04763e-12
-3.91857e-13
-3.11942e-12
-5.69131e-13
-3.20558e-12
-6.78313e-13
-3.30706e-12
-7.19629e-13
-3.42212e-12
-6.99212e-13
-3.54808e-12
-6.27774e-13
-3.68235e-12
-5.2022e-13
-3.82204e-12
-3.95271e-13
-3.96225e-12
-2.73678e-13
-4.0946e-12
-1.7448e-13
-4.20728e-12
-1.10518e-13
-4.28732e-12
-8.51351e-14
-4.32384e-12
-9.15022e-14
-4.31056e-12
-1.14834e-13
-4.24609e-12
-1.37969e-13
-4.1319e-12
-1.49311e-13
-3.97013e-12
-1.47123e-13
-3.76491e-12
-1.30246e-13
-3.52888e-12
-7.89489e-14
-3.28871e-12
4.2977e-14
-3.07823e-12
2.37033e-13
-2.91589e-12
4.15574e-13
-2.78663e-12
4.52038e-13
-2.65521e-12
3.36917e-13
-2.50422e-12