/*--------------------------------*- C++ -*----------------------------------*\
| =========                 |                                                 |
| \\      /  F ield         | OpenFOAM: The Open Source CFD Toolbox           |
|  \\    /   O peration     | Version:  2406                                  |
|   \\  /    A nd           | Website:  www.openfoam.com                      |
|    \\/     M anipulation  |                                                 |
\*---------------------------------------------------------------------------*/
FoamFile
{
    version     2.0;
    format      ascii;
    arch        "LSB;label=32;scalar=64";
    class       volScalarField;
    location    "4";
    object      alpha.grout;
}
// * * * * * * * * * * * * * * * * * * * * * * * * * * * * * * * * * * * * * //

dimensions      [0 0 0 0 0 0 0];

internalField   nonuniform List<scalar> 
10000
(
1
1
1
1
1
1
1
1
1
1
1
1
1
1
1
1
1
1
1
1
1
1
1
1
1
1
1
1
1
1
1
1
1
1
1
1
1
1
1
1
1
1
1
1
1
1
1
1
1
1
1
1
1
1
1
1
1
1
1
1
1
1
1
1
1
1
1
1
1
1
1
1
1
1
1
1
1
1
1
1
1
1
1
1
1
1
1
1
1
1
1
1
1
1
1
1
1
1
1
1
1
1
1
1
1
1
1
1
1
1
1
1
1
1
1
1
1
1
1
1
1
1
1
1
1
1
1
1
1
1
1
1
1
1
1
1
1
1
1
1
1
1
1
1
1
1
1
1
1
1
1
1
1
1
1
1
1
1
1
1
1
1
1
1
1
1
1
1
1
1
1
1
0.999999
1
1
1
1
1
1
1
1
1
1
1
1
1
1
1
1
1
1
1
1
1
1
1
1
1
1
1
1
1
1
1
1
1
1
1
1
1
1
1
1
1
1
1
1
1
1
1
1
1
1
1
1
1
1
1
1
1
1
1
1
1
1
1
1
1
1
1
1
1
1
1
1
1
1
1
1
1
1
1
1
1
1
1
1
1
1
1
1
1
1
1
1
1
1
1
1
1
0.999999
0.999999
0.999999
1
1
1
1
1
1
1
1
1
1
1
1
1
1
1
1
1
1
1
1
1
1
1
1
1
1
1
1
1
1
1
1
1
1
1
1
1
1
1
1
1
1
1
1
1
1
1
1
1
1
1
1
1
1
1
1
1
1
1
1
1
1
1
1
1
1
1
1
1
1
1
1
1
1
1
1
1
1
1
1
1
1
1
1
1
1
1
1
1
1
1
1
1
1
1
1
0.999999
0.999999
0.999999
0.999999
0.999999
1
1
1
1
1
1
1
1
1
1
1
1
1
1
1
1
1
1
1
1
1
1
1
1
1
1
1
1
1
1
1
1
1
1
1
1
1
1
1
1
1
1
1
1
1
1
1
1
1
1
1
1
1
1
1
1
1
1
1
1
1
1
1
1
1
1
1
1
1
1
1
1
1
1
1
1
1
1
1
1
1
1
1
1
1
1
1
1
1
1
1
1
1
1
1
1
1
1
1
1
1
1
1
1
1
1
1
1
1
1
1
1
1
1
1
1
1
1
1
1
1
1
1
1
1
1
1
1
1
1
1
1
1
1
1
1
1
1
1
1
1
1
1
1
1
1
1
1
1
1
1
1
1
1
1
1
1
1
1
1
1
1
1
1
1
1
1
1
1
1
1
1
1
1
1
1
1
1
1
1
1
1
1
1
1
1
1
1
1
1
1
1
1
1
1
1
1
1
1
1
1
1
1
1
1
1
1
1
1
1
1
1
1
1
1
1
1
1
1
1
1
1
1
1
1
1
1
1
1
1
1
1
1
1
1
1
1
1
1
1
1
1
1
1
1
1
1
1
1
1
1
1
1
1
1
1
1
1
1
1
1
1
1
1
1
1
1
1
1
1
1
1
1
1
1
1
1
1
1
1
1
1
1
1
1
1
1
1
1
1
1
1
1
1
1
1
1
1
1
1
1
1
1
1
1
1
1
1
1
1
1
1
1
1
1
1
1
1
1
1
1
1
1
1
1
1
1
1
1
1
1
1
1
1
1
1
1
1
1
1
1
1
1
1
1
1
1
1
1
1
1
1
1
1
1
1
1
1
1
1
1
1
1
1
1
1
1
1
1
1
1
1
1
1
1
1
1
1
1
1
1
1
1
1
1
1
1
1
1
1
1
1
1
1
1
1
1
1
1
1
1
1
1
1
1
1
1
1
1
1
1
1
1
1
1
1
1
1
1
1
1
1
1
1
1
1
1
1
1
1
1
1
1
1
1
1
1
1
1
1
1
1
1
1
1
1
1
1
1
1
1
1
1
1
1
1
1
1
1
1
1
1
1
1
1
1
1
1
1
1
1
1
1
1
1
1
1
1
1
1
1
1
1
1
1
1
1
1
1
1
1
1
1
1
1
1
1
1
1
1
1
1
1
1
1
1
1
1
1
1
1
1
1
1
1
1
1
1
1
1
1
1
1
1
1
1
1
1
1
1
1
1
1
1
1
1
1
1
1
1
1
1
1
1
1
1
1
1
1
1
1
1
1
1
1
1
1
1
1
1
1
1
1
1
1
1
1
1
1
1
1
1
1
1
1
1
1
1
1
1
1
1
1
1
1
1
1
1
1
1
1
1
1
1
1
1
1
1
1
1
1
1
1
1
1
1
1
1
1
1
1
1
1
1
1
1
1
1
1
1
1
1
1
1
1
1
1
1
1
1
1
1
1
1
1
1
1
1
1
1
1
1
1
1
1
1
1
1
1
1
1
1
1
1
1
1
1
1
1
1
1
1
1
1
1
1
1
1
1
1
1
1
1
1
1
1
1
1
1
1
1
1
1
1
1
1
1
1
1
1
1
1
1
1
1
1
1
1
1
1
1
1
1
1
1
1
1
1
1
1
1
1
1
1
1
1
1
1
1
1
1
1
1
1
1
1
1
1
1
1
1
1
1
1
1
1
1
1
1
1
1
1
1
1
1
1
1
1
1
1
1
1
1
1
1
1
1
1
1
1
1
1
1
1
1
1
1
1
1
1
1
1
1
1
1
1
1
1
1
1
1
1
1
1
1
1
1
1
1
1
1
1
1
1
1
1
1
1
1
1
1
1
1
1
1
1
1
1
1
1
1
1
1
1
1
1
1
1
1
1
1
1
1
1
1
1
1
1
1
1
1
1
1
1
1
1
1
1
1
1
1
1
1
1
1
1
1
1
1
1
1
1
1
1
1
1
1
1
1
1
1
1
1
1
1
1
1
1
1
1
1
1
1
1
1
1
1
1
1
1
1
1
1
1
1
1
1
1
1
1
1
1
1
1
1
1
1
1
1
1
1
1
1
1
1
1
1
1
1
1
1
1
1
1
1
1
1
1
1
1
1
1
1
1
1
1
1
1
1
1
1
1
1
1
1
1
1
1
1
1
1
1
1
1
1
1
1
1
1
1
1
1
1
1
1
1
1
1
1
1
1
1
1
1
1
1
1
1
1
1
1
1
1
1
1
1
1
1
1
1
1
1
1
1
1
1
1
1
1
1
1
1
1
1
1
1
1
1
1
1
1
1
1
1
1
1
1
1
1
1
1
1
1
1
1
1
1
1
1
1
1
1
1
1
1
1
1
1
1
1
1
1
1
1
1
1
1
1
1
1
1
1
1
1
1
1
1
1
1
1
1
1
1
1
1
1
1
1
1
1
1
1
1
1
1
1
1
1
1
1
1
1
1
1
1
1
1
1
1
1
1
1
1
1
1
1
1
1
1
1
1
1
1
1
1
1
1
1
1
1
1
1
1
1
1
1
1
1
1
1
1
1
1
1
1
1
1
1
1
1
1
1
1
1
1
1
1
1
1
1
1
1
1
1
1
1
1
1
1
1
1
1
1
1
1
1
1
1
1
1
1
1
1
1
1
1
1
1
1
1
1
1
1
1
1
1
1
1
1
1
1
1
1
1
1
1
1
1
1
1
1
1
1
1
1
1
1
1
1
1
1
1
1
1
1
1
1
1
1
1
1
1
1
1
1
1
1
1
1
1
1
1
1
1
1
1
1
1
1
1
1
1
1
1
1
1
1
1
1
1
1
1
1
1
1
1
1
1
1
1
1
1
1
1
1
1
1
1
1
1
1
1
1
1
1
1
1
1
1
1
1
1
1
1
1
1
1
1
1
1
1
1
1
1
1
1
1
1
1
1
1
1
1
1
1
1
1
1
1
1
1
1
1
1
1
1
1
1
1
1
1
1
1
1
1
1
1
1
1
1
1
1
1
1
1
1
1
1
1
1
1
1
1
1
1
1
1
1
1
1
1
1
1
1
1
1
1
1
1
1
1
1
1
1
1
1
1
1
1
1
1
1
1
1
1
1
1
1
1
1
1
1
1
1
1
1
1
1
1
1
1
1
1
1
1
1
1
1
1
1
1
1
1
1
1
1
1
1
1
1
1
1
1
1
1
1
1
1
1
1
1
1
1
1
1
1
1
1
1
1
1
1
1
1
1
1
1
1
1
1
1
1
1
1
1
1
1
1
1
1
1
1
1
1
1
1
1
1
1
1
1
1
1
1
1
1
1
1
1
1
1
1
1
1
1
1
1
1
1
1
1
1
1
1
1
1
1
1
1
1
1
1
1
1
1
1
1
1
1
1
1
1
1
1
1
1
1
1
1
1
1
1
1
1
1
1
1
1
1
1
1
1
1
1
1
1
1
1
1
1
1
1
1
1
1
1
1
1
1
1
1
1
1
1
1
1
1
1
1
1
1
1
1
1
1
1
1
1
1
1
1
1
1
1
1
1
1
1
1
1
1
1
1
1
1
1
1
1
1
1
1
1
1
1
1
1
1
1
1
1
1
1
1
1
1
1
1
1
1
1
1
1
1
1
1
1
1
1
1
1
1
1
1
1
1
1
1
1
1
1
1
1
1
1
1
1
1
1
1
1
1
1
1
1
1
1
1
1
1
1
1
1
1
1
1
1
1
1
1
1
1
1
1
1
1
1
1
1
1
1
1
1
1
1
1
1
1
1
1
1
1
1
1
1
1
1
1
1
1
1
1
1
1
1
1
1
1
1
1
1
1
1
1
1
1
1
1
1
1
1
1
1
1
1
1
1
1
1
1
1
1
1
1
1
1
1
1
1
1
1
1
1
1
1
1
1
1
1
1
1
1
1
1
1
1
1
1
1
1
1
1
1
1
1
1
1
1
1
1
1
1
1
1
1
1
1
1
1
1
1
1
1
1
1
1
1
1
1
1
1
1
1
1
1
1
1
1
1
1
1
1
1
1
1
1
1
1
1
1
1
1
1
1
1
1
1
1
1
1
1
1
1
1
1
1
1
1
1
1
1
1
1
1
1
1
1
1
1
1
1
1
1
1
1
1
1
1
1
1
1
1
1
1
1
1
1
1
1
1
1
1
1
1
1
1
1
1
1
1
1
1
1
1
1
1
1
1
1
1
1
1
1
1
1
1
1
1
1
1
1
1
1
1
1
1
1
1
1
1
1
1
1
1
1
1
1
1
1
1
1
1
1
1
1
1
1
1
1
1
1
1
1
1
1
1
1
1
1
1
1
1
1
1
1
1
1
1
1
1
1
1
1
1
1
1
1
1
1
1
1
1
1
1
1
1
1
1
1
1
1
1
1
1
1
1
1
1
1
1
1
1
1
1
1
1
1
1
1
1
1
1
1
1
1
1
1
1
1
1
1
1
1
1
1
1
1
1
1
1
1
1
1
1
1
1
1
1
1
1
1
1
1
1
1
1
1
1
1
1
1
1
1
1
1
1
1
1
1
1
1
1
1
1
1
1
1
1
1
1
1
1
1
1
1
1
1
1
1
1
1
1
1
1
1
1
1
1
1
1
1
1
1
1
1
1
1
1
1
1
1
1
1
1
1
1
1
1
1
1
1
1
1
1
1
1
1
1
1
1
1
1
1
1
1
1
1
1
1
1
1
1
1
1
1
1
1
1
1
1
1
1
1
1
1
1
1
1
1
1
1
1
1
1
1
1
1
1
1
1
1
1
1
1
1
1
1
1
1
1
1
1
1
1
1
1
1
1
1
1
1
1
1
1
1
1
1
1
1
1
1
1
1
1
1
1
1
1
1
1
1
1
1
1
1
1
1
1
1
1
1
1
1
1
1
1
1
1
1
1
1
1
1
1
1
1
1
1
1
1
1
1
1
1
1
1
1
1
1
1
1
1
1
1
1
1
1
1
1
1
1
1
1
1
1
1
1
1
1
1
1
1
1
1
1
1
1
1
1
1
1
1
1
1
1
1
1
1
1
1
1
1
1
1
1
1
1
1
1
1
1
1
1
1
1
1
1
1
1
1
1
1
1
1
1
1
1
1
1
1
1
1
1
1
1
1
1
1
1
1
1
1
1
1
1
1
1
1
1
1
1
1
1
1
1
1
1
1
1
1
1
1
1
1
1
1
1
1
1
1
1
1
1
1
1
1
1
1
1
1
1
1
1
1
1
1
1
1
1
1
1
1
1
1
1
1
1
1
1
1
1
1
1
1
1
1
1
1
1
1
1
1
1
1
1
1
1
1
1
1
1
1
1
1
1
1
1
1
1
1
1
1
1
1
1
1
1
1
1
1
1
1
1
1
1
1
1
1
1
1
1
1
1
1
1
1
1
1
1
1
1
1
1
1
1
1
1
1
1
1
1
1
1
1
1
1
1
1
1
1
1
1
1
1
1
1
1
1
1
1
1
1
1
1
1
1
1
1
1
1
1
1
1
1
1
1
1
1
1
1
1
1
1
1
1
1
1
1
1
1
1
1
1
1
1
1
1
1
1
1
1
1
1
1
1
1
1
1
1
1
1
1
1
1
1
1
1
1
1
1
1
1
1
1
1
1
1
1
1
1
1
1
1
1
1
1
1
1
1
1
1
1
1
1
1
1
1
1
1
1
1
1
1
1
1
1
1
1
1
1
1
1
1
1
1
1
1
1
1
1
1
1
1
1
1
1
1
1
1
1
1
1
1
1
1
1
1
1
1
1
1
1
1
1
1
1
1
1
1
1
1
1
1
1
1
1
1
1
1
1
1
1
1
1
1
1
1
1
1
1
1
1
1
1
1
1
1
1
1
1
1
1
1
1
1
1
1
1
1
1
1
1
1
1
1
1
1
1
1
1
1
1
1
1
1
1
1
1
1
1
1
1
1
1
1
1
1
1
1
1
1
1
1
1
1
1
1
1
1
1
1
1
1
1
1
1
1
1
1
1
1
1
1
1
1
1
1
1
1
1
1
1
1
1
1
1
1
1
1
1
1
1
1
1
1
1
1
1
1
1
1
1
1
1
1
1
1
1
1
1
1
1
1
1
1
1
1
1
1
1
1
1
1
1
1
1
1
1
1
1
1
1
1
1
1
1
1
1
1
1
1
1
1
1
1
1
1
1
1
1
1
1
1
1
1
1
1
1
1
1
1
1
1
1
1
1
1
1
1
1
1
1
1
1
1
1
1
1
1
1
1
1
1
1
1
1
1
1
1
1
1
1
1
1
1
1
1
1
1
1
1
1
1
1
1
1
1
1
1
1
1
1
1
1
1
1
1
1
1
1
1
1
1
1
1
1
1
1
1
1
1
1
1
1
1
1
1
1
1
1
1
1
1
1
1
1
1
1
1
1
1
1
1
1
1
1
1
1
1
1
1
1
1
1
1
1
1
1
1
1
1
1
1
1
1
1
1
1
1
1
1
1
1
1
1
1
1
1
1
1
1
1
1
1
1
1
1
1
1
1
1
1
1
1
1
1
1
1
1
1
1
1
1
1
1
1
1
1
1
1
1
1
1
1
1
1
1
1
1
1
1
1
1
1
1
1
1
1
1
1
1
1
1
1
1
1
1
1
1
1
1
1
1
1
1
1
1
1
1
1
1
1
1
1
1
1
1
1
1
1
1
1
1
1
1
1
1
1
1
1
1
1
1
1
1
1
1
1
1
1
1
1
1
1
1
1
1
1
1
1
1
1
1
1
1
1
1
1
1
1
1
1
1
1
1
1
1
1
1
1
1
1
1
1
1
1
1
1
1
1
1
1
1
1
1
1
1
1
1
1
1
1
1
1
1
1
1
1
1
1
1
1
1
1
1
1
1
1
1
1
1
1
1
1
1
1
1
1
1
1
1
1
1
1
1
1
1
1
1
1
1
1
1
1
1
1
1
1
1
1
1
1
1
1
1
1
1
1
1
1
1
1
1
1
1
1
1
1
1
1
1
1
1
1
1
1
1
1
1
1
1
1
1
1
1
1
1
1
1
1
1
1
1
1
1
1
1
1
1
1
1
1
1
1
1
1
1
1
1
1
1
1
1
1
1
1
1
1
1
1
1
1
1
1
1
1
1
1
1
1
1
1
1
1
1
1
1
1
1
1
1
1
1
1
1
1
1
1
1
1
1
1
1
1
1
1
1
1
1
1
1
1
1
1
1
1
1
1
1
1
1
1
1
1
1
1
1
1
1
1
1
1
1
1
1
1
1
1
1
1
1
1
1
1
1
1
1
1
1
1
1
1
1
1
1
1
1
1
1
1
1
1
1
1
1
1
1
1
1
1
1
1
1
1
1
1
1
1
1
1
1
1
1
1
1
1
1
1
1
1
1
1
1
1
1
1
1
1
1
1
1
1
1
1
1
1
1
1
1
1
1
1
1
1
1
1
1
1
1
1
1
1
1
1
1
1
1
1
1
1
1
1
1
1
1
1
1
1
1
1
1
1
1
1
1
1
1
1
1
1
1
1
1
0.999999
0.999999
0.999999
0.999999
0.999999
0.999999
0.999999
0.999999
1
1
1
1
1
1
1
1
1
1
1
1
1
1
1
1
1
1
1
1
1
1
1
1
1
1
1
1
1
1
1
1
1
1
1
1
1
1
1
1
1
1
1
1
1
1
1
1
1
1
1
1
1
1
1
1
1
1
1
1
1
1
1
1
1
1
1
1
1
1
1
1
1
1
1
1
1
1
1
1
1
1
1
1
1
1
1
1
1
1
1
1
1
0.999999
0.999999
0.999999
0.999999
0.999999
0.999999
0.999999
1
1
1
1
1
1
1
1
1
1
1
1
1
1
1
1
1
1
1
1
1
1
1
1
1
1
1
1
1
1
1
1
1
1
1
1
1
1
1
1
1
1
1
1
1
1
1
1
1
1
1
1
1
1
1
1
1
1
1
1
1
1
1
1
1
1
1
1
1
1
1
1
1
1
1
1
1
1
1
1
1
1
1
1
1
1
1
1
1
1
1
1
1
1
0.999999
0.999999
0.999999
0.999999
1
1
1
1
1
1
1
1
1
1
1
1
1
1
1
1
1
1
1
1
1
1
1
1
1
1
1
1
1
1
1
1
1
1
1
1
1
1
1
1
1
1
1
1
1
1
1
1
1
1
1
1
1
1
1
1
1
1
1
1
1
1
1
1
1
1
1
1
1
1
1
1
1
1
1
1
1
1
1
1
1
1
1
1
1
1
1
1
1
1
1
1
1
1
1
1
1
1
1
1
1
1
1
1
1
1
1
1
1
1
1
1
1
1
1
1
1
1
1
1
1
1
1
1
1
1
1
1
1
1
1
1
1
1
1
1
1
1
1
1
1
1
1
1
1
1
1
1
1
1
1
1
1
1
1
1
1
1
1
1
1
1
1
1
1
1
1
1
1
1
1
1
1
1
1
1
1
1
1
1
1
1
1
1
1
1
1
1
1
1
1
1
1
1
1
1
1
1
1
1
1
1
1
1
1
1
1
1
1
1
1
1
1
1
1
1
1
1
1
1
1
1
1
1
1
1
1
1
1
1
1
1
1
1
1
1
1
1
1
1
1
1
1
1
1
1
1
1
1
1
1
1
1
1
1
1
1
1
1
1
1
1
1
1
1
1
1
1
1
1
1
1
1
1
1
1
1
1
1
1
1
1
1
1
1
1
1
1
1
1
1
1
1
1
1
1
1
1
1
1
1
1
1
1
1
1
1
1
1
1
1
1
1
1
1
1
1
1
1
1
1
1
1
1
1
1
1
1
1
1
1
1
1
1
1
1
1
1
1
1
1
1
1
1
1
1
1
1
1
1
1
1
1
1
1
1
1
1
1
1
1
1
1
1
1
1
1
1
1
1
1
1
1
1
1
1
1
1
1
1
1
1
1
1
1
1
1
1
1
1
1
1
1
1
1
1
1
1
1
1
1
1
1
1
1
1
1
1
1
1
1
1
1
1
1
1
1
1
1
1
1
1
1
1
1
1
1
1
1
1
1
1
1
1
1
1
1
1
1
1
1
1
1
1
1
1
1
1
1
1
1
1
1
1
1
1
1
1
1
1
1
1
1
1
1
1
1
1
1
1
1
1
1
1
1
1
1
1
1
1
1
1
1
1
1
1
1
1
1
1
1
1
1
1
1
1
1
1
1
1
1
1
1
1
1
1
1
1
1
1
1
1
1
1
1
1
1
1
1
1
1
1
1
1
1
1
1
1
1
1
1
1
1
1
1
1
1
1
1
1
1
1
1
1
1
1
1
1
1
1
1
1
1
1
1
1
1
1
1
1
1
1
1
1
1
1
1
1
1
1
1
1
1
1
1
1
1
1
1
1
1
1
1
1
1
1
1
1
1
1
1
1
1
1
1
1
1
1
1
1
1
1
1
1
1
1
1
1
1
1
1
1
1
1
1
1
1
1
1
1
1
1
1
1
1
1
1
1
1
1
1
1
1
1
1
1
1
1
1
1
1
1
1
1
1
1
1
1
1
1
1
1
1
1
1
1
1
1
1
1
1
1
1
1
1
1
1
1
1
1
1
1
1
1
1
1
1
1
1
1
1
1
1
1
1
1
1
1
1
1
1
1
1
1
1
1
1
1
1
1
1
1
1
1
1
1
1
1
1
1
1
1
1
1
1
1
1
1
1
1
1
1
1
1
1
1
1
1
1
1
1
1
1
1
1
1
1
1
1
1
1
1
1
1
1
1
1
1
1
1
1
1
1
1
1
1
1
1
1
1
1
1
1
1
1
1
1
1
1
1
1
1
1
1
1
1
1
1
1
1
1
1
1
1
1
1
1
1
1
1
1
1
1
1
1
1
1
1
1
1
1
1
1
1
1
1
1
1
1
1
1
1
1
1
1
1
1
1
1
1
1
1
1
1
1
1
1
1
1
1
1
1
1
1
1
1
1
1
1
1
1
1
1
1
1
1
1
1
1
1
1
1
1
1
1
1
1
1
1
1
1
1
1
1
1
1
1
1
1
1
1
1
1
1
1
1
1
1
1
1
1
1
1
1
1
1
1
1
1
1
1
1
1
1
1
1
1
1
1
1
1
1
1
1
1
1
1
1
1
1
1
1
1
1
1
1
1
1
1
1
1
1
1
1
1
1
1
1
1
1
1
1
1
1
1
1
1
1
1
1
1
1
1
1
1
1
1
1
1
1
1
1
1
1
1
1
1
1
1
1
1
1
1
1
1
1
1
1
1
1
1
1
1
1
1
1
1
1
1
1
1
1
1
1
1
1
1
1
1
1
1
1
1
1
1
1
1
1
1
1
1
1
1
1
1
1
1
1
1
1
1
1
1
1
1
1
1
1
1
0.999999
0.999999
0.999999
0.999999
0.999999
0.999999
1
1
1
1
1
1
1
1
1
1
1
1
1
1
1
1
1
1
1
1
1
1
1
1
1
0.999999
0.999999
0.999999
0.999999
0.999999
0.999999
0.999999
0.999999
1
1
1
1
1
1
1
1
1
1
1
1
1
1
1
1
1
1
1
1
1
1
1
1
0.999999
0.999999
0.999999
0.999999
0.999999
0.999999
0.999999
0.999999
0.999999
0.999999
1
1
1
1
1
1
0.999999
0.999999
0.999999
0.999999
0.999999
0.999999
0.999999
0.999999
0.999999
0.999999
0.999999
0.999999
1
1
1
1
1
1
1
1
1.2058e-06
1.18027e-06
9.67286e-07
9.10529e-07
9.51357e-07
9.70902e-07
9.53532e-07
9.38449e-07
9.02697e-07
8.50688e-07
7.90451e-07
7.67376e-07
7.39459e-07
7.29026e-07
7.13226e-07
6.94033e-07
6.60401e-07
6.1598e-07
5.66865e-07
5.23665e-07
4.99534e-07
4.97584e-07
5.17339e-07
5.1581e-07
5.15369e-07
5.16971e-07
5.2487e-07
5.44371e-07
5.68842e-07
5.97174e-07
6.61046e-07
7.31478e-07
7.98807e-07
8.4596e-07
8.90434e-07
9.1263e-07
8.96961e-07
8.44905e-07
7.52412e-07
6.48572e-07
5.44906e-07
4.69902e-07
4.71848e-07
4.45111e-07
4.61043e-07
4.74994e-07
4.91374e-07
5.13663e-07
5.60001e-07
5.94691e-07
6.08465e-07
6.14164e-07
6.25523e-07
6.33651e-07
6.54001e-07
6.67453e-07
6.72056e-07
6.64215e-07
6.70285e-07
7.11635e-07
7.83307e-07
8.68315e-07
9.35591e-07
1.01367e-06
1.10686e-06
1.20441e-06
1.28873e-06
1.33675e-06
1.35244e-06
1.33684e-06
1.29223e-06
1.23081e-06
1.16127e-06
1.08878e-06
1.02836e-06
9.87349e-07
9.65068e-07
9.74455e-07
1.01097e-06
1.05936e-06
1.11024e-06
1.18268e-06
1.25142e-06
1.28804e-06
1.31851e-06
1.3398e-06
1.33997e-06
1.26951e-06
1.2077e-06
1.09596e-06
1.01083e-06
8.89059e-07
7.9724e-07
7.61122e-07
8.17367e-07
8.5233e-07
9.15732e-07
1.023e-06
1.11706e-06
8.43787e-07
2.57153e-13
2.80701e-13
3.66954e-13
3.53303e-13
2.98587e-13
2.44117e-13
1.97816e-13
1.48835e-13
1.13417e-13
1.3296e-13
1.21171e-13
6.91647e-14
2.5715e-14
2.35995e-14
1.98232e-14
1.58084e-14
1.2057e-14
9.36274e-15
5.85711e-15
3.03752e-15
1.78532e-16
1.22823e-14
2.43201e-14
3.50046e-14
4.62728e-14
5.55092e-14
6.20436e-14
6.66937e-14
7.037e-14
7.35001e-14
7.61486e-14
1.19311e-13
2.0458e-13
2.56507e-13
2.50992e-13
1.94156e-13
1.19773e-13
1.01414e-13
1.07685e-13
1.14125e-13
1.20551e-13
1.26383e-13
1.30388e-13
1.33941e-13
1.3536e-13
1.35643e-13
1.348e-13
1.32619e-13
1.27769e-13
1.2041e-13
1.10605e-13
9.83085e-14
8.41612e-14
6.97772e-14
5.57274e-14
4.36336e-14
3.43704e-14
4.22062e-14
5.5699e-14
4.5839e-14
4.82683e-14
7.66757e-14
1.29281e-13
1.74744e-13
1.68121e-13
1.39083e-13
1.58098e-13
1.86461e-13
2.13431e-13
2.36467e-13
2.53499e-13
2.63224e-13
2.65866e-13
2.63086e-13
2.56192e-13
2.47252e-13
2.38039e-13
2.28831e-13
2.23363e-13
2.20679e-13
2.20234e-13
2.2032e-13
2.24649e-13
2.34794e-13
2.46275e-13
2.56636e-13
2.66851e-13
2.73701e-13
2.70801e-13
2.7014e-13
2.71883e-13
2.63338e-13
2.36316e-13
1.98807e-13
1.88624e-13
3.23877e-13
3.31623e-13
2.56692e-13
8.06048e-14
4.30131e-13
2.04661e-18
2.38005e-18
9.6871e-23
4.48831e-19
6.33578e-18
1.99472e-18
1.06647e-19
1.9538e-19
2.95602e-19
9.15351e-20
7.72966e-20
2.13127e-20
3.6395e-20
4.85824e-20
8.72911e-21
2.1144e-21
8.15359e-22
1.79807e-21
2.50146e-20
3.33552e-20
2.07174e-20
6.47553e-21
1.81093e-20
5.47256e-21
4.89504e-21
6.967e-20
1.18202e-19
9.91195e-20
4.14842e-20
1.43708e-20
1.69229e-20
2.80737e-21
5.81691e-21
5.28622e-21
6.66516e-21
7.94812e-20
1.04455e-19
3.81312e-20
1.16287e-27
3.00899e-22
1.36937e-20
3.59327e-28
8.76461e-22
4.40704e-21
5.11897e-20
4.48159e-20
3.31721e-27
2.08156e-21
3.57969e-21
2.21905e-20
6.21556e-20
7.79922e-20
6.49511e-20
1.49267e-20
4.8724e-22
1.44175e-21
1.10147e-21
1.76308e-22
1.17045e-20
1.92665e-20
6.6803e-21
5.17635e-23
1.73719e-20
1.25075e-19
6.71292e-20
5.72339e-20
8.73061e-20
7.78198e-20
3.39639e-20
2.36896e-26
2.4766e-26
1.68434e-21
4.00325e-20
6.22513e-20
5.95025e-20
3.42225e-20
6.73204e-21
3.74554e-27
3.76618e-27
6.60842e-22
4.53357e-22
6.62953e-20
1.36187e-19
9.59608e-20
5.46276e-27
5.46276e-27
5.46276e-27
6.69729e-20
1.193e-19
1.20312e-19
6.4416e-20
4.14345e-20
4.25208e-20
4.27767e-20
8.40618e-20
4.70779e-20
3.54482e-20
6.25531e-20
1.55371e-19
1.24062e-19
6.48653e-22
1.21295e-21
9.6871e-23
2.82534e-22
3.99973e-22
8.99765e-23
4.45679e-24
6.95694e-24
3.22966e-24
4.88783e-25
1.74194e-25
5.70062e-25
1.75665e-25
6.03804e-26
2.72719e-26
2.66662e-26
2.35693e-26
1.90592e-26
9.52352e-27
2.45282e-26
1.5223e-26
5.97025e-27
3.71822e-26
2.9156e-26
4.60088e-27
2.4248e-26
9.03218e-26
8.71224e-26
2.87492e-26
1.01053e-26
1.33325e-26
1.38259e-27
1.59938e-27
2.65427e-28
3.88885e-27
2.29148e-26
5.02374e-26
1.90865e-26
1.16287e-27
2.46707e-28
9.49938e-28
3.59327e-28
2.92586e-27
1.2103e-26
3.29464e-26
2.6254e-26
3.31721e-27
8.93641e-27
2.63556e-26
3.44537e-26
3.27337e-26
3.75545e-26
3.4479e-26
1.35029e-26
8.33281e-28
2.08198e-27
2.43209e-27
8.75071e-28
5.9233e-27
5.91577e-27
3.65538e-27
1.11488e-27
2.29641e-26
9.3884e-26
6.62499e-26
4.18742e-26
6.7236e-26
7.67935e-26
5.25946e-26
2.36896e-26
2.58423e-26
3.59701e-26
4.80756e-26
5.90842e-26
5.84928e-26
3.65477e-26
1.6923e-26
3.74554e-27
7.87896e-27
9.09022e-27
1.28589e-26
4.86062e-26
1.53885e-25
1.23635e-25
1.0496e-26
1.09185e-26
4.17477e-26
1.02086e-25
1.54939e-25
2.15663e-25
1.75672e-25
6.69012e-26
3.16049e-26
5.50814e-26
1.80624e-25
1.36175e-24
1.2157e-24
8.43886e-25
7.1661e-25
2.95417e-25
3.87515e-28
4.72182e-25
2.39518e-27
1.30208e-26
3.22549e-27
1.22833e-27
3.64351e-29
4.977e-29
7.5975e-30
6.29413e-31
2.14926e-31
1.08766e-30
7.76231e-31
3.71518e-32
3.26849e-32
8.06699e-33
1.36214e-32
2.78447e-32
1.54534e-33
6.55507e-33
6.55275e-33
8.28158e-34
8.79455e-33
4.04344e-32
5.25021e-33
1.91575e-33
2.16616e-33
9.56998e-33
5.21326e-33
1.78736e-33
3.84945e-33
9.3434e-35
4.53224e-34
9.27159e-36
6.93443e-34
2.34465e-34
2.52088e-33
2.29748e-33
4.36068e-34
5.21621e-35
2.13274e-34
1.82915e-34
4.38319e-34
3.01477e-33
1.1394e-32
5.8248e-33
7.78071e-34
1.19715e-33
5.81961e-33
1.67797e-32
5.68237e-33
2.79762e-33
4.73065e-33
1.60772e-33
6.66516e-34
1.23244e-33
1.56961e-33
1.49105e-33
4.36109e-33
2.89606e-33
1.83697e-33
2.49924e-34
3.23892e-33
1.56899e-32
1.92831e-32
8.49696e-33
1.06893e-32
1.54842e-32
9.35441e-33
4.60017e-33
6.63602e-34
5.49305e-33
9.95739e-33
9.75009e-33
1.28758e-32
8.57855e-33
3.19042e-33
1.2048e-33
1.16496e-33
2.73542e-33
9.99018e-33
1.52287e-32
3.36092e-32
3.72801e-32
3.96164e-33
5.79232e-34
5.72057e-33
1.30251e-32
2.35877e-32
3.84422e-32
9.23577e-32
1.85111e-32
9.50214e-33
1.37026e-32
1.00655e-31
7.47659e-30
3.78135e-30
4.77051e-30
2.7403e-30
8.79382e-32
2.87606e-32
7.33054e-29
1.21761e-31
3.36658e-31
3.18622e-32
7.09021e-33
6.95233e-35
1.54357e-34
1.76266e-35
5.39859e-37
1.83648e-37
1.03426e-36
8.5148e-37
2.91952e-38
6.95603e-38
4.71209e-39
8.67938e-39
2.82493e-38
1.44927e-39
2.34707e-39
4.63193e-39
3.87003e-40
9.06683e-39
5.0085e-38
3.56702e-39
1.07509e-39
2.02371e-40
2.15941e-40
3.01942e-40
4.04275e-40
3.28219e-39
9.38047e-41
4.59405e-40
4.61914e-42
9.80796e-41
1.01739e-42
1.02755e-40
3.23709e-40
1.02417e-40
1.09849e-41
6.47842e-41
1.06944e-40
7.26328e-41
4.11951e-40
3.3433e-39
2.96619e-39
6.55281e-40
1.03296e-39
3.5916e-39
6.60364e-39
1.40898e-39
1.99856e-40
7.6684e-40
6.54676e-40
6.97383e-40
1.01798e-39
9.24899e-40
1.05749e-39
1.96897e-39
2.02848e-39
1.84022e-39
3.25273e-40
2.42521e-39
8.0662e-39
6.74832e-39
1.65118e-39
1.13364e-39
2.33794e-39
3.21466e-39
2.50006e-39
5.10923e-40
2.83494e-39
3.29161e-39
1.92976e-39
1.84606e-39
2.15735e-39
1.63327e-39
1.39216e-39
1.43403e-39
1.73525e-39
4.12097e-39
4.00814e-39
1.05585e-38
1.68747e-38
3.45789e-39
2.08646e-40
1.04518e-39
1.91733e-39
9.28341e-39
2.4291e-38
7.52897e-38
1.43444e-38
5.20346e-39
3.68505e-39
8.0712e-38
2.00006e-35
1.8014e-35
4.18577e-36
6.82993e-36
3.39296e-38
1.31445e-36
1.28928e-33
2.55915e-36
7.91472e-36
1.32599e-37
3.13977e-38
3.85289e-41
1.90791e-40
3.25615e-41
6.44747e-43
1.37642e-43
6.81708e-43
3.89979e-43
3.05073e-45
5.05828e-44
4.04924e-45
3.4496e-45
2.01518e-44
1.16416e-45
1.25098e-45
7.04321e-46
8.80864e-47
8.43586e-45
4.65938e-44
1.83092e-45
4.929e-46
3.35132e-47
1.26356e-47
1.84123e-47
2.35896e-47
4.82922e-46
2.74719e-47
2.65312e-46
2.02117e-48
2.32527e-47
7.35819e-54
6.08952e-48
6.22907e-47
7.76907e-48
1.19231e-48
1.73679e-47
4.20427e-47
2.29104e-47
1.01748e-46
3.23417e-46
3.01931e-46
2.45595e-46
5.56944e-46
1.61685e-45
3.12923e-45
6.44923e-46
1.00171e-46
1.32671e-46
1.43442e-46
2.70054e-46
3.79698e-46
3.49867e-46
5.45748e-46
1.01019e-45
8.28627e-46
4.68584e-46
1.23388e-46
9.58931e-46
3.644e-45
2.49985e-45
6.77619e-46
3.10663e-46
3.15343e-46
1.49149e-46
5.4257e-46
2.14227e-46
1.19032e-45
1.04129e-45
7.84857e-46
7.46422e-46
5.96123e-46
2.47852e-46
7.48505e-46
1.46093e-45
1.274e-45
2.86992e-45
2.56491e-45
2.71008e-45
5.39283e-45
2.62713e-45
6.25255e-47
3.2082e-46
1.87773e-46
1.05456e-45
1.95195e-44
6.89709e-44
1.00264e-44
5.07883e-45
9.88275e-46
6.13395e-44
5.46836e-42
3.4377e-41
7.73412e-42
9.72587e-42
1.50163e-44
1.76348e-41
2.07628e-39
6.803e-42
9.43159e-41
1.18231e-42
1.25175e-44
2.45128e-47
4.64554e-47
2.24405e-47
3.76299e-49
8.43946e-50
3.18312e-49
1.33427e-49
8.4476e-52
4.53943e-51
1.65289e-51
1.87507e-51
8.51787e-51
4.07055e-52
7.10509e-52
7.23359e-53
8.21626e-54
6.97584e-52
1.38832e-50
5.0745e-52
6.93677e-53
4.67795e-54
9.99204e-55
1.56357e-54
3.97167e-54
1.62028e-52
2.23836e-54
2.49905e-53
2.03649e-55
9.61815e-55
6.94551e-61
6.95061e-55
8.50452e-54
1.16963e-54
4.36609e-56
1.63427e-54
1.10424e-53
3.16473e-54
2.88417e-53
8.80458e-53
3.55191e-53
1.45588e-53
5.16781e-53
3.16445e-52
6.00307e-52
9.14625e-53
2.46263e-53
6.36755e-53
8.89401e-53
7.24446e-53
7.87054e-53
8.11683e-53
1.29553e-52
3.74902e-52
5.14195e-52
2.97116e-52
3.91292e-53
6.97268e-53
6.01591e-52
6.77975e-52
1.14963e-52
5.42713e-53
9.38582e-53
2.78193e-53
4.87454e-53
1.90691e-53
2.21422e-52
2.57813e-52
1.54516e-52
1.54456e-52
3.85368e-52
1.56558e-52
1.55709e-52
3.26998e-52
6.68596e-52
1.20454e-51
7.47199e-52
1.07688e-51
2.09725e-51
1.258e-51
8.23532e-54
8.4062e-53
8.60872e-53
2.79972e-52
2.59836e-51
3.76957e-50
7.14052e-51
1.37331e-51
4.51331e-52
9.33111e-50
3.54721e-48
1.10566e-47
9.42903e-48
1.13445e-47
9.37414e-51
3.44997e-46
1.23409e-44
1.3259e-48
1.73657e-46
4.94102e-48
4.83707e-50
1.95801e-53
5.13992e-54
1.14636e-53
1.3488e-55
5.68142e-56
9.38226e-56
1.02041e-56
4.98169e-58
4.1307e-57
2.24782e-58
7.30687e-58
6.3625e-57
1.28351e-58
1.73475e-58
1.66276e-59
1.36207e-60
5.52934e-59
6.3026e-58
5.1049e-59
1.28406e-59
1.65298e-60
3.26597e-61
2.70922e-62
3.30738e-61
1.70111e-59
1.46907e-61
1.10621e-60
1.14088e-62
2.46132e-62
1.0897e-68
3.16419e-62
8.43472e-61
2.20949e-61
3.29865e-63
9.09373e-62
2.94624e-60
8.75726e-61
2.30355e-60
2.02452e-59
4.08473e-60
1.07007e-60
2.06532e-60
1.05306e-59
9.90186e-59
2.41976e-59
4.19956e-60
1.37917e-59
1.77009e-59
1.1919e-59
8.32719e-60
2.1071e-59
5.6252e-59
1.52309e-58
1.42942e-58
8.5399e-59
1.13485e-59
6.56399e-60
2.80675e-59
1.1817e-58
3.59823e-59
5.89704e-60
9.03436e-60
5.04864e-60
6.91994e-60
1.85245e-60
1.3747e-59
5.72487e-59
6.22495e-59
3.63746e-59
9.23318e-59
6.0888e-59
4.96828e-59
4.21516e-59
1.52698e-58
5.57714e-58
2.31451e-58
2.97853e-58
6.23359e-58
4.58434e-58
1.09054e-60
9.62882e-60
4.15361e-59
1.54747e-58
9.12307e-58
5.3701e-57
4.29796e-57
8.86576e-58
1.24332e-58
6.76732e-56
3.4533e-54
2.97605e-54
4.84971e-54
7.64674e-54
5.00742e-57
5.84637e-51
8.58687e-51
2.02578e-54
7.79118e-53
3.09156e-54
8.2071e-56
2.26828e-59
8.68963e-61
4.89301e-60
2.48176e-62
2.33588e-62
3.61714e-62
6.88181e-63
1.30276e-64
3.51553e-63
1.12135e-64
1.60498e-64
9.65921e-64
3.61359e-65
1.79523e-64
4.70317e-66
2.52018e-67
3.98953e-66
3.87664e-65
2.48818e-66
6.99948e-67
3.07131e-68
9.04645e-68
3.46636e-69
2.07336e-67
2.07062e-66
8.30614e-69
1.95427e-68
9.19232e-70
7.78366e-70
1.62939e-75
6.93131e-69
9.36485e-68
2.46711e-68
1.81e-70
8.53544e-69
1.27091e-67
2.33032e-67
8.23111e-67
7.24027e-66
4.31649e-67
1.13949e-67
6.82824e-68
4.43202e-67
1.71189e-68
3.00347e-66
1.19606e-66
2.24419e-66
2.24736e-66
2.48755e-66
2.48953e-66
8.40919e-67
8.83325e-66
6.62131e-65
8.86241e-65
1.36553e-65
1.88181e-66
6.50959e-67
2.04529e-66
5.99894e-66
4.50326e-66
1.70736e-66
4.23271e-66
6.76847e-67
5.62784e-67
1.96331e-67
1.87032e-66
3.48885e-66
1.61284e-65
2.54776e-65
7.40281e-65
8.6216e-66
1.2494e-65
9.13096e-66
1.25602e-65
1.25597e-64
1.03874e-64
1.09732e-64
2.07995e-64
1.58061e-64
2.45127e-67
4.40138e-66
1.14654e-65
6.16343e-65
5.91151e-64
5.51211e-63
3.80148e-64
3.6503e-64
6.77631e-65
3.342e-62
2.44981e-60
2.09196e-60
1.32589e-60
8.44172e-61
1.59305e-63
3.03194e-56
5.05337e-56
3.27027e-61
9.79e-59
2.19441e-60
4.74759e-62
1.78386e-65
2.92639e-67
3.02627e-67
4.92048e-69
2.03939e-69
4.09009e-69
6.88318e-69
7.0361e-71
6.21433e-70
5.7201e-71
7.52471e-71
2.37738e-70
2.35196e-72
5.37028e-71
2.24731e-72
6.32999e-74
2.13819e-73
4.26726e-72
1.20309e-73
1.30447e-73
7.32315e-75
6.7428e-75
5.87964e-77
5.47441e-74
5.02298e-73
1.26233e-75
8.02928e-76
3.81267e-77
6.45464e-77
2.35925e-82
1.20046e-75
3.06353e-74
6.30643e-75
2.17182e-77
1.28944e-75
8.31653e-75
7.53778e-75
1.19639e-73
2.44658e-72
1.20208e-73
1.96612e-74
3.85223e-75
6.5402e-74
1.12916e-74
7.78071e-74
1.06687e-73
4.60919e-73
1.96855e-73
2.2249e-73
1.87996e-72
1.27495e-72
7.3824e-73
1.65792e-72
2.43665e-71
6.56654e-72
3.95778e-73
5.16862e-74
1.28863e-73
2.42441e-73
4.14643e-73
6.87144e-74
1.02087e-72
2.5155e-73
1.1561e-73
6.36146e-75
3.2604e-73
3.20223e-73
2.17009e-72
3.24335e-72
4.95444e-71
8.1825e-72
1.43232e-72
2.72325e-72
4.02723e-72
1.06601e-71
4.47024e-71
1.02847e-70
2.5331e-70
1.70308e-70
1.52589e-74
1.25803e-72
9.22384e-72
2.79852e-71
1.88886e-70
5.29431e-69
4.46116e-71
1.34998e-71
2.40427e-71
3.43783e-68
9.6e-67
1.61124e-66
8.69243e-67
4.31566e-68
3.68682e-70
4.58353e-63
1.46363e-61
4.31168e-67
4.961e-65
1.24548e-66
6.76353e-69
5.71759e-72
8.59129e-74
2.07942e-74
7.65049e-76
7.97316e-76
4.45304e-76
2.03894e-75
5.60568e-77
3.5082e-76
6.83859e-78
1.74687e-77
7.09621e-77
5.6692e-80
1.45271e-78
2.41067e-79
1.25646e-80
5.96381e-80
1.60352e-78
3.88479e-80
2.28905e-80
3.77107e-82
2.83037e-81
6.20334e-85
5.29055e-81
5.33406e-80
1.36563e-82
8.12721e-83
2.17271e-84
7.93144e-84
3.13292e-89
3.0156e-83
6.23228e-81
2.95202e-81
4.02379e-84
1.70904e-82
9.45021e-82
1.92118e-82
4.61319e-81
7.70103e-80
2.20275e-80
7.27349e-81
1.33293e-82
3.28751e-81
4.19382e-81
1.13396e-80
2.44241e-81
6.03694e-80
4.75567e-80
2.65818e-80
1.00367e-78
6.89193e-79
1.79241e-79
3.57844e-79
3.42803e-79
1.14413e-78
1.76732e-79
9.72511e-81
2.36995e-81
1.14525e-80
7.36592e-80
8.5199e-81
4.23989e-80
4.47503e-80
4.21938e-80
2.41981e-81
3.49818e-81
4.40857e-80
6.28887e-79
5.34891e-79
4.80313e-78
5.51786e-78
1.76125e-78
1.65128e-78
2.45701e-78
5.99476e-78
2.82584e-77
9.82836e-77
2.55147e-76
2.66795e-76
1.88741e-81
7.21178e-80
4.12896e-78
1.99766e-77
9.977e-77
1.43614e-75
1.92505e-78
7.54094e-79
1.4716e-78
1.86996e-74
5.66855e-73
5.4037e-73
7.79629e-73
1.00904e-74
4.55834e-77
2.75557e-69
3.0783e-68
5.87719e-73
1.05913e-71
2.12533e-73
1.11012e-75
1.55066e-80
2.23239e-80
4.70501e-81
2.91572e-88
3.28029e-82
3.44691e-82
1.02792e-81
3.90125e-84
1.80906e-82
2.32499e-84
2.8939e-84
4.18306e-84
6.78044e-91
2.0357e-87
5.14858e-87
4.79402e-88
5.17028e-92
2.44124e-85
1.59817e-86
1.70534e-86
5.94571e-89
1.059e-87
8.21578e-94
1.99637e-88
5.1214e-87
1.94223e-89
1.41338e-89
4.97046e-91
1.08852e-91
5.64196e-96
2.31974e-90
2.83287e-88
7.1408e-88
1.24086e-90
3.46053e-89
6.35488e-89
3.29113e-95
8.41368e-89
2.82904e-87
1.4584e-94
5.79363e-88
1.14603e-89
5.02242e-88
1.54885e-87
2.76644e-87
3.73221e-88
3.19404e-87
4.61707e-87
7.32825e-87
9.31829e-85
3.82059e-85
2.21889e-86
7.70269e-86
6.16782e-86
9.99229e-86
1.7287e-86
2.55393e-87
6.43068e-88
8.33874e-88
5.20701e-87
1.47633e-87
4.39178e-87
2.61091e-87
5.5312e-87
1.25334e-87
3.84905e-88
2.10195e-87
1.057e-85
1.46887e-85
8.79249e-85
9.36699e-85
1.0409e-84
1.14697e-84
1.63094e-84
4.47959e-84
1.76231e-83
1.2906e-82
3.64595e-82
1.53935e-82
7.03944e-88
1.70693e-86
7.25426e-85
4.87518e-84
6.69005e-83
7.2901e-82
5.57892e-87
1.42031e-86
6.59262e-86
1.28836e-81
2.67309e-79
2.00413e-79
3.57541e-79
1.69186e-81
3.45869e-84
2.48057e-75
2.69471e-81
2.70709e-79
1.36922e-78
2.78712e-80
8.70893e-83
5.10426e-87
5.63176e-88
1.14505e-87
1.96724e-94
4.236e-89
1.23158e-88
7.71609e-88
2.86885e-90
1.82236e-89
2.52875e-91
6.36971e-91
5.63618e-91
1.2387e-98
2.80033e-94
1.02967e-94
4.2823e-95
9.07202e-99
1.59581e-92
3.05468e-94
5.13669e-93
2.0928e-95
3.4042e-94
1.00863e-100
1.16895e-96
1.85567e-94
1.4156e-96
1.86071e-96
1.55291e-97
4.34054e-98
3.38103e-103
3.53776e-97
1.09903e-95
4.03918e-95
1.24649e-97
8.3084e-96
1.17571e-95
1.28124e-102
2.30076e-96
1.77667e-94
1.83146e-101
2.06839e-95
9.075e-99
9.29227e-95
6.69623e-94
6.38366e-94
6.24157e-95
6.29776e-94
7.72194e-94
2.74036e-94
3.18148e-91
2.83932e-91
2.86319e-93
5.0292e-93
1.0293e-92
2.17033e-92
5.33229e-93
1.85777e-96
1.09508e-94
1.45797e-94
6.86082e-94
1.23307e-95
6.13823e-94
5.62925e-94
9.79394e-94
2.89039e-95
2.31779e-94
6.93724e-94
1.00789e-92
1.90581e-92
2.14717e-91
4.27009e-91
2.14739e-91
3.06284e-91
5.89033e-91
3.24311e-90
3.69971e-90
7.45808e-89
6.43083e-88
2.84871e-88
2.83588e-94
7.11718e-93
4.35304e-91
2.71537e-91
1.40229e-89
5.09844e-88
1.87212e-93
4.72133e-99
2.04679e-93
3.70528e-88
2.37628e-86
7.78451e-86
1.2293e-85
4.5362e-88
3.04543e-91
1.715e-81
8.09193e-88
7.62976e-89
3.96322e-86
7.05711e-88
5.89208e-90
1.63425e-93
3.11684e-94
3.05384e-95
8.29613e-101
2.28866e-95
2.46286e-95
1.07771e-94
1.39218e-96
7.94307e-96
6.77408e-99
1.19338e-98
3.37298e-98
1.2896e-105
1.36011e-100
3.38105e-101
7.25867e-102
3.80932e-106
1.92268e-99
1.16508e-101
2.93225e-100
3.19994e-102
7.34529e-101
1.24907e-107
8.14662e-106
1.07964e-101
1.82609e-103
2.14941e-104
2.54377e-104
2.33057e-104
2.08798e-109
7.20071e-104
4.14341e-108
4.50408e-102
4.08002e-105
2.95412e-103
1.8271e-102
1.90485e-109
1.87597e-103
4.00336e-102
1.34469e-108
3.03058e-102
3.47599e-108
1.10926e-101
3.67561e-100
3.76439e-100
1.57477e-102
8.67726e-101
1.70361e-100
6.80786e-101
5.58566e-98
6.89856e-98
6.62242e-100
9.52585e-100
6.05804e-100
2.74732e-99
2.18348e-99
5.08952e-103
2.38945e-102
9.96203e-102
1.3625e-100
2.53332e-102
3.25444e-101
7.67841e-101
3.30882e-100
1.15618e-101
4.49139e-102
1.73905e-100
3.06823e-99
1.43436e-99
3.53478e-98
1.2343e-97
5.49386e-98
1.23898e-97
1.17623e-97
2.62725e-96
3.79973e-96
2.33162e-95
2.9922e-94
4.7783e-94
6.0947e-100
5.56709e-100
2.24468e-97
1.97445e-98
5.18253e-97
1.6391e-94
9.24917e-100
7.79735e-106
4.32948e-100
9.03548e-95
6.45239e-94
2.2805e-92
2.62526e-92
1.42705e-94
1.78459e-98
9.27542e-88
2.37392e-95
2.92025e-101
5.38347e-97
7.20055e-96
7.79453e-99
1.54081e-100
1.84983e-100
2.49621e-101
2.23143e-107
8.23982e-102
1.08179e-101
2.21148e-101
3.18153e-104
1.98798e-102
3.41285e-107
3.12945e-106
3.91828e-106
2.21552e-113
1.58338e-107
1.17585e-107
5.15854e-108
2.27008e-113
8.52718e-116
4.42777e-109
3.1238e-108
3.33037e-109
1.29644e-107
1.92097e-114
1.79429e-112
9.35172e-110
3.07265e-110
5.44193e-111
1.00818e-111
3.83989e-111
1.58596e-115
5.6376e-110
5.79283e-115
9.2491e-109
3.41956e-115
4.68597e-111
1.71784e-124
9.90933e-117
1.88718e-110
6.05419e-109
7.83582e-116
3.88531e-109
8.13789e-115
1.34486e-108
6.24077e-107
1.8354e-106
2.40785e-109
7.04478e-108
1.24864e-107
1.44196e-107
2.50154e-104
1.45573e-104
1.47357e-107
1.78705e-106