/*--------------------------------*- C++ -*----------------------------------*\
| =========                 |                                                 |
| \\      /  F ield         | OpenFOAM: The Open Source CFD Toolbox           |
|  \\    /   O peration     | Version:  2406                                  |
|   \\  /    A nd           | Website:  www.openfoam.com                      |
|    \\/     M anipulation  |                                                 |
\*---------------------------------------------------------------------------*/
FoamFile
{
    version     2.0;
    format      ascii;
    arch        "LSB;label=32;scalar=64";
    class       volScalarField;
    location    "4";
    object      p;
}
// * * * * * * * * * * * * * * * * * * * * * * * * * * * * * * * * * * * * * //

dimensions      [1 -1 -2 0 0 0 0];

internalField   nonuniform List<scalar> 
10000
(
1225.81
1229.02
1236.26
1251.05
1277.3
1311.06
1349.73
1390.04
1429.16
1468.96
1512.48
1555.4
1586.02
1594.97
1582.5
1555.83
1521.36
1480.98
1434.58
1384.04
1334.05
1289.92
1255.38
1232.3
1221.59
1223.86
1239.16
1266.32
1302.56
1343.7
1385.09
1422.55
1453.22
1475.72
1489.85
1495.97
1494.5
1485.73
1469.99
1447.94
1420.62
1389.33
1355.28
1319.25
1281.57
1242.26
1201.5
1159.95
1118.91
1080.29
1046.28
1019
1000.16
990.848
991.265
1000.64
1017.15
1037.94
1059.39
1077.38
1087.7
1086.43
1070.41
1037.64
987.75
922.275
844.752
760.496
676.111
598.818
535.706
492.99
475.318
485.176
522.445
584.223
664.968
757.009
851.367
938.768
1010.7
1060.37
1083.55
1079.08
1049.16
999.256
937.434
873.331
816.746
776.302
758.453
766.989
802.846
863.981
945.32
1039.21
1136.8
1230.02
1312.6
1373.45
1131.66
1125.48
1132.74
1153.59
1186.69
1228.31
1275.5
1323.75
1368.54
1409.17
1447.37
1481.55
1505.18
1511.63
1499.37
1472.1
1434.77
1390.49
1341.01
1288.91
1238.46
1194.51
1160.87
1139.72
1131.91
1137.44
1155.58
1184.59
1221.66
1263.07
1304.74
1342.84
1374.4
1397.62
1411.86
1417.37
1414.92
1405.48
1390.01
1369.45
1344.67
1316.44
1285.36
1251.79
1215.89
1177.8
1137.85
1096.82
1056.09
1017.53
983.378
955.875
936.956
927.944
929.302
940.44
959.597
983.862
1009.36
1031.58
1045.88
1048
1034.54
1003.5
954.653
889.743
812.568
728.722
645.099
569.203
508.34
468.808
455.168
469.656
511.803
578.322
663.308
758.764
855.426
943.784
1015.18
1062.81
1082.56
1073.51
1038.15
982.132
913.76
842.957
780.019
734.233
712.677
719.369
754.824
815.84
895.716
985.539
1077.12
1165.91
1248.43
1315.23
1077.74
1075.34
1084.5
1111.66
1153.07
1205.34
1264.01
1320.69
1366.76
1401.31
1430.04
1455.95
1474.38
1477.41
1461.42
1429.37
1387.12
1339.12
1287.79
1235.66
1186.81
1146.04
1117.12
1101.78
1100
1110.79
1132.65
1163.69
1201.41
1242.63
1283.65
1320.73
1350.75
1371.77
1383.34
1386.27
1382.13
1372.6
1359
1342.12
1322.32
1299.68
1274.2
1245.85
1214.61
1180.53
1143.85
1105.25
1065.97
1027.92
993.496
965.284
945.679
936.499
938.649
951.853
974.49
1003.58
1034.98
1063.83
1085.07
1094.13
1087.41
1062.8
1020.05
960.925
889.293
810.854
732.639
662.262
607.065
573.266
565.229
584.92
631.581
701.666
789.055
885.589
981.892
1068.4
1136.48
1179.46
1193.41
1177.58
1134.63
1070.37
993.356
913.964
843.116
790.682
763.949
766.575
798.136
854.105
926.361
1005.28
1084.18
1163.07
1242.46
1305.14
1046.89
1053.75
1068.44
1097.1
1139.95
1196.79
1263.34
1328.7
1380.2
1413.71
1434.94
1450.35
1459.25
1455.31
1433.98
1397.11
1350.9
1301.12
1251.1
1203.23
1160.83
1128.09
1108.33
1102.81
1110.62
1129.6
1157.09
1190.36
1226.76
1263.56
1297.96
1327.26
1349.22
1362.52
1367.17
1364.4
1356.31
1345.13
1332.63
1319.72
1306.43
1292.18
1276.12
1257.35
1235.14
1208.98
1178.73
1144.79
1108.27
1071.09
1035.89
1005.71
983.529
971.844
972.238
985.075
1009.27
1042.23
1079.94
1117.42
1149.27
1170.36
1176.53
1165.1
1135.28
1088.38
1027.89
959.222
889.265
825.639
775.779
746.023
740.818
762.149
809.241
878.536
963.943
1057.37
1149.55
1231.04
1293.37
1330.11
1337.68
1315.72
1267.15
1197.84
1116.15
1032.21
956.796
899.883
869.006
868.019
896.379
948.778
1015.5
1085.24
1151.45
1216.92
1285.43
1334.14
1054.55
1066.59
1092.33
1123.65
1165.14
1220.97
1289.58
1359.82
1415.9
1449.49
1464.12
1467.97
1464.53
1450.67
1422.49
1381.14
1332.71
1283.82
1238.52
1198.95
1167.41
1146.94
1140.02
1147.16
1166.66
1195.26
1229.11
1264.5
1298.27
1327.96
1351.73
1368.33
1377.05
1377.93
1371.92
1360.9
1347.43
1334.15
1323.15
1315.46
1310.86
1308.09
1305.27
1300.34
1291.44
1277.16
1256.67
1229.94
1197.85
1162.35
1126.35
1093.41
1067.24
1051.18
1047.74
1058.14
1082.14
1117.83
1161.68
1208.86
1253.75
1290.69
1314.75
1322.32
1311.66
1283.15
1239.4
1185.11
1126.66
1071.4
1026.81
999.418
994.025
1012.97
1055.82
1119.35
1197.81
1283.45
1367.38
1440.47
1494.57
1523.55
1524.15
1496.4
1443.45
1371.16
1287.48
1201.79
1124.11
1063.83
1028.37
1021.96
1044.81
1092
1152.78
1213.43
1265.54
1313.04
1362.51
1391.81
1080.18
1098.55
1139.19
1177.42
1219.54
1272.34
1337.77
1407.02
1463.81
1496.26
1504.26
1495.9
1478.22
1452.06
1415.31
1368.97
1318.82
1271.92
1232.88
1203.6
1185.2
1179.23
1186.92
1207.87
1239.6
1278.03
1318.41
1356.17
1387.56
1410.04
1422.46
1424.88
1418.39
1404.78
1386.44
1366.22
1347.22
1332.39
1323.92
1322.82
1328.57
1339.25
1351.95
1363.35
1370.33
1370.33
1361.71
1343.89
1317.5
1284.49
1248.03
1212.24
1181.61
1160.41
1152.11
1158.89
1181.4
1218.51
1267.34
1323.42
1381.16
1434.54
1477.92
1506.75
1518.2
1511.51
1488.15
1451.76
1407.83
1363.13
1324.83
1299.58
1292.52
1306.53
1341.76
1395.59
1462.89
1536.56
1608.32
1669.64
1712.82
1732.1
1724.55
1690.47
1633.29
1558.86
1474.73
1389.41
1311.68
1249.67
1209.83
1196.37
1210.75
1250
1304.08
1357.19
1397.3
1426.44
1452.56
1461.87
1092.14
1121.93
1177.47
1226.57
1273.59
1324.91
1384.74
1448.01
1500.71
1529.3
1529.98
1509.3
1476.62
1436.73
1389.96
1337.7
1285.46
1240.5
1207.85
1189.19
1184.48
1193.58
1216.16
1250.64
1293.69
1340.6
1386.12
1425.26
1453.95
1469.61
1471.48
1460.64
1439.68
1412.16
1382.11
1353.57
1330.32
1315.52
1311.31
1318.42
1335.86
1361.02
1390.01
1418.32
1441.57
1456.12
1459.49
1450.59
1429.86
1399.28
1362.33
1323.66
1288.55
1262.19
1248.99
1252.04
1272.75
1310.67
1363.46
1427.03
1495.94
1564
1625.06
1673.83
1706.54
1721.37
1718.69
1701
1672.72
1639.71
1608.55
1585.68
1576.4
1584.06
1609.49
1650.85
1703.82
1762.2
1818.59
1865.32
1895.4
1903.6
1887.28
1847
1786.29
1711.02
1628.42
1546.24
1471.96
1411.9
1370.59
1351.15
1355.96
1385
1431.1
1478.26
1510.54
1525.35
1529.62
1522.25
1073.71
1116.08
1181.19
1241.08
1295.7
1347.97
1401.98
1456.34
1501.19
1523.57
1516.83
1485.21
1439.05
1386.3
1329.95
1272.16
1218.25
1175.51
1149.32
1141.17
1149.93
1173.77
1210.62
1257.48
1309.98
1362.79
1410.42
1447.92
1471.48
1478.85
1469.77
1446.12
1411.65
1371.42
1330.96
1295.59
1269.83
1257.04
1259.15
1276.36
1307.03
1347.69
1393.47
1438.72
1477.89
1506.28
1520.65
1519.5
1503.16
1473.8
1435.28
1392.85
1352.58
1320.59
1302.27
1301.55
1320.53
1359.23
1415.63
1485.82
1564.38
1644.94
1720.94
1786.48
1837
1869.85
1884.48
1882.46
1867.25
1843.81
1817.99
1795.81
1782.54
1781.91
1795.42
1822.12
1858.66
1899.86
1939.37
1970.56
1987.36
1985.16
1961.7
1917.56
1856.19
1783.25
1705.63
1630.55
1564.46
1511.86
1474.63
1453.45
1450.44
1468.55
1505.15
1546.51
1574.24
1580.08
1568.04
1548.9
1021.43
1070.71
1136.71
1202.75
1263.97
1317.99
1366.46
1410.56
1445.28
1460.03
1446.63
1406.91
1350.94
1288.82
1225.82
1164.98
1111.43
1072.37
1053.38
1055.86
1077.77
1115.69
1165.87
1223.79
1283.94
1340.2
1386.77
1418.98
1433.7
1429.57
1407.2
1369.38
1320.89
1267.97
1217.46
1175.81
1148.34
1138.63
1148.36
1177.07
1222.24
1279.44
1342.71
1405.26
1460.37
1502.29
1527
1532.56
1519.3
1489.64
1447.94
1400.11
1353.06
1313.89
1289.02
1283.34
1299.63
1338.37
1397.68
1473.62
1560.54
1651.71
1740.01
1818.86
1882.91
1928.75
1955.08
1962.82
1954.79
1935.33
1909.77
1883.77
1862.56
1850.22
1848.98
1858.83
1877.53
1901
1923.98
1940.89
1946.57
1937.11
1910.54
1867.33
1810.47
1744.96
1677.13
1613.78
1560.91
1521.78
1495.58
1479.47
1473.62
1482.84
1509.51
1544.23
1568.51
1569.35
1547.38
1520.9
934.362
981.432
1040.14
1105.67
1169.64
1223.98
1266.48
1299.45
1322.44
1328.28
1308.69
1263.48
1201.75
1134.63
1069.08
1008.77
958.466
925.06
914.26
927.475
961.953
1012.95
1075.22
1142.95
1209.52
1267.94
1311.93
1336.96
1340.61
1322.66
1285
1231.56
1168.18
1102.12
1041.23
992.937
963.271
956.149
973.034
1012.87
1072.25
1145.71
1226.2
1305.84
1376.78
1432.21
1467.25
1479.46
1469.03
1438.61
1393.04
1338.86
1283.78
1235.83
1202.46
1189.58
1200.83
1237.25
1297.18
1376.61
1469.59
1568.86
1666.63
1755.47
1829.12
1883.28
1915.91
1927.38
1920.14
1898.26
1866.88
1831.57
1797.67
1769.67
1750.55
1741.36
1741.06
1746.78
1754.35
1759.15
1756.83
1744.06
1719.11
1682.21
1635.56
1583.02
1529.79
1482.1
1446.02
1424.68
1415.47
1411.79
1410.37
1415.97
1434.99
1463.16
1484.06
1481.99
1455.24
1424.71
809.655
846.77
893.341
952.708
1014.94
1067.07
1102.71
1124.02
1134.12
1129.55
1103.15
1053.48
988.455
919.558
854.759
797.989
753.327
727.016
724.762
748.105
793.843
856.162
928.603
1004.42
1076.25
1136.4
1178.07
1196.54
1189.86
1158.81
1106.57
1038.34
961.005
882.699
812.025
757.088
724.476
718.429
740.368
788.822
859.671
946.598
1041.68
1136.12
1221.16
1289.09
1334.18
1353.37
1346.55
1316.41
1268.05
1208.47
1145.93
1089.12
1046.33
1024.36
1027.77
1058.28
1114.71
1193.19
1287.63
1390.44
1493.25
1587.84
1667.04
1725.54
1760.45
1771.48
1760.71
1732.13
1690.91
1642.78
1593.33
1547.47
1508.93
1479.8
1460.28
1448.79
1442.33
1437.16
1429.62
1416.8
1397.13
1370.56
1338.44
1303.1
1267.94
1238.05
1219.73
1217.07
1227.28
1241.03
1251.02
1260.1
1276.67
1300.82
1319.23
1315.76
1287.93
1256.01
644.111
667.662
700.53
750.434
807.391
855.087
883.568
893.959
891.521
876.105
842.328
788.321
721.008
651.914
589.733
538.357
500.774
482.144
487.945
519.958
574.816
645.89
725.75
807.024
882.073
943.006
982.693
996.172
981.596
940.355
876.615
796.688
708.42
620.612
542.311
481.944
446.373
440.033
464.387
517.772
595.661
691.203
795.923
900.505
995.667
1073.12
1126.52
1152.22
1149.68
1121.39
1072.46
1010
942.457
878.792
827.641
796.362
790.161
811.461
859.665
931.315
1020.57
1119.86
1220.68
1314.45
1393.39
1451.39
1484.7
1492.25
1475.65
1438.68
1386.62
1325.4
1260.93
1198.51
1142.42
1095.56
1059.26
1033.15
1015.38
1003.14
993.287
983.21
971.382
957.575
942.402
926.646
911.469
900.003
898.24
911.822
939.499
971.148
996.274
1014.84
1035.16
1059.84
1078.39
1075.63
1049.76
1019.27
438.818
449.05
468.125
506.848
555.841
597.363
619.123
620.799
608.401
584.097
544.27
487.036
418.526
350.329
291.909
247.143
217.664
207.057
220.21
259.197
320.813
397.902
482.202
565.865
641.332
701.022
737.967
747.152
726.682
678.167
606.344
518.291
422.577
328.474
245.213
181.212
143.262
135.772
160.199
214.839
295.035
393.74
502.285
611.22
711.169
793.697
852.197
882.647
884.081
858.636
811.177
748.653
679.328
611.998
555.174
516.234
500.604
511.11
547.656
607.297
684.671
772.647
863.086
947.631
1018.52
1069.37
1095.91
1096.44
1071.99
1026.03
963.782
891.381
815.007
740.246
671.683
612.68
565.246
529.939
505.908
491.128
482.937
478.799
477.107
477.496
480.206
484.857
490.359
497.217
510.16
536.036
576.182
621.79
661.068
691.481
719.949
749.716
771.912
772.838
752.003
726.134
203.158
202
207.587
233.863
272.266
305.474
320.476
315.679
296.841
267.364
224.893
167.356
99.9335
34.2232
-19.2748
-56.3139
-76.5712
-78.4685
-58.1875
-13.4437
53.0614
134.047
220.582
304.339
377.916
434.368
467.361
472.192
446.996
393.367
316.19
222.888
122.432
24.368
-62.0513
-128.617
-168.837
-178.543
-156.368
-103.974
-25.9209
70.8472
177.781
285.605
385.171
468.255
528.326
561.228
565.672
543.374
498.769
438.396
370.098
302.204
242.743
198.694
175.275
175.345
199.068
243.917
305.05
375.947
449.151
517.014
572.395
609.31
623.548
613.164
578.758
523.395
452.107
371.078
286.699
204.77
130.008
65.8706
14.554
-22.9649
-46.9308
-58.7716
-60.8429
-55.7634
-45.4361
-30.3968
-10.4302
13.6308
39.0149
63.4724
89.4964
124.09
171.102
224.421
273.043
313.345
350.774
388.007
416.644
424.274
411.63
393.668
-45.6613
-56.3672
-63.0275
-49.8506
-24.4192
-2.22661
4.6148
-6.08596
-29.1301
-60.5099
-101.829
-155.87
-219.061
-280.24
-327.699
-356.185
-366.257
-358.55
-330.873
-281.008
-210.884
-127.391
-39.7914
43.1105
113.964
166.499
195.27
196.222
167.697
111.174
31.3274
-64.5459
-167.485
-267.936
-356.747
-425.973
-469.483
-483.411
-466.493
-420.247
-348.897
-258.973
-158.59
-56.5897
38.3239
118.342
177.212
210.811
217.592
198.776
158.184
101.712
36.562
-29.5908
-89.3746
-136.41
-165.916
-175.213
-164.046
-134.615
-91.2643
-39.8873
12.8234
60.1126
95.7943
114.761
113.413
90.0303
45.058
-18.8216
-96.9484
-183.322
-271.509
-355.56
-430.686
-493.524
-542.06
-575.404
-593.661
-597.972
-590.536
-574.197
-551.371
-522.94
-488.513
-448.616
-406.651
-367.024
-329.888
-289.316
-239.945
-185.023
-133.392
-88.1899
-44.6086
-0.687353
35.1371
51.4822
49.7483
42.5121
-288.199
-306.638
-322.697
-321.606
-309.995
-300.765
-303.994
-321.734
-349.047
-381.197
-419.018
-466.397
-522.292
-576.935
-617.64
-637.513
-637.215
-619.447
-584.144
-529.639
-457.036
-372.301
-284.502
-202.72
-134.359
-85.1509
-59.6289
-61.0285
-90.6288
-147.083
-226.197
-321.269
-423.862
-524.817
-615.291
-687.641
-736.046
-756.867
-748.843
-713.18
-653.494
-575.53
-486.597
-394.79
-308.166
-233.999
-178.184
-144.761
-135.547
-149.933
-184.944
-235.62
-295.677
-358.292
-416.869
-465.685
-500.424
-518.589
-519.789
-505.804
-480.368
-448.652
-416.554
-389.939
-374.005
-372.84
-389.151
-424.089
-477.1
-545.827
-626.176
-712.686
-799.231
-879.93
-949.982
-1006.14
-1046.71
-1071.21
-1079.98
-1074.17
-1055.93
-1028.37
-994.549
-955.951
-912.076
-862.621
-810.448
-760.897
-716.348
-672.667
-624.293
-572.446
-523.615
-479.493
-434.898
-387.914
-346.641
-321.32
-310.523
-305.214
-508.786
-532.159
-553.847
-561.978
-562.666
-566.042
-579.865
-605.792
-638.761
-672.619
-706.661
-745.653
-791.835
-838.138
-871.706
-883.686
-873.887
-846.505
-803.857
-745.433
-671.737
-587.451
-500.829
-420.816
-354.8
-308.123
-284.521
-286.387
-314.516
-367.647
-442.212
-532.475
-631.043
-729.664
-820.166
-895.357
-949.695
-979.648
-983.811
-962.888
-919.618
-858.602
-785.922
-708.55
-633.625
-567.744
-516.398
-483.549
-471.334
-479.88
-507.282
-549.828
-602.485
-659.561
-715.405
-765.022
-804.539
-831.556
-845.379
-847.124
-839.61
-827.003
-814.215
-806.182
-807.197
-820.437
-847.742
-889.601
-945.195
-1012.43
-1087.93
-1167.18
-1244.87
-1315.65
-1374.93
-1419.6
-1448.27
-1460.9
-1458.3
-1441.78
-1413.48
-1376.64
-1334.94
-1290.66
-1243.52
-1192.29
-1138.46
-1086.91
-1041.09
-998.543
-954.385
-909.032
-867.384
-829.754
-790.016
-745.374
-702.545
-669.996
-646.69
-628.496
-696.876
-721.418
-745.583
-759.573
-769.48
-782.706
-805.173
-838.692
-878.212
-915.492
-947.008
-977.361
-1012.18
-1048.39
-1074.32
-1079.39
-1061.73
-1026.1
-977.078
-915.814
-842.673
-760.957
-677.578
-600.802
-537.756
-493.428
-470.903
-471.824
-496.481
-543.63
-610.339
-692.024
-782.717
-875.558
-963.49
-1040.05
-1100.06
-1140.01
-1158.23
-1154.77
-1131.32
-1091.06
-1038.53
-979.189
-918.952
-863.546
-817.975
-786.118
-770.461
-771.931
-789.826
-821.901
-864.651
-913.791
-964.835
-1013.63
-1056.8
-1092
-1118.12
-1135.41
-1145.45
-1151.02
-1155.69
-1163.27
-1177.15
-1199.78
-1232.36
-1274.89
-1326.28
-1384.66
-1447.43
-1511.28
-1572.25
-1626.08
-1668.83
-1697.75
-1711.66
-1710.91
-1696.7
-1670.57
-1634.55
-1591.76
-1546.21
-1501
-1456.44
-1410.8
-1363.98
-1319.36
-1280.12
-1244.57
-1208.62
-1172.74
-1141.4
-1114.4
-1084.9
-1048.56
-1009.48
-973.351
-939.561
-910.108
-844.934
-867.345
-892.235
-909.921
-926.29
-945.747
-973.079
-1011.4
-1056.65
-1098.48
-1129.36
-1152.04
-1174.74
-1199.21
-1216.57
-1215.46
-1191.86
-1150.1
-1096.39
-1033.82
-963.103
-886.312
-808.671
-737.238
-678.508
-637.03
-615.357
-614.54
-634.449
-673.847
-730.383
-800.632
-880.206
-963.954
-1046.32
-1121.9
-1186.03
-1235.26
-1267.54
-1282.2
-1279.79
-1261.99
-1231.6
-1192.36
-1148.7
-1105.27
-1066.5
-1036.15
-1017.03
-1010.88
-1018.21
-1038.28
-1069.23
-1108.34
-1152.42
-1198.25
-1242.99
-1284.39
-1320.95
-1351.99
-1377.73
-1399.31
-1418.62
-1438.05
-1459.98
-1486.23
-1517.69
-1554.18
-1594.59
-1637.33
-1680.51
-1722.08
-1759.7
-1790.68
-1812.28
-1822.4
-1820.17
-1806.14
-1781.77
-1748.69
-1708.66
-1664.32
-1619.51
-1577.89
-1540.58
-1505.95
-1472.79
-1442.74
-1417.73
-1395.72
-1372.74
-1349.47
-1330.78
-1317.21
-1302.1
-1279.51
-1249.97
-1215.43
-1175.36
-1138.6
-948.059
-966.701
-991.31
-1012.26
-1034.03
-1057.15
-1085.45
-1124.47
-1172.72
-1218.82
-1250.73
-1267.57
-1278.54
-1290.15
-1297.81
-1290.81
-1263.19
-1217.9
-1162.02
-1100.35
-1034.35
-965.123
-896.043
-832.508
-779.964
-742.335
-721.696
-718.681
-732.929
-763.312
-808.057
-864.839
-930.825
-1002.67
-1076.53
-1148.33
-1214.13
-1270.6
-1315.29
-1346.72
-1364.29
-1368.23
-1359.62
-1340.43
-1313.52
-1282.34
-1250.65
-1222.04
-1199.69
-1186.06
-1182.81
-1190.64
-1209.26
-1237.44
-1273.29
-1314.48
-1358.66
-1403.66
-1447.58
-1488.96
-1526.72
-1560.36
-1590.01
-1616.43
-1640.83
-1664.43
-1688.04
-1711.72
-1734.81
-1756.17
-1774.69
-1789.44
-1799.64
-1804.36
-1802.42
-1792.7
-1774.78
-1749.34
-1717.87
-1681.89
-1642.71
-1602.08
-1563.11
-1529.4
-1502.76
-1482.2
-1466.24
-1455.32
-1449.96
-1447.02
-1441.69
-1434.26
-1430.2
-1431.7
-1433.47
-1428.64
-1413.91
-1386.98
-1346.83
-1308.91
-1006.93
-1021.44
-1044.23
-1068.85
-1096.61
-1122.83
-1149.63
-1185.3
-1232.54
-1280.87
-1314.52
-1327.67
-1328.38
-1327
-1324.14
-1311.35
-1281.48
-1235.67
-1180.85
-1123.14
-1064.83
-1006.32
-949.096
-896.54
-852.621
-820.376
-801.361
-795.933
-803.72
-823.912
-855.433
-897.046
-947.389
-1004.85
-1067.38
-1132.35
-1196.72
-1257.39
-1311.5
-1356.76
-1391.41
-1414.3
-1424.93
-1423.64
-1411.77
-1391.59
-1366.16
-1338.92
-1313.35
-1292.65
-1279.52
-1275.95
-1283.02
-1300.88
-1328.71
-1364.93
-1407.49
-1454.1
-1502.45
-1550.29
-1595.49
-1636.13
-1670.77
-1698.58
-1719.51
-1734.15
-1743.37
-1747.85
-1747.82
-1743.13
-1733.56
-1719.25
-1700.72
-1678.64
-1653.4
-1625.03
-1593.71
-1560.2
-1525.82
-1491.81
-1458.8
-1427.46
-1399.56
-1377.93
-1364.56
-1359.21
-1360.91
-1369.95
-1386.16
-1405.25
-1420.96
-1432.2
-1444.41
-1461.69
-1481.16
-1495.99
-1499.77
-1486.23
-1453.48
-1421.75
-1030.57
-1040.43
-1058.73
-1086.86
-1121.68
-1152.16
-1177.09
-1206.58
-1248.42
-1295.38
-1329.85
-1340.93
-1333.52
-1320.12
-1306.62
-1288.24
-1257.82
-1214.61
-1164.62
-1114.58
-1067.56
-1023.45
-981.879
-943.948
-911.747
-887.107
-870.936
-863.363
-864.175
-873.11
-889.985
-914.75
-947.477
-988.188
-1036.51
-1091.32
-1150.59
-1211.58
-1271.12
-1326.09
-1373.58
-1411.15
-1436.88
-1449.71
-1449.63
-1437.87
-1416.82
-1389.8
-1360.59
-1333.1
-1310.97
-1297.32
-1294.43
-1303.55
-1324.77
-1357.02
-1398.28
-1445.94
-1497.01
-1548.4
-1597.01
-1639.85
-1674.22
-1698.04
-1710.16
-1710.52
-1700.06
-1680.25
-1652.61
-1618.44
-1578.85
-1535.12
-1488.89
-1442.02
-1396.16
-1352.42
-1311.49
-1274.15
-1241.43
-1214.1
-1192.08
-1174.84
-1162.56
-1156.63
-1158.46
-1168.2
-1185.75
-1212.29
-1248.15
-1288.82
-1326.58
-1358.15
-1387.82
-1421.02
-1457.56
-1491.7
-1515.25
-1519.31
-1501.28
-1482.48
-1035.47
-1039.13
-1049.73
-1079.86
-1121.89
-1158.35
-1182.86
-1205.23
-1237.93
-1278.94
-1311.58
-1320.89
-1307.36
-1283.61
-1260.1
-1236.64
-1207.27
-1169.73
-1128.44
-1090.05
-1058.14
-1032.22
-1010.23
-990.809
-973.843
-959.621
-948.212
-939.471
-933.414
-930.48
-931.573
-937.979
-951.241
-972.922
-1004.21
-1045.39
-1095.53
-1152.36
-1212.57
-1272.28
-1327.53
-1374.61
-1410.38
-1432.57
-1440.09
-1433.29
-1414.04
-1385.54
-1351.9
-1317.66
-1287.34
-1265.02
-1253.97
-1256.32
-1272.85
-1302.8
-1344.04
-1393.37
-1446.91
-1500.52
-1550.09
-1591.7
-1621.82
-1637.57
-1637.06
-1619.75
-1586.62
-1539.89
-1482.49
-1417.49
-1347.77
-1276
-1204.91
-1137.24
-1075.42
-1021.21
-975.592
-939.179
-912.484
-895.671
-887.982
-887.831
-893.866
-905.784
-923.743
-947.579
-977.848
-1017.14
-1067.56
-1125.8
-1183.58
-1235.24
-1282.77
-1331.67
-1383.85
-1435.16
-1477.13
-1500.29
-1502.27
-1500.57
-1041.44
-1036.81
-1037.44
-1066.87
-1114.57
-1157.98
-1184.39
-1200.58
-1221.86
-1252.35
-1279.15
-1285.38
-1266.87
-1234.54
-1202.13
-1174.34
-1147.52
-1118.42
-1089.5
-1066.53
-1053.2
-1048.79
-1049.74
-1052.31
-1053.92
-1053.05
-1048.71
-1040.39
-1028.32
-1013.66
-998.52
-985.63
-978.069
-978.901
-990.725
-1015.13
-1052.2
-1100.27
-1156.06
-1215.15
-1272.65
-1323.74
-1364.15
-1390.61
-1401.19
-1395.59
-1375.29
-1343.43
-1304.44
-1263.45
-1225.73
-1196.17
-1178.8
-1176.4
-1190.2
-1219.65
-1262.41
-1314.62
-1371.37
-1427.29
-1477.1
-1515.98
-1539.8
-1545.29
-1530.34
-1494.3
-1438.26
-1365.06
-1278.89
-1184.58
-1086.95
-990.378
-898.803
-815.682
-743.855
-685.221
-640.618
-610.111
-593.407
-589.847
-597.976
-615.457
-639.84
-669.345
-702.645
-738.606
-777.759
-823.955
-881.81
-950.7
-1023.3
-1092.24
-1156.66
-1220.68
-1286.97
-1352.47
-1409.52
-1450.18
-1473.92
-1489.63
-1066.95
-1052.94
-1043.72
-1069.49
-1119.57
-1169.25
-1199.58
-1211.78
-1221.14
-1237.51
-1254.02
-1254.54
-1230.99
-1191.39
-1151.23
-1119.85
-1096.74
-1078.36
-1064.98
-1060.68
-1068.71
-1088.14
-1114.24
-1141.14
-1163.78
-1178.64
-1183.51
-1177.4
-1160.69
-1135.24
-1104.31
-1072.11
-1043.29
-1022.37
-1013.24
-1018.61
-1039.49
-1074.81
-1121.49
-1174.84
-1229.26
-1279
-1318.85
-1344.73
-1354.04
-1346.04
-1321.97
-1285.01
-1239.86
-1192.2
-1147.96
-1112.65
-1090.86
-1085.77
-1098.83
-1129.51
-1175.26
-1231.6
-1292.67
-1351.87
-1402.65
-1439.17
-1456.72
-1451.93
-1422.87
-1369.24
-1292.54
-1196.21
-1085.39
-966.349
-845.681
-729.53
-623.164
-530.792
-455.449
-398.804
-361.097
-341.427
-338.275
-349.802
-373.697
-407.098
-447.056
-491.009
-536.523
-581.258
-624.983
-672.06
-729.522
-800.371
-879.905
-960.469
-1038.68
-1116.4
-1195.36
-1272.32
-1340.35
-1394.54
-1437.69
-1467.58
-1126.25
-1104.13
-1088.26
-1108.3
-1156.58
-1209.98
-1244.97
-1255.59
-1254
-1254.14
-1256.33
-1247.83
-1218.2
-1171.95
-1124.84
-1090.2
-1071.26
-1065
-1069.51
-1086.42
-1117.75
-1162.15
-1214.13
-1266.11
-1310.8
-1342.65
-1358.15
-1355.76
-1335.93
-1301.15
-1255.73
-1205.26
-1155.89
-1113.55
-1083.33
-1068.87
-1071.9
-1091.89
-1126.03
-1169.55
-1216.43
-1260.25
-1295.11
-1316.24
-1320.6
-1307.16
-1277.08
-1233.61
-1181.75
-1127.63
-1077.76
-1038.18
-1013.85
-1008.12
-1022.43
-1056.08
-1106.19
-1167.8
-1234.3
-1298.07
-1351.4
-1387.37
-1400.59
-1387.57
-1346.81
-1278.73
-1185.62
-1071.64
-942.717
-806.111
-669.705
-541.087
-426.781
-331.767
-259.246
-210.51
-184.951
-180.393
-193.723
-221.491
-260.174
-306.347
-357.02
-409.739
-461.87
-510.308
-553.703
-595.986
-645.736
-709.604
-786.641
-870.612
-956.892
-1045.12
-1134.95
-1221.25
-1296.69
-1359.53
-1416.58
-1455.41
-1228.14
-1202.06
-1185.43
-1199.49
-1242.09
-1295.46
-1334.17
-1344.9
-1334.07
-1317.34
-1302.22
-1281.4
-1244.01
-1191.13
-1137.42
-1099.19
-1083.76
-1089.59
-1112.98
-1152.55
-1208.16
-1277.58
-1354.75
-1430.91
-1497.02
-1545.74
-1572.27
-1574.48
-1552.88
-1510.49
-1452.51
-1385.77
-1317.74
-1255.68
-1205.74
-1172.33
-1157.73
-1161.78
-1181.87
-1213.28
-1249.78
-1284.58
-1311.27
-1324.67
-1321.43
-1300.4
-1262.76
-1211.89
-1153.07
-1092.84
-1038.17
-995.558
-970.266
-965.696
-983.071
-1021.32
-1077.1
-1144.99
-1217.84
-1287.38
-1345.04
-1383
-1395.15
-1377.71
-1329.52
-1251.85
-1148.05
-1023.29
-884.253
-738.862
-595.711
-463.234
-348.798
-257.974
-194.099
-158.101
-148.538
-161.937
-193.476
-237.808
-289.781
-345.063
-400.707
-455.029
-506.314
-551.716
-589.124
-621.393
-657.435
-706.6
-771.846
-849.626
-935.773
-1028.84
-1126.32
-1219.96
-1300.27
-1367.45
-1431.67
-1474.35
-1375.97
-1352.27
-1342.1
-1352.01
-1386.59
-1436.14
-1476.41
-1487.84
-1469.55
-1436.41
-1402.14
-1366.14
-1319.15
-1259.33
-1199.07
-1156.29
-1142.35
-1158.26
-1199.45
-1261.41
-1341.06
-1434.51
-1535.02
-1633.1
-1718.56
-1782.69
-1819.6
-1826.62
-1804.3
-1756.11
-1688.01
-1607.81
-1524.12
-1445.31
-1378.46
-1328.66
-1298.56
-1288.16
-1294.95
-1314.21
-1339.63
-1364.24
-1381.38
-1385.62
-1373.49
-1343.83
-1297.95
-1239.44
-1173.83
-1107.98
-1049.22
-1004.45
-979.19
-976.897
-998.552
-1042.59
-1105.08
-1180.05
-1259.92
-1336.06
-1399.52
-1441.93
-1456.64
-1439.49
-1389.4
-1308.3
-1200.61
-1072.64
-931.993
-787.116
-646.875
-519.895
-413.742
-334.11
-284.245
-264.691
-273.309
-305.584
-355.243
-415.141
-478.286
-539.019
-594.086
-642.742
-685.018
-719.605
-744.625
-761.96
-779.831
-808.842
-854.903
-917.424
-994.048
-1083.97
-1183.63
-1281.58
-1364.78
-1433.29
-1498.84
-1541.95
-1567.88
-1553.57
-1556.62
-1565.86
-1592.29
-1635.43
-1674.86
-1686.78
-1662.66
-1614.41
-1560.26
-1506.89
-1448.52
-1381.4
-1314.66
-1266.17
-1250.64
-1272.51
-1327.7
-1409.28
-1510.82
-1626.02
-1746.99
-1863.74
-1965.44
-2042.55
-2088.4
-2099.95
-2077.77
-2025.72
-1950.39
-1860.31
-1764.94
-1673.53
-1593.91
-1531.72
-1489.85
-1468.38
-1464.7
-1474.01
-1489.91
-1505.35
-1513.54
-1508.98
-1488.19
-1450.14
-1396.33
-1330.65
-1258.87
-1188.08
-1125.89
-1079.45
-1054.56
-1054.77
-1080.93
-1131.07
-1200.63
-1282.99
-1370.13
-1453.21
-1523.23
-1571.81
-1592.11
-1579.73
-1533.5
-1455.61
-1351.25
-1227.79
-1093.76
-958.2
-830.039
-717.627
-628.085
-566.597
-535.847
-535.751
-563.503
-613.856
-679.621
-752.384
-823.589
-886.058
-935.756
-972.482
-998.249
-1014.23
-1020.14
-1017.68
-1014.14
-1020.04
-1042.66
-1083.43
-1142.13
-1220.02
-1314.35
-1411.74
-1495.39
-1563.31
-1626.35
-1668.54
-1797.31
-1798.27
-1819.21
-1831.9
-1852.19
-1888.26
-1925.2
-1937.33
-1909.17
-1848
-1774.48
-1702.33
-1630.97
-1556.22
-1483.45
-1428.56
-1408.17
-1430.38
-1493.15
-1588.51
-1707.14
-1839.91
-1977.28
-2108.56
-2222.66
-2309.68
-2362.58
-2378.1
-2356.89
-2303.15
-2223.92
-2128.24
-2026.12
-1927.32
-1840.21
-1770.81
-1722.2
-1694.4
-1684.68
-1688
-1697.86
-1707.07
-1708.82
-1697.58
-1669.92
-1624.99
-1564.58
-1492.88
-1415.98
-1341.18
-1276.22
-1228.42
-1203.7
-1205.81
-1235.64
-1291
-1366.89
-1456.11
-1550.11
-1639.83
-1716.39
-1771.76
-1799.38
-1794.99
-1757.33
-1688.63
-1594.36
-1482.52
-1362.44
-1243.69
-1135.27
-1045.06
-979.333
-942.226
-935.296
-957.377
-1004.75
-1071.55
-1150.14
-1231.63
-1306.63
-1366.82
-1407.1
-1427.22
-1430.71
-1421.55
-1402.05
-1375.04
-1347.47
-1329.21
-1327.37
-1343.77
-1379.37
-1437.84
-1518.87
-1609.27
-1689.77
-1755.36
-1814.16
-1855.31
-2053.39
-2072.9
-2113.5
-2133.3
-2150.86
-2181.11
-2215.2
-2227.86
-2198.12
-2127.55
-2036.76
-1945.52
-1859.79
-1776.94
-1698.96
-1638.02
-1610.49
-1627.45
-1689.86
-1790.53
-1918.53
-2062.27
-2210.25
-2350.91
-2472.88
-2566.27
-2623.98
-2642.75
-2623.34
-2570.23
-2490.76
-2394.28
-2290.98
-2190.83
-2102.41
-2031.88
-1982.4
-1953.93
-1943.51
-1945.89
-1954.35
-1961.61
-1960.78
-1946.34
-1914.9
-1865.76
-1800.99
-1725.11
-1644.56
-1566.88
-1499.91
-1450.98
-1426.07
-1429
-1460.81
-1519.42
-1599.68
-1694.06
-1793.57
-1888.87
-1971.15
-2032.82
-2067.99
-2072.94
-2046.65
-1991.3
-1912.32
-1817.82
-1717.47
-1621.15
-1537.91
-1475.15
-1438.22
-1429.95
-1450.41
-1496.89
-1564.35
-1646.04
-1734.05
-1819.64
-1893.55
-1947.12
-1974.51
-1974.99
-1952.85
-1914.33
-1864.71
-1809.04
-1755.05
-1712.41
-1687.41
-1680.63
-1692.4
-1727.78
-1789.48
-1866.5
-1939.33
-2000.44
-2054.37
-2094.32
-2321.48
-2359.56
-2418.77
-2448.17
-2466.89
-2493.85
-2525.89
-2540.22
-2512.37
-2437.6
-2333.81
-2224.84
-2123.84
-2032.06
-1949.52
-1883.78
-1848.68
-1856.42
-1911.06
-2007.59
-2135.27
-2281.15
-2432.16
-2575.73
-2700.26
-2795.94
-2855.86
-2876.88
-2859.94
-2809.66
-2733.57
-2641.08
-2542.35
-2447.19
-2364.02
-2298.88
-2254.8
-2231.61
-2226.13
-2232.9
-2244.98
-2254.99
-2255.99
-2242.45
-2211.03
-2161.1
-2094.89
-2017.22
-1934.84
-1855.58
-1787.43
-1737.67
-1712.2
-1714.81
-1746.65
-1805.87
-1887.56
-1984.25
-2086.82
-2185.69
-2272.04
-2338.64
-2380.31
-2394.14
-2379.73
-2339.46
-2278.59
-2204.95
-2128.01
-2057.57
-2002.45
-1969.6
-1963.5
-1985.77
-2034.97
-2106.73
-2194.31
-2289.68
-2384.42
-2470.11
-2538.35
-2581.18
-2592.8
-2572.12
-2523.47
-2454.48
-2372.83
-2286.13
-2203.97
-2136.96
-2090.97
-2064.66
-2055.98
-2069.39
-2109.7
-2169.14
-2230.16
-2284.11
-2332.58
-2369.91
-2583.8
-2637.62
-2712.33
-2752.55
-2776.2
-2803.03
-2834.49
-2852.12
-2830.37
-2758.32
-2648.43
-2525.6
-2409.58
-2307.57
-2220.1
-2150.71
-2109.02
-2106.12
-2147.91
-2232.17
-2349.84
-2488.19
-2633.51
-2772.61
-2893.69
-2987.11
-3046.24
-3068.17
-3053.94
-3008.24
-2938.62
-2854.36
-2765.34
-2680.99
-2609.23
-2555.68
-2523.02
-2510.78
-2515.54
-2531.62
-2551.92
-2568.97
-2575.84
-2567.08
-2539.36
-2492.1
-2427.56
-2350.7
-2268.5
-2189.06
-2120.54
-2070.26
-2043.97
-2045.29
-2075.36
-2132.52
-2212.29
-2307.65
-2409.76
-2509.16
-2597.04
-2666.36
-2712.48
-2733.34
-2729.37
-2703.44
-2660.82
-2608.94
-2556.69
-2513.24
-2486.87
-2483.82
-2507.75
-2559.26
-2635.72
-2731.28
-2837.63
-2945.21
-3044.66
-3127.64
-3186.79
-3215.61
-3209.39
-3167.23
-3093.47
-2996.12
-2884.2
-2767.23
-2657.04
-2566.2
-2501.51
-2460.17
-2436.96
-2433.71
-2455.35
-2496.9
-2543.92
-2588.25
-2629.85
-2661.44
-2820.96
-2885.81
-2971.8
-3023.22
-3055.35
-3085.51
-3118.19
-3140.7
-3129.34
-3068
-2961.51
-2831.98
-2703.57
-2590.34
-2496.18
-2422.71
-2375.23
-2361.85
-2388.54
-2455.2
-2555.22
-2677.42
-2808.69
-2935.96
-3047.55
-3134.11
-3189.35
-3210.58
-3198.9
-3158.92
-3097.99
-3025.11
-2949.74
-2880.71
-2825.25
-2788.3
-2771.98
-2775.36
-2794.69
-2824.05
-2856.18
-2883.59
-2899.42
-2898.34
-2877.19
-2835.39
-2775.22
-2701.58
-2621.51
-2543.23
-2475.08
-2424.48
-2397.1
-2396.36
-2423.2
-2476.01
-2550.69
-2640.85
-2738.35
-2834.25
-2920.05
-2988.92
-3036.55
-3061.53
-3065.07
-3050.72
-3024.03
-2992.17
-2963.31
-2945.75
-2946.73
-2971.49
-3022.64
-3099.85
-3199.55
-3315
-3436.72
-3553.87
-3655.97
-3734.31
-3782.31
-3795.15
-3769.9
-3706.91
-3610.86
-3489.83
-3353
-3210.58
-3075.81
-2963.65
-2883.01
-2831.18
-2800.21
-2788.17
-2798.03
-2825.83
-2859.95
-2893.37
-2926.12
-2947.72
-3014.39
-3084.85
-3177.4
-3240.04
-3284.25
-3321.66
-3357.77
-3386.49
-3388.96
-3346.17
-3254.26
-3128.75
-2994.36
-2871.04
-2768.03
-2688.01
-2633.59
-2609.49
-2620.18
-2666.48
-2743.96
-2843.72
-2954.26
-3063.48
-3160.35
-3236.01
-3284.57
-3303.57
-3294.05
-3260.39
-3209.54
-3150.01
-3090.67