/*--------------------------------*- C++ -*----------------------------------*\
| =========                 |                                                 |
| \\      /  F ield         | OpenFOAM: The Open Source CFD Toolbox           |
|  \\    /   O peration     | Version:  2406                                  |
|   \\  /    A nd           | Website:  www.openfoam.com                      |
|    \\/     M anipulation  |                                                 |
\*---------------------------------------------------------------------------*/
FoamFile
{
    version     2.0;
    format      ascii;
    arch        "LSB;label=32;scalar=64";
    class       volScalarField;
    location    "4";
    object      p_rgh;
}
// * * * * * * * * * * * * * * * * * * * * * * * * * * * * * * * * * * * * * //

dimensions      [1 -1 -2 0 0 0 0];

internalField   nonuniform List<scalar> 
10000
(
1294.48
1297.69
1304.93
1319.72
1345.97
1379.73
1418.4
1458.71
1497.83
1537.63
1581.15
1624.07
1654.69
1663.64
1651.17
1624.5
1590.03
1549.65
1503.25
1452.71
1402.72
1358.59
1324.05
1300.97
1290.26
1292.53
1307.83
1334.99
1371.23
1412.37
1453.76
1491.22
1521.89
1544.39
1558.52
1564.64
1563.17
1554.4
1538.66
1516.61
1489.29
1458
1423.95
1387.92
1350.24
1310.93
1270.17
1228.62
1187.58
1148.96
1114.95
1087.67
1068.83
1059.52
1059.94
1069.31
1085.82
1106.61
1128.06
1146.05
1156.37
1155.1
1139.08
1106.31
1056.42
990.945
913.422
829.166
744.781
667.488
604.376
561.66
543.988
553.846
591.115
652.893
733.638
825.679
920.037
1007.44
1079.37
1129.04
1152.22
1147.75
1117.83
1067.93
1006.1
942.001
885.416
844.972
827.123
835.659
871.516
932.651
1013.99
1107.88
1205.47
1298.69
1381.27
1442.12
1337.67
1331.49
1338.75
1359.6
1392.7
1434.32
1481.51
1529.76
1574.55
1615.18
1653.38
1687.56
1711.19
1717.64
1705.38
1678.11
1640.78
1596.5
1547.02
1494.92
1444.47
1400.52
1366.88
1345.73
1337.92
1343.45
1361.59
1390.6
1427.67
1469.08
1510.75
1548.85
1580.41
1603.63
1617.87
1623.38
1620.93
1611.49
1596.02
1575.46
1550.68
1522.45
1491.37
1457.8
1421.9
1383.81
1343.86
1302.83
1262.1
1223.54
1189.39
1161.89
1142.97
1133.95
1135.31
1146.45
1165.61
1189.87
1215.37
1237.59
1251.89
1254.01
1240.55
1209.51
1160.66
1095.75
1018.58
934.731
851.109
775.213
714.35
674.818
661.178
675.665
717.813
784.332
869.318
964.774
1061.44
1149.79
1221.19
1268.82
1288.57
1279.52
1244.16
1188.14
1119.77
1048.97
986.029
940.243
918.687
925.379
960.834
1021.85
1101.73
1191.55
1283.13
1371.92
1454.44
1521.24
1421.09
1418.69
1427.85
1455.01
1496.42
1548.69
1607.36
1664.04
1710.11
1744.66
1773.39
1799.3
1817.73
1820.76
1804.77
1772.72
1730.47
1682.47
1631.14
1579.01
1530.16
1489.39
1460.47
1445.13
1443.35
1454.14
1476
1507.04
1544.76
1585.98
1627
1664.08
1694.1
1715.12
1726.69
1729.62
1725.48
1715.95
1702.35
1685.47
1665.67
1643.03
1617.55
1589.2
1557.96
1523.88
1487.2
1448.6
1409.32
1371.27
1336.85
1308.63
1289.03
1279.85
1282
1295.2
1317.84
1346.93
1378.33
1407.18
1428.42
1437.48
1430.76
1406.15
1363.4
1304.27
1232.64
1154.2
1075.99
1005.61
950.415
916.616
908.579
928.27
974.931
1045.02
1132.4
1228.94
1325.24
1411.75
1479.83
1522.81
1536.76
1520.93
1477.98
1413.72
1336.71
1257.31
1186.47
1134.03
1107.3
1109.92
1141.49
1197.46
1269.71
1348.63
1427.53
1506.42
1585.81
1648.49
1527.58
1534.44
1549.13
1577.79
1620.64
1677.48
1744.03
1809.39
1860.89
1894.4
1915.63
1931.04
1939.94
1936
1914.67
1877.8
1831.59
1781.81
1731.79
1683.92
1641.52
1608.78
1589.02
1583.5
1591.31
1610.29
1637.78
1671.05
1707.45
1744.25
1778.65
1807.95
1829.91
1843.21
1847.86
1845.09
1837
1825.82
1813.32
1800.41
1787.12
1772.87
1756.81
1738.04
1715.83
1689.67
1659.42
1625.48
1588.96
1551.78
1516.58
1486.4
1464.22
1452.53
1452.93
1465.77
1489.96
1522.92
1560.63
1598.11
1629.96
1651.05
1657.22
1645.79
1615.97
1569.07
1508.58
1439.91
1369.96
1306.33
1256.47
1226.71
1221.51
1242.84
1289.93
1359.23
1444.63
1538.06
1630.24
1711.73
1774.06
1810.8
1818.37
1796.41
1747.84
1678.53
1596.84
1512.9
1437.49
1380.57
1349.7
1348.71
1377.07
1429.47
1496.19
1565.93
1632.14
1697.61
1766.12
1814.83
1672.58
1684.62
1710.36
1741.68
1783.17
1839
1907.61
1977.85
2033.93
2067.52
2082.15
2086
2082.56
2068.7
2040.52
1999.17
1950.74
1901.85
1856.55
1816.98
1785.44
1764.97
1758.05
1765.19
1784.69
1813.29
1847.14
1882.53
1916.3
1945.99
1969.76
1986.36
1995.08
1995.96
1989.95
1978.93
1965.46
1952.18
1941.18
1933.49
1928.89
1926.12
1923.3
1918.37
1909.47
1895.19
1874.7
1847.97
1815.88
1780.38
1744.38
1711.44
1685.27
1669.21
1665.77
1676.17
1700.17
1735.86
1779.71
1826.89
1871.78
1908.72
1932.78
1940.35
1929.69
1901.18
1857.43
1803.14
1744.69
1689.43
1644.84
1617.45
1612.05
1631
1673.85
1737.38
1815.84
1901.48
1985.41
2058.5
2112.6
2141.58
2142.18
2114.43
2061.48
1989.19
1905.51
1819.82
1742.14
1681.86
1646.4
1639.99
1662.84
1710.03
1770.81
1831.46
1883.57
1931.07
1980.54
2009.84
1835.55
1853.92
1894.56
1932.79
1974.91
2027.71
2093.14
2162.39
2219.18
2251.63
2259.63
2251.27
2233.59
2207.43
2170.68
2124.34
2074.19
2027.29
1988.25
1958.97
1940.57
1934.6
1942.29
1963.24
1994.97
2033.4
2073.78
2111.54
2142.93
2165.41
2177.83
2180.25
2173.76
2160.15
2141.81
2121.59
2102.59
2087.76
2079.29
2078.19
2083.94
2094.62
2107.32
2118.72
2125.7
2125.7
2117.08
2099.26
2072.87
2039.86
2003.4
1967.61
1936.98
1915.78
1907.48
1914.26
1936.77
1973.88
2022.71
2078.79
2136.53
2189.91
2233.29
2262.12
2273.57
2266.88
2243.52
2207.13
2163.2
2118.5
2080.2
2054.95
2047.89
2061.9
2097.13
2150.96
2218.26
2291.93
2363.69
2425.01
2468.19
2487.47
2479.92
2445.84
2388.66
2314.23
2230.1
2144.78
2067.05
2005.04
1965.2
1951.74
1966.12
2005.37
2059.45
2112.56
2152.67
2181.81
2207.93
2217.24
1984.85
2014.64
2070.18
2119.28
2166.3
2217.62
2277.45
2340.72
2393.42
2422.01
2422.69
2402.01
2369.33
2329.44
2282.67
2230.41
2178.17
2133.21
2100.56
2081.9
2077.19
2086.29
2108.87
2143.35
2186.4
2233.31
2278.83
2317.97
2346.66
2362.32
2364.19
2353.35
2332.39
2304.87
2274.82
2246.28
2223.03
2208.23
2204.02
2211.13
2228.57
2253.73
2282.72
2311.03
2334.28
2348.83
2352.2
2343.3
2322.57
2291.99
2255.04
2216.37
2181.26
2154.9
2141.7
2144.75
2165.46
2203.38
2256.17
2319.74
2388.65
2456.71
2517.77
2566.54
2599.25
2614.08
2611.4
2593.71
2565.43
2532.42
2501.26
2478.39
2469.11
2476.77
2502.2
2543.56
2596.53
2654.91
2711.3
2758.03
2788.11
2796.31
2779.99
2739.71
2679
2603.73
2521.13
2438.95
2364.67
2304.61
2263.3
2243.86
2248.67
2277.71
2323.81
2370.97
2403.25
2418.06
2422.33
2414.96
2103.76
2146.13
2211.24
2271.13
2325.75
2378.02
2432.03
2486.39
2531.24
2553.62
2546.88
2515.26
2469.1
2416.35
2360
2302.21
2248.3
2205.56
2179.37
2171.22
2179.98
2203.82
2240.67
2287.53
2340.03
2392.84
2440.47
2477.97
2501.53
2508.9
2499.82
2476.17
2441.7
2401.47
2361.01
2325.64
2299.88
2287.09
2289.2
2306.41
2337.08
2377.74
2423.52
2468.77
2507.94
2536.33
2550.7
2549.55
2533.21
2503.85
2465.33
2422.9
2382.63
2350.64
2332.32
2331.6
2350.58
2389.28
2445.68
2515.87
2594.43
2674.99
2750.99
2816.53
2867.05
2899.9
2914.53
2912.51
2897.3
2873.86
2848.04
2825.86
2812.59
2811.96
2825.47
2852.17
2888.71
2929.91
2969.42
3000.61
3017.41
3015.21
2991.75
2947.61
2886.24
2813.3
2735.68
2660.6
2594.51
2541.91
2504.68
2483.5
2480.49
2498.6
2535.2
2576.56
2604.29
2610.13
2598.09
2578.95
2188.82
2238.1
2304.1
2370.14
2431.36
2485.38
2533.85
2577.95
2612.67
2627.42
2614.02
2574.3
2518.33
2456.21
2393.21
2332.37
2278.82
2239.76
2220.77
2223.25
2245.16
2283.08
2333.26
2391.18
2451.33
2507.59
2554.16
2586.37
2601.09
2596.96
2574.59
2536.77
2488.28
2435.36
2384.85
2343.2
2315.73
2306.02
2315.75
2344.46
2389.63
2446.83
2510.1
2572.65
2627.76
2669.68
2694.39
2699.95
2686.69
2657.03
2615.33
2567.5
2520.45
2481.28
2456.41
2450.73
2467.02
2505.76
2565.07
2641.01
2727.93
2819.1
2907.4
2986.25
3050.3
3096.14
3122.47
3130.21
3122.18
3102.72
3077.16
3051.16
3029.95
3017.61
3016.37
3026.22
3044.92
3068.39
3091.37
3108.28
3113.96
3104.5
3077.93
3034.72
2977.86
2912.35
2844.52
2781.17
2728.3
2689.17
2662.97
2646.86
2641.01
2650.23
2676.9
2711.62
2735.9
2736.74
2714.77
2688.29
2239.09
2286.16
2344.87
2410.4
2474.37
2528.71
2571.21
2604.18
2627.17
2633.01
2613.42
2568.21
2506.48
2439.36
2373.81
2313.5
2263.2
2229.79
2218.99
2232.21
2266.68
2317.68
2379.95
2447.68
2514.25
2572.67
2616.66
2641.69
2645.34
2627.39
2589.73
2536.29
2472.91
2406.85
2345.96
2297.67
2268
2260.88
2277.76
2317.6
2376.98
2450.44
2530.93
2610.57
2681.51
2736.94
2771.98
2784.19
2773.76
2743.34
2697.77
2643.59
2588.51
2540.56
2507.19
2494.31
2505.56
2541.98
2601.91
2681.34
2774.32
2873.59
2971.36
3060.2
3133.85
3188.01
3220.64
3232.11
3224.87
3202.99
3171.61
3136.3
3102.4
3074.4
3055.28
3046.09
3045.79
3051.51
3059.08
3063.88
3061.56
3048.79
3023.84
2986.94
2940.29
2887.75
2834.52
2786.83
2750.75
2729.41
2720.2
2716.52
2715.1
2720.7
2739.72
2767.89
2788.79
2786.72
2759.97
2729.44
2251.73
2288.84
2335.41
2394.78
2457.01
2509.14
2544.78
2566.09
2576.19
2571.62
2545.22
2495.55
2430.53
2361.63
2296.83
2240.06
2195.4
2169.09
2166.83
2190.18
2235.91
2298.23
2370.67
2446.49
2518.32
2578.47
2620.14
2638.61
2631.93
2600.88
2548.64
2480.41
2403.07
2324.77
2254.09
2199.16
2166.55
2160.5
2182.44
2230.89
2301.74
2388.67
2483.75
2578.19
2663.23
2731.16
2776.25
2795.44
2788.62
2758.48
2710.12
2650.54
2588
2531.19
2488.4
2466.43
2469.84
2500.35
2556.78
2635.26
2729.7
2832.51
2935.32
3029.91
3109.11
3167.61
3202.52
3213.55
3202.78
3174.2
3132.98
3084.85
3035.4
2989.54
2951
2921.87
2902.35
2890.86
2884.4
2879.23
2871.69
2858.87
2839.2
2812.63
2780.51
2745.17
2710.01
2680.12
2661.8
2659.14
2669.35
2683.1
2693.09
2702.17
2718.74
2742.89
2761.3
2757.83
2730
2698.08
2223.52
2247.07
2279.94
2329.84
2386.8
2434.5
2462.98
2473.37
2470.93
2455.51
2421.74
2367.73
2300.42
2231.32
2169.14
2117.77
2080.18
2061.55
2067.36
2099.37
2154.23
2225.3
2305.16
2386.43
2461.48
2522.42
2562.1
2575.58
2561.01
2519.76
2456.03
2376.1
2287.83
2200.02
2121.72
2061.35
2025.78
2019.44
2043.8
2097.18
2175.07
2270.61
2375.33
2479.92
2575.08
2652.53
2705.93
2731.63
2729.09
2700.8
2651.87
2589.41
2521.87
2458.2
2407.05
2375.77
2369.57
2390.87
2439.07
2510.72
2599.98
2699.27
2800.09
2893.86
2972.8
3030.8
3064.11
3071.66
3055.06
3018.09
2966.03
2904.81
2840.34
2777.92
2721.83
2674.97
2638.67
2612.56
2594.79
2582.55
2572.7
2562.62
2550.79
2536.98
2521.81
2506.06
2490.88
2479.41
2477.65
2491.23
2518.91
2550.56
2575.68
2594.25
2614.57
2639.25
2657.8
2655.04
2629.17
2598.68
2155.57
2165.8
2184.88
2223.6
2272.59
2314.11
2335.87
2337.55
2325.15
2300.85
2261.02
2203.79
2135.28
2067.08
2008.66
1963.89
1934.41
1923.81
1936.96
1975.95
2037.56
2114.65
2198.95
2282.62
2358.08
2417.77
2454.72
2463.9
2443.43
2394.92
2323.09
2235.04
2139.33
2045.22
1961.96
1897.96
1860.01
1852.52
1876.95
1931.59
2011.79
2110.49
2219.03
2327.97
2427.92
2510.45
2568.95
2599.4
2600.83
2575.39
2527.93
2465.4
2396.08
2328.75
2271.92
2232.98
2217.35
2227.86
2264.41
2324.05
2401.42
2489.4
2579.84
2664.38
2735.27
2786.12
2812.66
2813.19
2788.74
2742.78
2680.53
2608.13
2531.76
2457
2388.43
2329.43
2282
2246.69
2222.66
2207.88
2199.69
2195.55
2193.86
2194.25
2196.96
2201.61
2207.11
2213.97
2226.91
2252.79
2292.93
2338.54
2377.82
2408.23
2436.7
2466.47
2488.66
2489.59
2468.75
2442.88
2057.25
2056.09
2061.68
2087.95
2126.36
2159.56
2174.57
2169.77
2150.93
2121.45
2078.98
2021.45
1954.02
1888.31
1834.82
1797.78
1777.52
1775.62
1795.9
1840.65
1907.15
1988.14
2074.67
2158.43
2232.01
2288.46
2321.45
2326.28
2301.09
2247.46
2170.28
2076.98
1976.52
1878.46
1792.04
1725.47
1685.25
1675.55
1697.72
1750.12
1828.17
1924.94
2031.87
2139.7
2239.26
2322.35
2382.42
2415.32
2419.76
2397.46
2352.86
2292.49
2224.19
2156.29
2096.83
2052.78
2029.36
2029.44
2053.16
2098.01
2159.14
2230.04
2303.24
2371.1
2426.48
2463.4
2477.64
2467.25
2432.85
2377.48
2306.2
2225.17
2140.79
2058.86
1984.1
1919.96
1868.64
1831.13
1807.16
1795.32
1793.25
1798.33
1808.65
1823.69
1843.66
1867.72
1893.1
1917.56
1943.59
1978.18
2025.19
2078.51
2127.13
2167.44
2204.86
2242.1
2270.73
2278.36
2265.72
2247.76
1945.77
1935.06
1928.4
1941.58
1967.01
1989.2
1996.04
1985.34
1962.3
1930.92
1889.6
1835.56
1772.37
1711.19
1663.73
1635.25
1625.17
1632.88
1660.56
1710.42
1780.55
1864.04
1951.64
2034.54
2105.39
2157.93
2186.7
2187.65
2159.13
2102.6
2022.76
1926.88
1823.95
1723.49
1634.68
1565.46
1521.95
1508.02
1524.94
1571.18
1642.53
1732.46
1832.84
1934.84
2029.75
2109.77
2168.64
2202.24
2209.02
2190.21
2149.61
2093.14
2027.99
1961.84
1902.06
1855.02
1825.51
1816.22
1827.38
1856.82
1900.17
1951.54
2004.25
2051.54
2087.22
2106.19
2104.84
2081.46
2036.49
1972.61
1894.48
1808.11
1719.92
1635.87
1560.74
1497.91
1449.37
1416.03
1397.77
1393.46
1400.89
1417.23
1440.06
1468.49
1502.92
1542.81
1584.78
1624.41
1661.54
1702.11
1751.48
1806.41
1858.04
1903.24
1946.82
1990.74
2026.57
2042.91
2041.18
2033.94
1840.57
1822.13
1806.07
1807.16
1818.77
1828
1824.78
1807.04
1779.72
1747.57
1709.75
1662.37
1606.48
1551.83
1511.13
1491.26
1491.55
1509.32
1544.63
1599.13
1671.73
1756.47
1844.27
1926.05
1994.41
2043.62
2069.14
2067.74
2038.14
1981.69
1902.57
1807.5
1704.91
1603.95
1513.48
1441.13
1392.72
1371.9
1379.93
1415.59
1475.28
1553.24
1642.17
1733.98
1820.6
1894.77
1950.59
1984.01
1993.22
1978.84
1943.83
1893.15
1833.09
1770.48
1711.9
1663.09
1628.35
1610.18
1608.98
1622.97
1648.4
1680.12
1712.22
1738.83
1754.77
1755.93
1739.62
1704.68
1651.67
1582.94
1502.59
1416.08
1329.54
1248.84
1178.79
1122.63
1082.06
1057.56
1048.79
1054.6
1072.84
1100.4
1134.22
1172.82
1216.69
1266.15
1318.32
1367.87
1412.42
1456.1
1504.48
1556.32
1605.16
1649.28
1693.87
1740.86
1782.13
1807.45
1818.25
1823.56
1757.32
1733.95
1712.26
1704.13
1703.44
1700.07
1686.24
1660.32
1627.35
1593.49
1559.45
1520.46
1474.28
1427.97
1394.4
1382.42
1392.22
1419.6
1462.25
1520.68
1594.37
1678.66
1765.28
1845.29
1911.31
1957.99
1981.59
1979.72
1951.59
1898.46
1823.9
1733.64
1635.07
1536.45
1445.94
1370.75
1316.42
1286.46
1282.3
1303.22
1346.49
1407.51
1480.19
1557.56
1632.48
1698.37
1749.71
1782.56
1794.78
1786.23
1758.83
1716.28
1663.62
1606.55
1550.7
1501.09
1461.57
1434.55
1420.73
1418.99
1426.5
1439.11
1451.9
1459.93
1458.91
1445.67
1418.37
1376.51
1320.92
1253.68
1178.18
1098.93
1021.24
950.46
891.184
846.51
817.842
805.205
807.812
824.332
852.631
889.467
931.168
975.446
1022.59
1073.82
1127.65
1179.2
1225.02
1267.57
1311.72
1357.08
1398.73
1436.36
1476.09
1520.74
1563.56
1596.11
1619.42
1637.61
1706.57
1682.03
1657.87
1643.88
1633.97
1620.74
1598.28
1564.76
1525.24
1487.96
1456.44
1426.09
1391.27
1355.06
1329.13
1324.06
1341.72
1377.35
1426.37
1487.64
1560.78
1642.49
1725.87
1802.65
1865.69
1910.02
1932.55
1931.63
1906.97
1859.82
1793.11
1711.43
1620.73
1527.89
1439.96
1363.4
1303.39
1263.44
1245.22
1248.68
1272.13
1312.39
1364.92
1424.26
1484.5
1539.9
1585.47
1617.33
1632.99
1631.52
1613.62
1581.55
1538.8
1489.66
1438.61
1389.82
1346.65
1311.45
1285.33
1268.04
1258
1252.43
1247.76
1240.18
1226.3
1203.67
1171.09
1128.56
1077.17
1018.79
956.017
892.166
831.196
777.374
734.616
705.701
691.787
692.538
706.749
732.881
768.9
811.689
857.243
902.45
947.009
992.649
1039.47
1084.09
1123.33
1158.88
1194.83
1230.71
1262.05
1289.05
1318.55
1354.89
1393.97
1430.1
1463.89
1493.34
1695.86
1673.45
1648.55
1630.87
1614.5
1595.04
1567.71
1529.38
1484.14
1442.31
1411.43
1388.75
1366.05
1341.58
1324.22
1325.33
1348.93
1390.69
1444.4
1506.97
1577.69
1654.48
1732.12
1803.55
1862.28
1903.76
1925.43
1926.25
1906.34
1866.94
1810.41
1740.16
1660.58
1576.84
1494.47
1418.89
1354.76
1305.53
1273.25
1258.59
1261
1278.8
1309.19
1348.43
1392.09
1435.52
1474.29
1504.64
1523.76
1529.91
1522.58
1502.51
1471.56
1432.45
1388.37
1342.54
1297.8
1256.4
1219.84
1188.8
1163.06
1141.48
1122.17
1102.74
1080.81
1054.56
1023.1
986.615
946.198
903.464
860.283
818.709
781.091
750.114
728.505
718.386
720.619
734.647
759.019
792.101
832.129
876.469
921.276
962.898
1000.21
1034.84
1068
1098.05
1123.06
1145.07
1168.05
1191.32
1210.01
1223.58
1238.69
1261.28
1290.82
1325.36
1365.43
1402.19
1730.07
1711.43
1686.82
1665.87
1644.1
1620.98
1592.68
1553.66
1505.41
1459.31
1427.4
1410.56
1399.59
1387.98
1380.32
1387.32
1414.94
1460.23
1516.11
1577.78
1643.78
1713.01
1782.09
1845.62
1898.17
1935.79
1956.43
1959.45
1945.2
1914.82
1870.07
1813.29
1747.3
1675.47
1601.6
1529.8
1464
1407.53
1362.84
1331.41
1313.84
1309.9
1318.51
1337.7
1364.61
1395.79
1427.48
1456.09
1478.44
1492.07
1495.32
1487.49
1468.87
1440.69
1404.84
1363.65
1319.47
1274.47
1230.55
1189.17
1151.41
1117.77
1088.12
1061.7
1037.3
1013.7
990.091
966.407
943.324
921.956
903.437
888.686
878.487
873.767
875.71
885.433
903.353
928.791
960.262
996.237
1035.42
1076.05
1115.02
1148.73
1175.37
1195.93
1211.89
1222.81
1228.17
1231.11
1236.44
1243.87
1247.93
1246.43
1244.66
1249.49
1264.22
1291.15
1331.3
1369.22
1808.54
1794.03
1771.24
1746.62
1718.86
1692.64
1665.84
1630.17
1582.93
1534.6
1500.95
1487.8
1487.09
1488.47
1491.33
1504.12
1533.99
1579.8
1634.62
1692.33
1750.64
1809.15
1866.37
1918.93
1962.85
1995.09
2014.11
2019.54
2011.75
1991.56
1960.04
1918.42
1868.08
1810.62
1748.09
1683.12
1618.75
1558.08
1503.97
1458.71
1424.06
1401.17
1390.54
1391.83
1403.7
1423.88
1449.31
1476.55
1502.12
1522.82
1535.94
1539.52
1532.45
1514.59
1486.76
1450.54
1407.98
1361.37
1313.02
1265.18
1219.98
1179.34
1144.7
1116.89
1095.96
1081.32
1072.1
1067.62
1067.65
1072.34
1081.91
1096.22
1114.75
1136.83
1162.07
1190.44
1221.76
1255.27
1289.65
1323.66
1356.67
1388.01
1415.91
1437.54
1450.91
1456.26
1454.56
1445.52
1429.31
1410.22
1394.51
1383.27
1371.06
1353.78
1334.31
1319.48
1315.7
1329.24
1361.99
1393.72
1922.24
1912.38
1894.08
1865.95
1831.13
1800.65
1775.72
1746.23
1704.39
1657.43
1622.96
1611.88
1619.29
1632.69
1646.19
1664.57
1694.99
1738.2
1788.19
1838.23
1885.25
1929.36
1970.93
2008.86
2041.06
2065.7
2081.87
2089.45
2088.63
2079.7
2062.83
2038.06
2005.33
1964.62
1916.3
1861.49
1802.22
1741.23
1681.69
1626.72
1579.23
1541.66
1515.93
1503.1
1503.18
1514.94
1535.99
1563.01
1592.22
1619.71
1641.84
1655.49
1658.38
1649.26
1628.04
1595.79
1554.53
1506.87
1455.8
1404.41
1355.8
1312.96
1278.59
1254.77
1242.65
1242.29
1252.75
1272.56
1300.2
1334.37
1373.96
1417.69
1463.92
1510.79
1556.65
1600.39
1641.32
1678.66
1711.38
1738.71
1760.72
1777.97
1790.25
1796.18
1794.35
1784.61
1767.06
1740.52
1704.66
1663.99
1626.23
1594.66
1564.99
1531.79
1495.25
1461.11
1437.56
1433.5
1451.53
1470.33
2054.68
2051.02
2040.42
2010.29
1968.26
1931.8
1907.29
1884.92
1852.22
1811.21
1778.57
1769.26
1782.79
1806.54
1830.05
1853.51
1882.88
1920.42
1961.71
2000.1
2032.01
2057.93
2079.92
2099.34
2116.31
2130.53
2141.94
2150.68
2156.74
2159.67
2158.58
2152.17
2138.91
2117.23
2085.94
2044.76
1994.62
1937.79
1877.58
1817.87
1762.62
1715.54
1679.77
1657.58
1650.06
1656.86
1676.11
1704.61
1738.25
1772.49
1802.81
1825.13
1836.18
1833.83
1817.3
1787.35
1746.11
1696.78
1643.24
1589.63
1540.06
1498.45
1468.33
1452.58
1453.09
1470.4
1503.53
1550.26
1607.66
1672.66
1742.38
1814.15
1885.24
1952.91
2014.73
2068.94
2114.56
2150.97
2177.67
2194.48
2202.17
2202.32
2196.28
2184.37
2166.41
2142.57
2112.3
2073.01
2022.59
1964.35
1906.57
1854.91
1807.38
1758.48
1706.3
1654.99
1613.02
1589.86
1587.88
1589.58
2186.05
2190.68
2190.05
2160.62
2112.92
2069.51
2043.1
2026.91
2005.63
1975.14
1948.34
1942.11
1960.62
1992.95
2025.36
2053.15
2079.97
2109.07
2137.99
2160.96
2174.29
2178.7
2177.75
2175.18
2173.57
2174.44
2178.78
2187.1
2199.17
2213.83
2228.97
2241.86
2249.42
2248.59
2236.77
2212.36
2175.29
2127.22
2071.43
2012.34
1954.84
1903.75
1863.34
1836.88
1826.3
1831.9
1852.2
1884.06
1923.05
1964.04
2001.76
2031.32
2048.69
2051.09
2037.29
2007.84
1965.08
1912.87
1856.12
1800.2
1750.39
1711.51
1687.69
1682.2
1697.15
1733.19
1789.23
1862.43
1948.6
2042.91
2140.54
2237.11
2328.69
2411.81
2483.63
2542.27
2586.87
2617.38
2634.08
2637.64
2629.51
2612.03
2587.65
2558.15
2524.85
2488.88
2449.73
2403.53
2345.68
2276.79
2204.19
2135.25
2070.83
2006.81
1940.52
1875.02
1817.97
1777.31
1753.57
1737.86
2297.88
2311.89
2321.11
2295.34
2245.26
2195.58
2165.25
2153.05
2143.69
2127.32
2110.82
2110.29
2133.84
2173.44
2213.6
2244.98
2268.09
2286.47
2299.85
2304.15
2296.12
2276.69
2250.59
2223.69
2201.05
2186.19
2181.32
2187.43
2204.14
2229.59
2260.52
2292.72
2321.54
2342.47
2351.59
2346.22
2325.34
2290.02
2243.34
2189.99
2135.57
2085.83
2045.98
2020.1
2010.79
2018.79
2042.86
2079.82
2124.97
2172.63
2216.87
2252.18
2273.97
2279.06
2266
2235.32
2189.57
2133.23
2072.16
2012.96
1962.18
1925.66
1908.11
1912.9
1941.96
1995.59
2072.29
2168.62
2279.44
2398.48
2519.15
2635.3
2741.67
2834.04
2909.38
2966.03
3003.73
3023.4
3026.55
3015.03
2991.13
2957.73
2917.77
2873.82
2828.31
2783.57
2739.85
2692.77
2635.31
2564.46
2484.92
2404.36
2326.15
2248.43
2169.47
2092.51
2024.48
1970.29
1927.14
1897.25
2375.92
2398.04
2413.91
2393.87
2345.59
2292.19
2257.2
2246.58
2248.17
2248.03
2245.84
2254.34
2283.97
2330.22
2377.33
2411.97
2430.91
2437.17
2432.66
2415.75
2384.42
2340.02
2288.04
2236.06
2191.37
2159.52
2144.02
2146.41
2166.24
2201.02
2246.44
2296.91
2346.28
2388.62
2418.84
2433.3
2430.27
2410.28
2376.14
2332.62
2285.74
2241.92
2207.06
2185.93
2181.57
2195.01
2225.09
2268.56
2320.42
2374.54
2424.41
2463.99
2488.32
2494.05
2479.74
2446.09
2395.98
2334.37
2267.87
2204.1
2150.77
2114.8
2101.58
2114.6
2155.36
2223.44
2316.55
2430.53
2559.45
2696.06
2832.47
2961.08
3075.39
3170.4
3242.92
3291.66
3317.22
3321.78
3308.45
3280.68
3242
3195.82
3145.15
3092.43
3040.3
2991.86
2948.47
2906.18
2856.43
2792.57
2715.53
2631.56
2545.28
2457.05
2367.22
2280.92
2205.48
2142.64
2085.59
2046.76
2411.37
2437.45
2454.08
2440.02
2397.42
2344.05
2305.34
2294.61
2305.44
2322.17
2337.29
2358.11
2395.5
2448.38
2502.09
2540.32
2555.75
2549.92
2526.53
2486.97
2431.35
2361.93
2284.76
2208.6
2142.49
2093.77
2067.25
2065.03
2086.63
2129.02
2187
2253.74
2321.77
2383.83
2433.77
2467.18
2481.78
2477.73
2457.64
2426.23
2389.73
2354.93
2328.24
2314.84
2318.08
2339.11
2376.75
2427.62
2486.44
2546.67
2601.34
2643.95
2669.24
2673.81
2656.44
2618.19
2562.41
2494.52
2421.67
2352.13
2294.47
2256.51
2244.36
2261.8
2309.99
2387.66
2491.46
2616.22
2755.26
2900.65
3043.8
3176.28
3290.71
3381.54
3445.41
3481.41
3490.97
3477.57
3446.03
3401.7
3349.73
3294.45
3238.8
3184.48
3133.2
3087.79
3050.39
3018.12
2982.08
2932.91
2867.66
2789.88
2703.74
2610.67
2513.19
2419.55
2339.24
2272.06
2207.84
2165.16
2400.88
2424.58
2434.75
2424.84
2390.26
2340.71
2300.44
2289.01
2307.3
2340.44
2374.71
2410.71
2457.7
2517.52
2577.78
2620.56
2634.5
2618.59
2577.4
2515.44
2435.79
2342.34
2241.83
2143.75
2058.29
1994.16
1957.25
1950.23
1972.55
2020.74
2088.84
2169.04
2252.73
2331.54
2398.39
2448.19
2478.29
2488.69
2481.9
2462.64
2437.22
2412.61
2395.47
2391.23
2403.36
2433.02
2478.9
2537.41
2603.02
2668.87
2727.63
2772.4
2797.66
2799.95
2778.3
2734.26
2671.77
2596.8
2516.93
2440.79
2377.33
2334.92
2320.21
2337.36
2387.45
2468.55
2576.24
2704.21
2844.86
2989.73
3129.98
3256.96
3363.11
3442.74
3492.61
3512.16
3503.54
3471.27
3421.61
3361.71
3298.56
3237.83
3182.76
3134.11
3091.83
3057.25
3032.22
3014.89
2997.02
2968.01
2921.95
2859.43
2782.8
2692.88
2593.22
2495.27
2412.07
2343.56
2278.01
2234.9
2346.31
2360.62
2357.57
2348.33
2321.9
2278.76
2239.33
2227.41
2251.53
2299.78
2353.93
2407.3
2465.67
2532.79
2599.53
2648.02
2663.55
2641.68
2586.49
2504.91
2403.37
2288.17
2167.2
2050.45
1948.75
1871.64
1825.79
1814.24
1836.42
1888.47
1963.8
2053.88
2149.25
2240.66
2320.28
2382.47
2424.34
2445.81
2449.49
2440.18
2424.28
2408.84
2400.65
2405.21
2426
2464.05
2517.86
2583.54
2655.32
2726.11
2788.3
2834.74
2859.63
2859.42
2833.26
2783.12
2713.56
2631.2
2544.06
2460.98
2390.96
2342.38
2322.08
2334.46
2380.69
2458.58
2562.94
2686.4
2820.43
2955.99
3084.15
3196.56
3286.11
3347.59
3378.34
3378.44
3350.69
3300.33
3234.57
3161.81
3090.6
3028.13
2978.43
2941.71
2915.94
2899.96
2894.05
2896.51
2900.05
2894.15
2871.53
2830.76
2772.06
2694.17
2599.84
2502.45
2418.8
2350.88
2287.84
2245.65
2254.22
2253.26
2232.32
2219.63
2199.34
2163.27
2126.33
2114.2
2142.36
2203.53
2277.05
2349.2
2420.56
2495.31
2568.08
2622.97
2643.36
2621.15
2558.38
2463.02
2344.39
2211.62
2074.25
1942.97
1828.87
1741.85
1688.95
1673.43
1694.64
1748.38
1827.61
1923.29
2025.41
2124.21
2211.32
2280.72
2329.33
2357.13
2366.86
2363.53
2353.67
2344.46
2342.71
2353.95
2381.61
2426.54
2486.95
2558.65
2635.55
2710.35
2775.31
2823.11
2847.83
2845.72
2815.89
2760.53
2684.64
2595.42
2501.42
2411.7
2335.14
2279.77
2252.15
2256.54
2294.2
2362.9
2457.17
2569.01
2689.09
2807.84
2916.26
3006.47
3072.2
3109.3
3116.23
3094.15
3046.78
2979.98
2901.39
2819.9
2744.9
2684.71
2644.43
2624.31
2620.82
2629.98
2649.48
2676.49
2704.06
2722.32
2724.16
2707.76
2672.16
2613.7
2532.66
2442.26
2361.76
2296.17
2237.37
2196.22
2135.48
2115.97
2075.37
2055.57
2038.01
2007.76
1973.67
1961.01
1990.75
2061.32
2152.11
2243.35
2329.08
2411.93
2489.91
2550.85
2578.38
2561.42
2499.01
2398.34
2270.34
2126.6
1978.62
1837.96
1715.99
1622.6
1564.89
1546.12
1565.53
1618.64
1698.11
1794.59
1897.89
1998.04
2086.46
2156.99
2206.47
2234.94
2245.36
2242.98
2234.52
2227.26
2228.09
2242.53
2273.97
2323.11
2387.88
2463.76
2544.31
2621.99
2688.96
2737.89
2762.8
2759.87
2728.06
2669.45
2589.19
2494.81
2395.3
2300
2217.73
2156.05
2120.88
2115.93
2142.22
2197.57
2276.55
2371.05
2471.41
2567.72
2650.96
2713.72
2750.65
2758.92
2738.46
2691.98
2624.52
2542.83
2454.82
2369.23
2295.32
2241.75
2214.36
2213.88
2236.02
2274.54
2324.16
2379.83
2433.82
2476.46
2501.46
2508.24
2496.47
2461.09
2399.39
2322.37
2249.54
2188.43
2134.5
2094.55
2004.73
1966.65
1907.44
1878.04
1859.32
1832.36
1800.32
1785.99
1813.84
1888.61
1992.4
2101.37
2202.37
2294.15
2376.69
2442.44
2477.53
2469.79
2415.16
2318.62
2190.94
2045.06
1894.05
1750.48
1625.95
1530.27
1470.35
1449.33
1466.27
1516.55
1592.64
1685.13
1783.86
1879.02
1962.19
2027.33
2071.41
2094.6
2100.08
2093.31
2081.23
2071.22
2070.22
2083.76
2115.18
2165.11
2231.32
2308.99
2391.37
2470.63
2538.78
2588.54
2614.01
2611.4
2579.56
2520.34
2438.65
2341.96
2239.39
2140.52
2054.17
1987.57
1945.9
1932.07
1946.48
1986.75
2047.62
2121.26
2198.2
2268.64
2323.76
2356.61
2362.71
2340.44
2291.24
2219.48
2131.9
2036.53
1941.79
1856.1
1787.86
1745.03
1733.41
1754.09
1802.74
1871.72
1953.38
2040.08
2122.24
2189.25
2235.24
2261.55
2270.23
2256.82
2216.51
2157.08
2096.05
2042.1
1993.63
1956.3
1879.75
1825.93
1751.22
1711
1687.35
1660.52
1629.06
1611.43
1633.18
1705.23
1815.12
1937.95
2053.97
2155.98
2243.45
2312.84
2354.53
2357.43
2315.64
2231.38
2113.71
1975.36
1830.04
1690.94
1569.86
1476.44
1417.31
1395.38
1409.61
1455.31
1524.93
1609.19
1698.21
1782.56
1854.32
1907.87
1940.53
1952.77
1948.01
1931.93
1911.63
1894.58
1887.71
1896.47
1924.19
1971.45
2035.99
2112.85
2195.05
2274.49
2343.01
2393.29
2419.58
2418.26
2388.19
2331.03
2251.26
2155.9
2053.79
1954.39
1866.51
1797.19
1751.07
1730.21
1734.18
1760.11
1802.73
1854.61
1906.86
1950.3
1976.68
1979.73
1955.8
1904.29
1827.83
1732.27
1625.92
1518.34
1418.89
1335.91
1276.76
1247.93
1254.16
1296.32
1370.08
1467.43
1579.35
1696.32
1806.51
1897.35
1962.04
2003.38
2026.59
2029.84
2008.2
1966.65
1919.63
1875.3
1833.7
1802.11
1779.93
1715.08
1629.09
1577.67
1545.54
1515.38
1482.7
1460.19
1471.55
1532.89
1639.38
1768.91
1897.32
2010.55
2104.71
2178.18
2225.66
2239.04
2212.35
2145.69
2045.67
1923.47
1792.2
1664.93
1553.34
1466.78
1411.54
1390.31
1401.99
1441.97
1502.9
1575.78
1651.15
1720.18
1775.64
1812.59
1828.91
1825.53
1806.2
1776.84
1744.71
1717.3
1701.47
1702.55
1723.7
1765.5
1825.67
1899.31
1979.38
2057.66
2125.81
2176.41
2203.79
2204.53
2177.69
2124.88
2050.2
1960.04
1862.54
1766.64
1680.84
1611.97
1564.34
1539.36
1535.82
1550.17
1576.85
1608.72
1637.58
1655.14
1654.16
1629.4
1578.25
1501.04
1401.34
1285.89
1164.17
1047.02
944.92
866.579
818.584
805.745
830.992
893.979
990.031
1111.06
1247.89
1390.31
1525.08
1637.24
1717.88
1769.71
1800.68
1812.72
1802.86
1775.06
1740.94
1707.52
1674.77
1653.17
1723.84
1653.38
1560.83
1498.19
1453.98
1416.57
1380.46
1351.74
1349.27
1392.06
1483.97
1609.48
1743.87
1867.19
1970.2
2050.22
2104.64
2128.74
2118.05
2071.75
1994.27
1894.51
1783.97
1674.75
1577.88
1502.22
1453.66
1434.66
1444.18
1477.84
1528.69
1588.22
1647.56
1698.58
1734.8
1752.08
1749.03
1727.11
1690.47
1645.32
1599.05
1559.2
1532.53
1524.15
1536.99
1571.48
1625.36
1693.82
1770.02
1845.8
1912.8
1963.5
1992.23
1995.69
1973.16
1926.4
1859.36
1777.88
1689.24
1601.45
1522.32
1458.21
1413.11
1388.03
1381.16
1388.29
1403.46
1419.51
1428.76
1423.87
1398.78
1349.62
1275.1
1176.76
1058.97
929.057
796.963
674.237
572.192
500.11
464.263
468.119
512.518
595.205
710.211
849.128
1003.1
1162.65
1314.52
1442.28
1534.36
1591.81
1623.82
1635.84
1628.34
1606.21
1580.18
1556.42
1534.19
1525.56
1726.01
1655.33
1561.31
1487.6
1427.62
1378.19
1335.53
1299.34
1281.02
1299.25
1365.64
1473.96
1603.46
1731.52
1843.39
1932.86
1997.34
2034.26
2041
2016.93
1964.93
1891.69
1806.57
1720
1641.88
1580.27
1540.57
1525.08
1532.86
1559.98
1600.09
1645.42
1687.82
1719.97
1736.19
1733.12
1710.05
1669.02
1614.52
1553.02
1492.01
1439.08
1400.87
1382.31
1386.05
1412.25
1458.58
1520.36
1591.02
1662.76
1727.43
1777.59
1807.54
1814.01
1796.42
1756.72
1698.95
1628.65
1552.37
1477.12
1409.63
1355.46
1318.03
1298.01
1293.17
1298.84
1308.62
1315.17
1311.06
1289.59
1245.79
1177.16
1083.99
969.272
838.5
699.507
562.342
438.535
339.64
275.264
251.731
271.658
334.216
434.891
565.74
717.053
880.117
1046.74
1205.34
1339.58
1435.97
1493.1
1519.6
1523.19
1507.81
1481.06
1454.79
1436.17
1423.7
1427.12
1793.67
1727.98
1637.9
1553.92
1474.81
1407.93
1354.14
1308.56
1273.86
1264.8
1297.71
1376.11
1486.99
1609.41
1725.45
1824.56
1901.82
1954.61
1981.26
1981.42
1957.1
1913.05
1856.45
1795.73
1739.26
1694.08
1665.01
1654.16
1660.81
1681.61
1711.04
1742.28
1768.15
1782.21
1779.62
1757.76
1716.52
1658.37
1588.04
1512.04
1437.86
1373.02
1324.06
1295.73
1290.45
1308.13
1346.25
1400.22
1463.78
1529.64
1590.17
1638.3
1668.5
1677.48
1664.7
1632.21
1584.19
1526.17
1464.28
1404.7
1353.05
1313.78
1289.48
1280.27
1283.55
1294.34
1305.92
1310.76
1301.41
1271.51
1216.74
1135.64
1029.92
904.151
765.215
621.782
483.986
362.998
269.917
214.218
202.156
236.087
314.114
429.994
573.405
732.612
897.923
1062.3
1216.55