/*--------------------------------*- C++ -*----------------------------------*\
| =========                 |                                                 |
| \\      /  F ield         | OpenFOAM: The Open Source CFD Toolbox           |
|  \\    /   O peration     | Version:  2406                                  |
|   \\  /    A nd           | Website:  www.openfoam.com                      |
|    \\/     M anipulation  |                                                 |
\*---------------------------------------------------------------------------*/
FoamFile
{
    version     2.0;
    format      ascii;
    arch        "LSB;label=32;scalar=64";
    class       surfaceScalarField;
    location    "4";
    object      phi;
}
// * * * * * * * * * * * * * * * * * * * * * * * * * * * * * * * * * * * * * //

dimensions      [0 3 -1 0 0 0 0];

oriented        oriented;

internalField   nonuniform List<scalar> 
19800
(
-8.97439e-15
-5.84395e-13
-1.19951e-13
-7.21442e-13
-2.68271e-13
-7.11886e-13
-4.42232e-13
-7.91315e-13
-5.6397e-13
-9.14125e-13
-6.40899e-13
-1.06612e-12
-6.64644e-13
-1.23758e-12
-6.47748e-13
-1.3927e-12
-6.45478e-13
-1.48345e-12
-6.68192e-13
-1.477e-12
-6.29436e-13
-1.38323e-12
-4.43006e-13
-1.2589e-12
-1.35804e-13
-1.16811e-12
1.75496e-13
-1.1311e-12
4.00478e-13
-1.1167e-12
5.39261e-13
-1.08304e-12
6.41594e-13
-1.01819e-12
7.33122e-13
-9.4177e-13
7.93025e-13
-8.7866e-13
7.87604e-13
-8.38896e-13
7.07223e-13
-8.19765e-13
5.69684e-13
-8.18093e-13
3.9962e-13
-8.35718e-13
2.12503e-13
-8.74725e-13
1.58992e-14
-9.30863e-13
-1.80562e-13
-9.9283e-13
-3.59458e-13
-1.04771e-12
-4.9868e-13
-1.08758e-12
-5.79708e-13
-1.11263e-12
-5.95096e-13
-1.12911e-12
-5.51047e-13
-1.14415e-12
-4.64158e-13
-1.16067e-12
-3.54386e-13
-1.17573e-12
-2.37964e-13
-1.18308e-12
-1.23689e-13
-1.17816e-12
-1.37773e-14
-1.1624e-12
9.21539e-14
-1.14391e-12
1.93081e-13
-1.13426e-12
2.85194e-13
-1.1431e-12
3.6367e-13
-1.17378e-12
4.2586e-13
-1.22236e-12
4.73338e-13
-1.27991e-12
5.11258e-13
-1.33672e-12
5.45359e-13
-1.38579e-12
5.7838e-13
-1.4241e-12
6.07881e-13
-1.45168e-12
6.26577e-13
-1.46971e-12
6.24933e-13
-1.47897e-12
5.94666e-13
-1.47969e-12
5.31553e-13
-1.47246e-12
4.36606e-13
-1.45935e-12
3.1575e-13
-1.44442e-12
1.7884e-13
-1.43327e-12
3.87206e-14
-1.432e-12
-8.96133e-14
-1.44605e-12
-1.90199e-13
-1.47918e-12
-2.47903e-13
-1.53267e-12
-2.50575e-13
-1.60473e-12
-1.90924e-13
-1.69042e-12
-6.76789e-14
-1.78233e-12
1.13872e-13
-1.87223e-12
3.4165e-13
-1.95291e-12
5.96782e-13
-2.01969e-12
8.54271e-13
-2.07093e-12
1.08495e-12
-2.10761e-12
1.25886e-12
-2.13254e-12
1.34954e-12
-2.14979e-12
1.33795e-12
-2.16441e-12
1.21531e-12
-2.18211e-12
9.84328e-13
-2.20864e-12
6.59199e-13
-2.24858e-12
2.64766e-13
-2.3042e-12
-1.65145e-13
-2.37478e-12
-5.90378e-13
-2.45674e-12
-9.68383e-13
-2.54456e-12
-1.25921e-12
-2.63177e-12
-1.43086e-12
-2.71175e-12
-1.46383e-12
-2.77808e-12
-1.35409e-12
-2.82473e-12
-1.11375e-12
-2.84641e-12
-7.69877e-13
-2.83938e-12
-3.61693e-13
-2.80222e-12
6.32196e-14
-2.73619e-12
4.53789e-13
-2.64471e-12
7.61382e-13
-2.53229e-12
9.46783e-13
-2.40387e-12
9.86723e-13
-2.26523e-12
8.78091e-13
-2.12455e-12
6.37545e-13
-1.99329e-12
2.97044e-13
-1.88487e-12
-1.02551e-13
-1.81008e-12
-5.158e-13
-1.77174e-12
-8.94887e-13
-1.76037e-12
-1.19309e-12
-1.75359e-12
-1.37587e-12
-1.72078e-12
-1.43537e-12
-1.64022e-12
-1.38902e-12
-1.53393e-12
-1.23072e-12
-1.49045e-12
-8.43517e-13
-1.51661e-12
-1.09704e-12
1.25014e-13
-1.21405e-12
-1.73156e-13
-1.77942e-12
-4.97544e-13
-1.8077e-12
-7.90363e-13
-1.90078e-12
-9.97412e-13
-2.06415e-12
-1.1138e-12
-2.28171e-12
-1.12198e-12
-2.52822e-12
-1.04146e-12
-2.72873e-12
-9.50309e-13
-2.79658e-12
-8.87695e-13
-2.7113e-12
-7.82836e-13
-2.53656e-12
-5.36754e-13
-2.36494e-12
-1.49165e-13
-2.24867e-12
2.72522e-13
-2.17611e-12
6.17259e-13
-2.10489e-12
8.55116e-13
-2.01059e-12
1.02112e-12
-1.90497e-12
1.1444e-12
-1.81708e-12
1.21119e-12
-1.76684e-12
1.18798e-12
-1.75728e-12
1.06168e-12
-1.78398e-12
8.51385e-13
-1.84443e-12
5.90546e-13
-1.93706e-12
3.06866e-13
-2.05433e-12
1.82272e-14
-2.17968e-12
-2.5956e-13
-2.29196e-12
-5.06166e-13
-2.37403e-12
-6.97895e-13
-2.41917e-12
-8.14478e-13
-2.43164e-12
-8.46198e-13
-2.42184e-12
-7.97387e-13
-2.39951e-12
-6.84914e-13
-2.3692e-12
-5.32561e-13
-2.33039e-12
-3.63912e-13
-2.28164e-12
-1.9674e-13
-2.2259e-12
-4.09186e-14
-2.17309e-12
1.00115e-13
-2.13829e-12
2.26137e-13
-2.13624e-12
3.37526e-13
-2.17538e-12
4.34614e-13
-2.25455e-12
5.18623e-13
-2.3639e-12
5.92615e-13
-2.48916e-12
6.61035e-13
-2.61652e-12
7.27607e-13
-2.73595e-12
7.92573e-13
-2.84161e-12
8.50815e-13
-2.93029e-12
8.92065e-13
-2.9994e-12
9.03376e-13
-3.04628e-12
8.72939e-13
-3.06906e-12
7.93693e-13
-3.06837e-12
6.65475e-13
-3.04867e-12
4.95405e-13
-3.01819e-12
2.97102e-13
-2.98776e-12
8.95164e-14
-2.96891e-12
-1.04383e-13
-2.97205e-12
-2.5946e-13
-3.005e-12
-3.51213e-13
-3.07184e-12
-3.59354e-13
-3.17224e-12
-2.71344e-13
-3.30161e-12
-8.49271e-14
-3.45222e-12
1.90748e-13
-3.61506e-12
5.35266e-13
-3.78186e-12
9.18013e-13
-3.94631e-12
1.30017e-12
-4.10436e-12
1.63797e-12
-4.25379e-12
1.88738e-12
-4.39371e-12
2.00982e-12
-4.52446e-12
1.97781e-12
-4.64762e-12
1.77924e-12
-4.76576e-12
1.4197e-12
-4.88164e-12
9.22488e-13
-4.99695e-12
3.26894e-13
-5.11127e-12
-3.15029e-13
-5.2217e-12
-9.43029e-13
-5.32347e-12
-1.49455e-12
-5.41102e-12
-1.91172e-12
-5.47911e-12
-2.1486e-12
-5.52344e-12
-2.17771e-12
-5.54072e-12
-1.99428e-12
-5.52869e-12
-1.61773e-12
-5.48622e-12
-1.08979e-12
-5.41388e-12
-4.70048e-13
-5.31418e-12
1.70478e-13
-5.19132e-12
7.56819e-13
-5.05002e-12
1.21851e-12
-4.89443e-12
1.49833e-12
-4.72793e-12
1.56091e-12
-4.55487e-12
1.39876e-12
-4.38262e-12
1.03412e-12
-4.22225e-12
5.14938e-13
-4.08527e-12
-9.2328e-14
-3.97804e-12
-7.1039e-13
-3.89654e-12
-1.25731e-12
-3.82432e-12
-1.65921e-12
-3.73288e-12
-1.87772e-12
-3.58707e-12
-1.94215e-12
-3.36524e-12
-1.92366e-12
-3.10641e-12
-1.7874e-12
-2.94324e-12
-1.29993e-12
-2.86967e-12
-1.92613e-12
8.66736e-14
-1.63676e-12
-2.2306e-13
-2.48117e-12
-6.24884e-13
-2.56091e-12
-9.64453e-13
-2.58844e-12
-1.2188e-12
-2.6513e-12
-1.35188e-12
-2.77393e-12
-1.30245e-12
-2.96343e-12
-1.08688e-12
-3.1683e-12
-8.47773e-13
-3.29909e-12
-7.00941e-13
-3.28779e-12
-5.98855e-13
-3.13897e-12
-4.03617e-13
-2.9272e-12
-5.66841e-14
-2.73579e-12
3.61906e-13
-2.59577e-12
7.25063e-13
-2.48575e-12
9.70925e-13
-2.38014e-12
1.11936e-12
-2.28506e-12
1.20738e-12
-2.22975e-12
1.23586e-12
-2.23639e-12
1.17783e-12
-2.30494e-12
1.01905e-12
-2.42173e-12
7.78621e-13
-2.57361e-12
4.95942e-13
-2.75188e-12
2.06874e-13
-2.94609e-12
-6.72016e-14
-3.13823e-12
-3.15074e-13
-3.30355e-12
-5.2687e-13
-3.41735e-12
-6.89548e-13
-3.46304e-12
-7.88496e-13
-3.437e-12
-8.12907e-13
-3.34871e-12
-7.61562e-13
-3.2164e-12
-6.45979e-13
-3.06067e-12
-4.88865e-13
-2.89931e-12
-3.17991e-13
-2.74541e-12
-1.57945e-13
-2.60899e-12
-2.35186e-14
-2.5e-12
8.23694e-14
-2.42999e-12
1.65915e-13
-2.41093e-12
2.37052e-13
-2.45138e-12
3.04625e-13
-2.55272e-12
3.741e-13
-2.70736e-12
4.47827e-13
-2.90018e-12
5.26333e-13
-3.11226e-12
6.09005e-13
-3.32494e-12
6.93399e-13
-3.52256e-12
7.73712e-13
-3.69316e-12
8.39807e-13
-3.82803e-12
8.78091e-13
-3.92114e-12
8.74465e-13
-3.96953e-12
8.18301e-13
-3.97435e-12
7.05756e-13
-3.94177e-12
5.41344e-13
-3.88275e-12
3.37783e-13
-3.81168e-12
1.1488e-13
-3.74446e-12
-1.02012e-13
-3.69679e-12
-2.84193e-13
-3.68293e-12
-4.02957e-13
-3.71452e-12
-4.34035e-13
-3.79937e-12
-3.62136e-13
-3.94015e-12
-1.84191e-13
-4.13384e-12
8.95845e-14
-4.3723e-12
4.366e-13
-4.64401e-12
8.2399e-13
-4.93604e-12
1.21126e-12
-5.23561e-12
1.55358e-12
-5.53088e-12
1.8061e-12
-5.81123e-12
1.92952e-12
-6.06773e-12
1.89587e-12
-6.29381e-12
1.69343e-12
-6.48596e-12
1.32922e-12
-6.6437e-12
8.28897e-13
-6.76868e-12
2.34222e-13
-6.86322e-12
-4.01007e-13
-6.92895e-12
-1.01599e-12
-6.96638e-12
-1.54874e-12
-6.97526e-12
-1.94249e-12
-6.95557e-12
-2.15259e-12
-6.90826e-12
-2.15275e-12
-6.83546e-12
-1.93963e-12
-6.74005e-12
-1.53438e-12
-6.62548e-12
-9.80695e-13
-6.49599e-12
-3.39549e-13
-6.35728e-12
3.17734e-13
-6.21671e-12
9.17007e-13
-6.08204e-12
1.38837e-12
-5.95873e-12
1.67363e-12
-5.84761e-12
1.73422e-12
-5.74461e-12
1.55955e-12
-5.64385e-12
1.17188e-12
-5.54181e-12
6.2503e-13
-5.43957e-12
-4.04522e-15
-5.34146e-12
-6.25462e-13
-5.25149e-12
-1.14671e-12
-5.16766e-12
-1.49121e-12
-5.07389e-12
-1.63988e-12
-4.93461e-12
-1.67138e-12
-4.71089e-12
-1.70785e-12
-4.41515e-12
-1.69215e-12
-4.16385e-12
-1.22158e-12
-3.93243e-12
-2.5571e-12
-6.31586e-14
-2.14147e-12
-3.32996e-13
-3.16569e-12
-6.64719e-13
-3.32833e-12
-9.88991e-13
-3.3706e-12
-1.29211e-12
-3.38274e-12
-1.48534e-12
-3.40289e-12
-1.4472e-12
-3.48312e-12
-1.16013e-12
-3.61896e-12
-7.8847e-13
-3.74254e-12
-5.16357e-13
-3.76501e-12
-3.60599e-13
-3.64239e-12
-1.90403e-13
-3.41305e-12
1.00479e-13
-3.16363e-12
4.79903e-13
-2.9588e-12
8.25815e-13
-2.80974e-12
1.04933e-12
-2.70176e-12
1.15022e-12
-2.63401e-12
1.17185e-12
-2.62604e-12
1.13503e-12
-2.69545e-12
1.02573e-12
-2.83968e-12
8.3008e-13
-3.03913e-12
5.64009e-13
-3.27124e-12
2.68747e-13
-3.51865e-12
-1.2963e-14
-3.76692e-12
-2.53934e-13
-3.99864e-12
-4.43697e-13
-4.19114e-12
-5.80833e-13
-4.3195e-12
-6.65528e-13
-4.36293e-12
-6.96329e-13
-4.31128e-12
-6.71187e-13
-4.16917e-12
-5.91347e-13
-3.95585e-12
-4.6568e-13
-3.70058e-12
-3.12458e-13
-3.43533e-12
-1.56557e-13
-3.18815e-12
-2.25124e-14
-2.97979e-12
7.34292e-14
-2.82429e-12
1.28251e-13
-2.73172e-12
1.51656e-13
-2.71018e-12
1.60782e-13
-2.76555e-12
1.73244e-13
-2.89882e-12
2.01853e-13
-3.10334e-12
2.5273e-13
-3.36379e-12
3.26313e-13
-3.65799e-12
4.19376e-13
-3.96074e-12
5.26189e-13
-4.24802e-12
6.38124e-13
-4.49997e-12
7.42615e-13
-4.70203e-12
8.2318e-13
-4.8449e-12
8.6171e-13
-4.92445e-12
8.42649e-13
-4.94198e-12
7.57337e-13
-4.90468e-12
6.06694e-13
-4.82544e-12
4.01603e-13
-4.72159e-12
1.61654e-13
-4.61287e-12
-8.6754e-14
-4.51954e-12
-3.12696e-13
-4.461e-12
-4.83899e-13
-4.45478e-12
-5.71225e-13
-4.51522e-12
-5.53855e-13
-4.65172e-12
-4.23646e-13
-4.86688e-12
-1.87202e-13
-5.15572e-12
1.34728e-13
-5.50623e-12
5.09759e-13
-5.90132e-12
8.97178e-13
-6.32117e-12
1.25155e-12
-6.74507e-12
1.5269e-12
-7.15287e-12
1.68193e-12
-7.52596e-12
1.6859e-12
-7.84869e-12
1.52413e-12
-8.10982e-12
1.20133e-12
-8.3036e-12
7.42039e-13
-8.42983e-12
1.87927e-13
-8.49267e-12
-4.07014e-13
-8.49873e-12
-9.8231e-13
-8.45526e-12
-1.47715e-12
-8.36927e-12
-1.83657e-12
-8.24767e-12
-2.01757e-12
-8.09779e-12
-1.99496e-12
-7.92773e-12
-1.76597e-12
-7.74594e-12
-1.35233e-12
-7.5605e-12
-7.98558e-13
-7.37878e-12
-1.66391e-13
-7.2079e-12
4.73646e-13
-7.05553e-12
1.0507e-12
-6.92934e-12
1.50038e-12
-6.83463e-12
1.76962e-12
-6.77049e-12
1.82194e-12
-6.72776e-12
1.64445e-12
-6.69048e-12
1.25504e-12
-6.64113e-12
7.04228e-13
-6.56634e-12
6.97253e-14
-6.46172e-12
-5.52427e-13
-6.33455e-12
-1.05649e-12
-6.20111e-12
-1.35163e-12
-6.07115e-12
-1.42201e-12
-5.9244e-12
-1.38304e-12
-5.70817e-12
-1.39836e-12
-5.39307e-12
-1.41627e-12
-5.05875e-12
-9.58709e-13
-4.6707e-12
-2.99707e-12
-2.15787e-13
-2.37624e-12
-5.29536e-13
-3.52406e-12
-7.10599e-13
-3.76221e-12
-9.42073e-13
-3.88268e-12
-1.24209e-12
-3.93299e-12
-1.49674e-12
-3.91513e-12
-1.51731e-12
-3.89451e-12
-1.22505e-12
-3.91898e-12
-7.64637e-13
-3.97352e-12
-3.62245e-13
-3.98052e-12
-1.11447e-13
-3.86349e-12
7.19785e-14
-3.62099e-12
3.11924e-13
-3.32787e-12
6.24879e-13
-3.06815e-12
9.15102e-13
-2.87946e-12
1.08431e-12
-2.75851e-12
1.1153e-12
-2.69959e-12
1.05311e-12
-2.71355e-12
9.36716e-13
-2.81427e-12
7.68142e-13
-2.9987e-12
5.37171e-13
-3.24418e-12
2.5548e-13
-3.52086e-12
-3.84139e-14
-3.80338e-12
-2.99203e-13
-4.07303e-12
-4.94776e-13
-4.3137e-12
-6.12538e-13
-4.50792e-12
-6.55202e-13
-4.63638e-12
-6.33858e-13
-4.68069e-12
-5.62342e-13
-4.62844e-12
-4.53888e-13
-4.47859e-12
-3.20362e-13
-4.24509e-12
-1.73861e-13
-3.95602e-12
-2.90697e-14
-3.64809e-12
9.62011e-14
-3.35841e-12
1.83995e-13
-3.11736e-12
2.21976e-13
-2.94532e-12
2.0894e-13
-2.85368e-12
1.5673e-13
-2.84785e-12
8.71837e-14
-2.92961e-12
2.55407e-14
-3.09692e-12
-6.58656e-15
-3.34195e-12
4.16082e-15
-3.64925e-12
6.17809e-14
-3.99588e-12
1.62475e-13
-4.35429e-12
2.96918e-13
-4.6967e-12
4.51553e-13
-4.99919e-12
6.0871e-13
-5.2441e-12
7.46799e-13
-5.42049e-12
8.42254e-13
-5.52371e-12
8.73637e-13
-5.55511e-12
8.26604e-13
-5.52215e-12
6.97581e-13
-5.43832e-12
4.94808e-13
-5.32213e-12
2.37031e-13
-5.19505e-12
-4.88547e-14
-5.07921e-12
-3.30301e-13
-4.99568e-12
-5.71957e-13
-4.96354e-12
-7.39632e-13
-4.99924e-12
-8.05502e-13
-5.11525e-12
-7.53409e-13
-5.31823e-12
-5.82466e-13
-5.60731e-12
-3.07778e-13
-5.9735e-12
4.1575e-14
-6.40078e-12
4.26134e-13
-6.86823e-12
8.00173e-13
-7.35226e-12
1.11607e-12
-7.82843e-12
1.32933e-12
-8.27271e-12
1.40438e-12
-8.66293e-12
1.3205e-12
-8.98066e-12
1.07632e-12
-9.21326e-12
6.91445e-13
-9.35526e-12
2.04553e-13
-9.40841e-12
-3.31536e-13
-9.3801e-12
-8.5655e-13
-9.28116e-12
-1.30985e-12
-9.12379e-12
-1.63701e-12
-8.9206e-12
-1.79573e-12
-8.68464e-12
-1.76098e-12
-8.42958e-12
-1.52943e-12
-8.16938e-12
-1.12198e-12
-7.91708e-12
-5.82835e-13
-7.68357e-12
2.59698e-14
-7.47739e-12
6.34123e-13
-7.30557e-12
1.17363e-12
-7.17457e-12
1.5865e-12
-7.0891e-12
1.82814e-12
-7.0488e-12
1.86866e-12
-7.0443e-12
1.69667e-12
-7.05624e-12
1.32532e-12
-7.05778e-12
7.9585e-13
-7.02047e-12
1.74708e-13
-6.92311e-12
-4.48604e-13
-6.76448e-12
-9.59875e-13
-6.57156e-12
-1.24055e-12
-6.38617e-12
-1.24918e-12
-6.22384e-12
-1.11026e-12
-6.04052e-12
-1.0313e-12
-5.7688e-12
-1.00574e-12
-5.42788e-12
-5.90754e-13
-4.96187e-12
-3.17772e-12
-4.04443e-13
-2.20835e-12
-8.06399e-13
-3.34282e-12
-8.38782e-13
-3.59361e-12
-9.31183e-13
-3.78859e-12
-1.15094e-12
-3.92187e-12
-1.40399e-12
-3.93314e-12
-1.47132e-12
-3.86078e-12
-1.21251e-12
-3.78192e-12
-7.14646e-13
-3.73892e-12
-2.05565e-13
-3.69297e-12
1.52808e-13
-3.56415e-12
3.7435e-13
-3.32023e-12
5.72053e-13
-3.01118e-12
8.03037e-13
-2.72063e-12
1.01038e-12
-2.50164e-12
1.10171e-12
-2.36284e-12
1.04755e-12
-2.29857e-12
8.90974e-13
-2.31415e-12
6.86178e-13
-2.42047e-12
4.5328e-13
-2.61499e-12
1.89348e-13
-2.8747e-12
-9.75297e-14
-3.16563e-12
-3.75178e-13
-3.45578e-12
-6.01245e-13
-3.72089e-12
-7.42812e-13
-3.94335e-12
-7.85701e-13
-4.1095e-12
-7.33674e-13
-4.2079e-12
-6.03927e-13
-4.22906e-12
-4.2208e-13
-4.16643e-12
-2.16817e-13
-4.01936e-12
-1.47359e-14
-3.79699e-12
1.62887e-13
-3.52074e-12
3.00404e-13
-3.22283e-12
3.86273e-13
-2.94051e-12
4.12206e-13
-2.70828e-12
3.74747e-13
-2.55164e-12
2.78662e-13
-2.48478e-12
1.39556e-13
-2.51206e-12
-1.68587e-14
-2.63102e-12
-1.59501e-13
-2.83466e-12
-2.59022e-13
-3.11161e-12
-2.9441e-13
-3.44518e-12
-2.56663e-13
-3.81295e-12
-1.48819e-13
-4.18828e-12
1.65186e-14
-4.54384e-12
2.20082e-13
-4.85569e-12
4.37818e-13
-5.10628e-12
6.42015e-13
-5.28535e-12
8.03159e-13
-5.38938e-12
8.93708e-13
-5.42072e-12
8.93281e-13
-5.38729e-12
7.93236e-13
-5.30262e-12
5.98657e-13
-5.18519e-12
3.27301e-13
-5.05661e-12
6.70564e-15
-4.93895e-12
-3.28987e-13
-4.85239e-12
-6.41972e-13
-4.81408e-12
-8.94156e-13
-4.83799e-12
-1.05176e-12
-4.93477e-12
-1.09078e-12
-5.11103e-12
-1.00181e-12
-5.36785e-12
-7.92313e-13
-5.69968e-12
-4.85811e-13
-6.09433e-12
-1.18486e-13
-6.53429e-12
2.65293e-13
-6.9986e-12
6.17683e-13
-7.46451e-12
8.92235e-13
-7.90851e-12
1.0493e-12
-8.30724e-12
1.06183e-12
-8.63892e-12
9.20653e-13
-8.88561e-12
6.37513e-13
-9.03554e-12
2.44722e-13
-9.08486e-12
-2.08965e-13
-9.03754e-12
-6.65264e-13
-8.9039e-12
-1.06441e-12
-8.6982e-12
-1.35266e-12
-8.43669e-12
-1.48838e-12
-8.13674e-12
-1.44666e-12
-7.81665e-12
-1.22302e-12
-7.49536e-12
-8.36012e-13
-7.1911e-12
-3.27311e-13
-6.91936e-12
2.42682e-13
-6.69126e-12
8.04611e-13
-6.51369e-12
1.29258e-12
-6.39074e-12
1.65418e-12
-6.32465e-12
1.85402e-12
-6.31445e-12
1.87252e-12
-6.35296e-12
1.7056e-12
-6.42348e-12
1.36737e-12
-6.49809e-12
8.90327e-13
-6.53808e-12
3.20673e-13
-6.5019e-12
-2.77985e-13
-6.36591e-12
-8.02175e-13
-6.15001e-12
-1.10752e-12
-5.91812e-12
-1.09933e-12
-5.73104e-12
-8.68475e-13
-5.58167e-12
-6.50458e-13
-5.39406e-12
-5.19911e-13
-5.12954e-12
-1.88642e-13
-4.69755e-12
-3.02357e-12
-6.43237e-13
-1.78372e-12
-1.10508e-12
-2.72563e-12
-1.05109e-12
-2.88653e-12
-1.01075e-12
-3.07698e-12
-1.09863e-12
-3.26068e-12
-1.27191e-12
-3.31695e-12
-1.3333e-12
-3.23343e-12
-1.10901e-12
-3.08621e-12
-6.12864e-13
-2.95899e-12
-3.56076e-14
-2.85971e-12
4.19235e-13
-2.72619e-12
6.91805e-13
-2.50912e-12
8.62554e-13
-2.22949e-12
1.0137e-12
-1.95591e-12
1.12886e-12
-1.74504e-12
1.13165e-12
-1.61418e-12
9.86031e-13
-1.55989e-12
7.31498e-13
-1.58403e-12
4.34558e-13
-1.69502e-12
1.3404e-13
-1.89118e-12
-1.62341e-13
-2.15108e-12
-4.47723e-13
-2.43987e-12
-6.97225e-13
-2.72171e-12
-8.75552e-13
-2.96729e-12
-9.5437e-13
-3.15526e-12
-9.2216e-13
-3.27188e-12
-7.84659e-13
-3.31082e-12
-5.6203e-13
-3.27224e-12
-2.85876e-13
-3.16061e-12
5.06536e-15
-2.98323e-12
2.71577e-13
-2.75104e-12
4.81154e-13
-2.48133e-12
6.12629e-13
-2.1994e-12
6.56694e-13
-1.93691e-12
6.13628e-13
-1.72646e-12
4.91062e-13
-1.59492e-12
3.03605e-13
-1.55859e-12
7.378e-14
-1.62191e-12
-1.67967e-13
-1.7796e-12
-3.86121e-13
-2.01986e-12
-5.45994e-13
-2.32673e-12
-6.20809e-13
-2.6809e-12
-5.97232e-13
-3.05962e-12
-4.77288e-13
-3.43737e-12
-2.76489e-13
-3.78824e-12
-1.99075e-14
-4.08939e-12
2.61574e-13
-4.3243e-12
5.33813e-13
-4.48421e-12
7.61553e-13
-4.56771e-12
9.11724e-13
-4.57932e-12
9.58394e-13
-4.52852e-12
8.8797e-13
-4.42951e-12
7.02348e-13
-4.30091e-12
4.18596e-13
-4.16441e-12
6.57579e-14
-4.04219e-12
-3.19398e-13
-3.95391e-12
-6.96214e-13
-3.91474e-12
-1.02353e-12
-3.93507e-12
-1.26356e-12
-4.02111e-12
-1.38675e-12
-4.17553e-12
-1.37686e-12
-4.39722e-12
-1.23436e-12
-4.68049e-12
-9.76899e-13
-5.01474e-12
-6.36572e-13
-5.38512e-12
-2.55285e-13
-5.77399e-12
1.2038e-13
-6.16247e-12
4.44075e-13
-6.53129e-12
6.7452e-13
-6.861e-12
7.80587e-13
-7.13236e-12
7.46393e-13
-7.32759e-12
5.75248e-13
-7.43266e-12
2.9093e-13
-7.43994e-12
-6.47917e-14
-7.34988e-12
-4.38275e-13
-7.17096e-12
-7.72373e-13
-6.91795e-12
-1.0149e-12
-6.60945e-12
-1.12541e-12
-6.26591e-12
-1.07961e-12
-5.90873e-12
-8.72136e-13
-5.55984e-12
-5.18503e-13
-5.24071e-12
-5.58606e-14
-4.97016e-12
4.59842e-13
-4.76167e-12
9.62281e-13
-4.62194e-12
1.38782e-12
-4.55167e-12
1.68763e-12
-4.5476e-12
1.83315e-12
-4.60437e-12
1.81493e-12
-4.71454e-12
1.64069e-12
-4.86676e-12
1.33456e-12
-5.04007e-12
9.29606e-13
-5.19611e-12
4.51985e-13
-5.2784e-12
-7.65613e-14
-5.23479e-12
-5.91527e-13
-5.0597e-12
-9.43157e-13
-4.81783e-12
-9.73635e-13
-4.60601e-12
-6.98669e-13
-4.46889e-12
-3.44108e-13
-4.35649e-12
-7.44224e-14
-4.19796e-12
1.66344e-13
-3.87662e-12
-2.51066e-12
-8.62562e-13
-1.26912e-12
-1.32117e-12
-1.88223e-12
-1.26487e-12
-1.87908e-12
-1.14954e-12
-1.97675e-12
-1.10563e-12
-2.13683e-12
-1.14769e-12
-2.20522e-12
-1.14812e-12
-2.11958e-12
-9.40412e-13
-1.93333e-12
-4.71478e-13
-1.74712e-12
1.31025e-13
-1.60792e-12
6.54352e-13
-1.48191e-12
9.77073e-13
-1.31665e-12
1.13542e-12
-1.10796e-12
1.21955e-12
-9.0201e-13
1.24762e-12
-7.48556e-13
1.16401e-12
-6.66957e-13
9.31008e-13
-6.54171e-13
5.84189e-13
-7.08922e-13
1.99585e-13
-8.37411e-13
-1.65936e-13
-1.03935e-12
-4.91837e-13
-1.29647e-12
-7.69642e-13
-1.57617e-12
-9.80449e-13
-1.84286e-12
-1.09721e-12
-2.06564e-12
-1.09994e-12
-2.22022e-12
-9.85079e-13
-2.28998e-12
-7.64924e-13
-2.26819e-12
-4.6386e-13
-2.15931e-12
-1.16233e-13
-1.97675e-12
2.35525e-13
-1.73833e-12
5.45797e-13
-1.4627e-12
7.73906e-13
-1.16909e-12
8.92143e-13
-8.79197e-13
8.89917e-13
-6.18518e-13
7.72865e-13
-4.14559e-13
5.58915e-13
-2.92187e-13
2.74331e-13
-2.68271e-13
-4.85838e-14
-3.48358e-13
-3.72745e-13
-5.26717e-13
-6.58387e-13
-7.89054e-13
-8.674e-13
-1.11595e-12
-9.69622e-13
-1.48529e-12
-9.49015e-13
-1.87314e-12
-8.07113e-13
-2.25427e-12
-5.62283e-13
-2.60337e-12
-2.45509e-13
-2.89783e-12
1.04972e-13
-3.12089e-12
4.48019e-13
-3.26384e-12
7.42588e-13
-3.3261e-12
9.50713e-13
-3.31376e-12
1.04181e-12
-3.23777e-12
9.97927e-13
-3.11312e-12
8.17951e-13
-2.95858e-12
5.18453e-13
-2.79605e-12
1.30802e-13
-2.64851e-12
-3.04042e-13
-2.53687e-12
-7.4088e-13
-2.47701e-12
-1.13463e-12
-2.47837e-12
-1.4441e-12
-2.54432e-12
-1.63602e-12
-2.67338e-12
-1.68964e-12
-2.86017e-12
-1.60045e-12
-3.09565e-12
-1.38165e-12
-3.36706e-12
-1.06218e-12
-3.65851e-12
-6.82209e-13
-3.9525e-12
-2.874e-13
-4.23171e-12
7.64661e-14
-4.48039e-12
3.68112e-13
-4.68445e-12
5.54915e-13
-4.83101e-12
6.16988e-13
-4.9081e-12
5.50898e-13
-4.90552e-12
3.71891e-13
-4.81702e-12
1.13221e-13
-4.64275e-12
-1.78268e-13
-4.39074e-12
-4.49756e-13
-4.07648e-12
-6.51368e-13
-3.72061e-12
-7.43899e-13
-3.34623e-12
-7.03703e-13
-2.97668e-12
-5.24843e-13
-2.63474e-12
-2.19956e-13
-2.34198e-12
1.79371e-13
-2.11739e-12
6.24105e-13
-1.97466e-12
1.05409e-12
-1.91959e-12
1.40969e-12
-1.949e-12
1.64438e-12
-2.05224e-12
1.73202e-12
-2.21491e-12
1.66825e-12
-2.42405e-12
1.47157e-12
-2.67131e-12
1.18355e-12
-2.94827e-12
8.52376e-13
-3.23006e-12
4.96192e-13
-3.46022e-12
9.02262e-14
-3.56389e-12
-3.65588e-13
-3.49952e-12
-7.48929e-13
-3.30774e-12
-8.52173e-13
-3.09622e-12
-5.94107e-13
-2.95485e-12
-1.47976e-13
-2.88056e-12
2.51715e-13
-2.80305e-12
4.26206e-13
-2.60682e-12
-1.68859e-12
-9.68023e-13
-7.22793e-13
-1.372e-12
-9.51582e-13
-1.38337e-12
-7.83792e-13
-1.27111e-12
-7.50729e-13
-1.13553e-12
-8.28091e-13
-1.03681e-12
-8.62725e-13
-9.43642e-13
-7.61493e-13
-7.3379e-13
-5.47473e-13
-3.08392e-13
-3.16382e-13
2.77048e-13
-1.39439e-13
8.28992e-13
-1.32535e-14
1.1853e-12
1.05426e-13
1.3367e-12
2.36512e-13
1.36755e-12
3.56031e-13
1.32143e-12
4.27452e-13
1.16364e-12
4.36214e-13
8.57422e-13
3.89083e-13
4.33688e-13
2.9203e-13
-2.50345e-14
1.41125e-13
-4.45585e-13
-6.53436e-14
-7.93939e-13
-3.1358e-13
-1.05808e-12
-5.75513e-13
-1.22299e-12
-8.19557e-13
-1.26834e-12
-1.01815e-12
-1.18246e-12
-1.14863e-12
-9.72383e-13
-1.19303e-12
-6.61784e-13
-1.14124e-12
-2.83938e-13
-9.95255e-13
1.225e-13
-7.69939e-13
5.14243e-13
-4.88765e-13
8.45128e-13
-1.77579e-13
1.07203e-12
1.39636e-13
1.16354e-12
4.41263e-13
1.10701e-12
7.06293e-13
9.10567e-13
9.13239e-13
5.99928e-13
1.04166e-12
2.1249e-13
1.07595e-12
-2.08227e-13
1.00925e-12
-6.16506e-13
8.45243e-13
-9.67311e-13
5.97051e-13
-1.21969e-12
2.84047e-13
-1.34167e-12
-7.13862e-14
-1.31596e-12
-4.45813e-13
-1.14414e-12
-8.15352e-13
-8.47264e-13
-1.15617e-12
-4.62071e-13
-1.4461e-12
-3.46041e-14
-1.66738e-12
3.86061e-13
-1.80941e-12
7.52337e-13
-1.86978e-12
1.02135e-12
-1.85338e-12
1.15846e-12
-1.77031e-12
1.14198e-12
-1.63433e-12
9.67754e-13
-1.46237e-12
6.51391e-13
-1.27445e-12
2.26367e-13
-1.09277e-12
-2.61397e-13
-9.39172e-13
-7.60354e-13
-8.31873e-13
-1.2194e-12
-7.82796e-13
-1.5925e-12
-7.96694e-13
-1.84251e-12
-8.71877e-13
-1.94504e-12
-1.00152e-12
-1.89201e-12
-1.17458e-12
-1.69359e-12
-1.3762e-12
-1.3771e-12
-1.58835e-12
-9.82817e-13
-1.79131e-12
-5.57694e-13
-1.96612e-12
-1.48965e-13
-2.09683e-12
2.01122e-13
-2.17175e-12
4.59126e-13
-2.18312e-12
6.03307e-13
-2.12585e-12
6.26135e-13
-1.99662e-12
5.36239e-13
-1.79424e-12
3.58778e-13
-1.52156e-12
1.32977e-13
-1.18762e-12
-9.37535e-14
-8.08669e-13
-2.74147e-13
-4.07037e-13
-3.69511e-13
-8.21406e-15
-3.55692e-13
3.62411e-13
-2.25544e-13
6.8173e-13
1.10925e-14
9.2967e-13
3.28089e-13
1.08968e-12
6.84529e-13
1.15004e-12
1.02926e-12
1.1065e-12
1.30994e-12
9.64927e-13
1.48335e-12
7.42388e-13
1.52187e-12
4.64013e-13
1.4175e-12
1.54186e-13
1.19102e-12
-1.75148e-13
9.01386e-13
-5.26794e-13
6.25815e-13
-8.99364e-13
3.95696e-13
-1.25577e-12
1.5137e-13
-1.51726e-12
-1.84154e-13
-1.61047e-12
-5.48841e-13
-1.53529e-12
-7.16895e-13
-1.37936e-12
-5.15947e-13
-1.25189e-12
-3.77216e-14
-1.19456e-12
4.4686e-13
-1.15898e-12
5.86455e-13
-1.06261e-12
-6.65895e-13
-9.18434e-13
-1.41036e-13
-1.25013e-12
1.85388e-15
-1.36345e-12
2.74791e-13
-1.31593e-12
4.1662e-13
-1.13808e-12
4.37979e-13
-9.17814e-13
4.62227e-13
-7.22263e-13
5.88395e-13
-4.96071e-13
8.20992e-13
-1.21162e-13
1.0844e-12
4.12832e-13
1.29994e-12
9.50239e-13
1.44536e-12
1.31107e-12
1.54694e-12
1.44777e-12
1.62875e-12
1.43175e-12
1.68209e-12
1.32389e-12
1.68337e-12
1.10822e-12
1.62626e-12
7.48927e-13
1.52517e-12
2.69913e-13
1.39354e-12
-2.43631e-13
1.23083e-12
-7.04669e-13
1.03303e-12
-1.06609e-12
8.08593e-13
-1.31195e-12
5.80105e-13
-1.43024e-12
3.7357e-13
-1.40516e-12
2.09708e-13
-1.23027e-12
1.04084e-13
-9.21098e-13
7.0421e-14
-5.13738e-13
1.19745e-13
-5.43089e-14
2.55046e-13
4.09941e-13
4.66869e-13
8.33277e-13
7.34207e-13
1.1713e-12
1.03022e-12
1.38325e-12
1.3288e-12
1.43844e-12
1.60829e-12
1.32392e-12
1.8514e-12
1.04895e-12
2.04314e-12
6.44023e-13
2.16963e-12
1.5519e-13
2.21914e-12
-3.63556e-13
2.18483e-12
-8.57061e-13
2.0674e-12
-1.27388e-12
1.87569e-12
-1.56985e-12
1.62482e-12
-1.71178e-12
1.3332e-12
-1.68191e-12
1.02004e-12
-1.48197e-12
7.04398e-13
-1.1348e-12
4.05348e-13
-6.81634e-13
1.41694e-13
-1.75618e-13
-6.96722e-14
3.26024e-13
-2.16377e-13
7.6845e-13
-2.92582e-13
1.10345e-12
-2.99148e-13
1.29258e-12
-2.42074e-13
1.31089e-12
-1.30571e-13
1.15113e-12
2.38372e-14
8.26851e-13
2.07048e-13
3.71976e-13
4.02069e-13
-1.63855e-13
5.89971e-13
-7.22759e-13
7.52402e-13
-1.24637e-12
8.74633e-13
-1.68203e-12
9.47678e-13
-1.9873e-12
9.68798e-13
-2.13342e-12
9.40807e-13
-2.10853e-12
8.71245e-13
-1.91976e-12
7.72014e-13
-1.593e-12
6.5917e-13
-1.16944e-12
5.5199e-13
-6.99217e-13
4.70756e-13
-2.33819e-13
4.33659e-13
1.80615e-13
4.54038e-13
5.08005e-13
5.39179e-13
7.24853e-13
6.91021e-13
8.21395e-13
9.07995e-13
8.02165e-13
1.18649e-12
6.86079e-13
1.52071e-12
5.05173e-13
1.90103e-12
3.00849e-13
2.31198e-12
1.17282e-13
2.73173e-12
-6.71387e-15
3.13399e-12
-4.47401e-14
3.49174e-12
1.34205e-14
3.7809e-12
1.61519e-13
3.98242e-12
3.7851e-13
4.08258e-12
6.3117e-13
4.0728e-12
8.78664e-13
3.95036e-12
1.07954e-12
3.72143e-12
1.19778e-12
3.40512e-12
1.20399e-12
3.03441e-12
1.07826e-12
2.64742e-12
8.29166e-13
2.26825e-12
5.22349e-13
1.89183e-12
2.69052e-13
1.49631e-12
1.36808e-13
1.08449e-12
5.7253e-14
7.14055e-13
-1.15547e-13
4.6969e-13
-3.99324e-13
3.915e-13
-5.86868e-13
4.33845e-13
-4.43316e-13
5.0034e-13
2.42293e-14
5.26871e-13
5.39178e-13
5.38025e-13
6.6458e-13
5.64004e-13
4.22757e-13
-7.42683e-13
4.68565e-13
-1.01397e-12
9.30138e-13
-1.22804e-12
1.23999e-12
-1.2715e-12
1.44412e-12
-1.08786e-12
1.54914e-12
-7.76119e-13
1.6305e-12
-4.84655e-13
1.77234e-12
-2.30411e-13
1.99855e-12
9.95036e-14
2.26197e-12
5.64579e-13
2.49241e-12
1.05376e-12
2.65315e-12
1.38813e-12
2.75352e-12
1.49319e-12
2.81361e-12
1.42671e-12
2.83066e-12
1.2629e-12
2.78794e-12
1.00307e-12
2.68533e-12
6.11275e-13
2.5461e-12
1.00388e-13
2.39387e-12
-4.46929e-13
2.23378e-12
-9.32734e-13
2.06e-12
-1.2974e-12
1.87492e-12
-1.52151e-12
1.69546e-12
-1.59719e-12
1.54287e-12
-1.51305e-12
1.43137e-12
-1.26469e-12
1.36699e-12
-8.70863e-13
1.35381e-12
-3.75996e-13
1.3977e-12
1.61384e-13
1.50332e-12
6.82562e-13
1.66797e-12
1.1359e-12
1.87847e-12
1.47752e-12
2.11362e-12
1.67094e-12
2.35023e-12
1.68982e-12
2.5689e-12
1.52365e-12
2.75629e-12
1.18294e-12
2.90406e-12
7.00415e-13
3.00623e-12
1.27016e-13
3.05756e-12
-4.75822e-13
3.05403e-12
-1.04487e-12
2.99476e-12
-1.52232e-12
2.88368e-12
-1.86056e-12
2.72945e-12
-2.02539e-12
2.54348e-12
-1.99896e-12
2.33769e-12
-1.78302e-12
2.12328e-12
-1.40073e-12
1.91115e-12
-8.95367e-13
1.7129e-12
-3.2461e-13
1.54082e-12
2.47808e-13
1.40632e-12
7.60355e-13
1.31764e-12
1.15959e-12
1.27858e-12
1.40368e-12
1.2889e-12
1.46513e-12
1.34605e-12
1.334e-12
1.44632e-12
1.02092e-12
1.58472e-12
5.57935e-13
1.75379e-12
-4.70452e-15
1.94278e-12
-6.05469e-13
2.13835e-12
-1.18018e-12
2.3268e-12
-1.66978e-12
2.49647e-12
-2.02597e-12
2.63928e-12
-2.215e-12
2.75101e-12
-2.2204e-12
2.83104e-12
-2.04508e-12
2.88247e-12
-1.71187e-12
2.9127e-12
-1.26118e-12
2.93389e-12
-7.4549e-13
2.96216e-12
-2.2135e-13
3.01496e-12
2.58923e-13
3.10753e-12
6.53852e-13
3.24977e-12
9.36391e-13
3.445e-12
1.09465e-12
3.69098e-12
1.13092e-12
3.98221e-12
1.0602e-12
4.31164e-12
9.08707e-13
4.67065e-12
7.1164e-13
5.04718e-12
5.08935e-13
5.42377e-12
3.38843e-13
5.7775e-12
2.30803e-13
6.08261e-12
2.00086e-13
6.31498e-12
2.45809e-13
6.45604e-12
3.52155e-13
6.49439e-12
4.92205e-13
6.42477e-12
6.34456e-13
6.2463e-12
7.50414e-13
5.96344e-12
8.16806e-13
5.59174e-12
8.07569e-13
5.16458e-12
6.88207e-13
4.73011e-12
4.40552e-13
4.32962e-12
1.16987e-13
3.96904e-12
-1.46615e-13
3.61526e-12
-2.32984e-13
3.23558e-12
-1.87884e-13
2.84713e-12
-1.98857e-13
2.51761e-12
-3.61039e-13
2.30776e-12
-5.12335e-13
2.21634e-12
-3.936e-13
2.18256e-12
5.15288e-14
2.14744e-12
5.57359e-13
2.12575e-12
6.76029e-13
2.09459e-12
1.44724e-12
-5.04332e-13
1.04346e-12
-7.32875e-13
1.74944e-12
-1.02707e-12
2.05695e-12
-1.15769e-12
2.29223e-12
-9.90452e-13
2.4655e-12
-6.21975e-13
2.5975e-12
-2.53719e-13
2.74324e-12
3.46675e-14
2.93509e-12
3.34107e-13
3.15486e-12
7.32259e-13
3.3523e-12
1.15912e-12
3.49031e-12
1.44762e-12
3.56969e-12
1.50608e-12
3.60648e-12
1.38102e-12
3.59798e-12
1.16026e-12
3.5265e-12
8.6444e-13
3.39163e-12
4.57925e-13
3.22254e-12
-6.19083e-14
3.05414e-12
-6.21731e-13
2.90019e-12
-1.11665e-12
2.7546e-12
-1.47458e-12
2.61298e-12
-1.67224e-12
2.48568e-12
-1.70783e-12
2.39056e-12
-1.57711e-12
2.33859e-12
-1.27747e-12
2.32877e-12
-8.26298e-13
2.3545e-12
-2.69536e-13
2.41182e-12
3.2704e-13
2.50128e-12
8.94455e-13
2.62339e-12
1.37311e-12
2.77301e-12
1.71705e-12
2.93786e-12
1.89328e-12
3.10165e-12
1.88139e-12
3.24958e-12
1.67581e-12
3.37239e-12
1.28954e-12
3.46717e-12
7.56119e-13
3.53504e-12
1.27735e-13
3.57801e-12
-5.3109e-13
3.59698e-12
-1.15244e-12
3.59193e-12
-1.67389e-12
3.56346e-12
-2.04499e-12
3.51401e-12
-2.23089e-12
3.44757e-12
-2.21427e-12
3.36816e-12
-1.99699e-12
3.27866e-12
-1.60154e-12
3.18101e-12
-1.07052e-12
3.07789e-12
-4.62536e-13
2.97426e-12
1.55584e-13
2.87741e-12
7.17929e-13
2.79544e-12
1.16709e-12
2.73527e-12
1.45878e-12
2.70189e-12
1.5642e-12
2.69909e-12
1.47194e-12
2.73065e-12
1.19005e-12
2.80062e-12
7.47234e-13
2.912e-12
1.91138e-13
3.06481e-12
-4.17197e-13
3.25489e-12
-1.01163e-12
3.47439e-12
-1.52956e-12
3.71349e-12
-1.9187e-12
3.96213e-12
-2.14142e-12
4.21094e-12
-2.17724e-12
4.45143e-12
-2.02448e-12
4.67635e-12
-1.70105e-12
4.88092e-12
-1.24351e-12
5.06468e-12
-7.03096e-13
5.23274e-12
-1.38801e-13