/*--------------------------------*- C++ -*----------------------------------*\
| =========                 |                                                 |
| \\      /  F ield         | OpenFOAM: The Open Source CFD Toolbox           |
|  \\    /   O peration     | Version:  2406                                  |
|   \\  /    A nd           | Website:  www.openfoam.com                      |
|    \\/     M anipulation  |                                                 |
\*---------------------------------------------------------------------------*/
FoamFile
{
    version     2.0;
    format      ascii;
    arch        "LSB;label=32;scalar=64";
    class       volVectorField;
    location    "4";
    object      U;
}
// * * * * * * * * * * * * * * * * * * * * * * * * * * * * * * * * * * * * * //

dimensions      [0 1 -1 0 0 0 0];

internalField   nonuniform List<vector> 
10000
(
(3.68752e-10 -2.73688e-09 0)
(-6.08207e-10 -3.1661e-09 0)
(-1.94871e-09 -2.96238e-09 0)
(-3.59105e-09 -3.33795e-09 0)
(-5.07669e-09 -3.96638e-09 0)
(-6.08732e-09 -4.75033e-09 0)
(-6.58413e-09 -5.69075e-09 0)
(-6.58263e-09 -6.57211e-09 0)
(-6.45607e-09 -7.05624e-09 0)
(-6.58903e-09 -7.00361e-09 0)
(-6.58195e-09 -6.59354e-09 0)
(-5.4844e-09 -6.14176e-09 0)
(-2.9571e-09 -5.85509e-09 0)
(2.28933e-10 -5.72789e-09 0)
(2.95948e-09 -5.61079e-09 0)
(4.76418e-09 -5.36908e-09 0)
(5.93682e-09 -4.98543e-09 0)
(6.89966e-09 -4.54196e-09 0)
(7.67879e-09 -4.1316e-09 0)
(7.97252e-09 -3.80201e-09 0)
(7.54287e-09 -3.56539e-09 0)
(6.43451e-09 -3.43431e-09 0)
(4.87577e-09 -3.43062e-09 0)
(3.07601e-09 -3.56441e-09 0)
(1.14715e-09 -3.81219e-09 0)
(-8.31765e-10 -4.12031e-09 0)
(-2.7273e-09 -4.43043e-09 0)
(-4.3371e-09 -4.70663e-09 0)
(-5.45096e-09 -4.94509e-09 0)
(-5.93449e-09 -5.16258e-09 0)
(-5.78168e-09 -5.37368e-09 0)
(-5.11092e-09 -5.57276e-09 0)
(-4.11103e-09 -5.73233e-09 0)
(-2.96773e-09 -5.81862e-09 0)
(-1.80774e-09 -5.81472e-09 0)
(-6.84504e-10 -5.73646e-09 0)
(3.95835e-10 -5.63096e-09 0)
(1.43227e-09 -5.55821e-09 0)
(2.40066e-09 -5.56593e-09 0)
(3.25606e-09 -5.67115e-09 0)
(3.95924e-09 -5.85715e-09 0)
(4.50445e-09 -6.0852e-09 0)
(4.92701e-09 -6.3129e-09 0)
(5.28423e-09 -6.50888e-09 0)
(5.62092e-09 -6.65782e-09 0)
(5.93926e-09 -6.75644e-09 0)
(6.18916e-09 -6.80588e-09 0)
(6.28358e-09 -6.80702e-09 0)
(6.1304e-09 -6.76132e-09 0)
(5.66512e-09 -6.67546e-09 0)
(4.87123e-09 -6.56583e-09 0)
(3.78402e-09 -6.45914e-09 0)
(2.48338e-09 -6.38887e-09 0)
(1.08373e-09 -6.3892e-09 0)
(-2.74727e-10 -6.48876e-09 0)
(-1.43572e-09 -6.70521e-09 0)
(-2.24171e-09 -7.04089e-09 0)
(-2.55405e-09 -7.48016e-09 0)
(-2.27366e-09 -7.98971e-09 0)
(-1.35659e-09 -8.52319e-09 0)
(1.77467e-10 -9.02985e-09 0)
(2.24156e-09 -9.46449e-09 0)
(4.6802e-09 -9.7954e-09 0)
(7.27236e-09 -1.00078e-08 0)
(9.74436e-09 -1.01035e-08 0)
(1.17967e-08 -1.00983e-08 0)
(1.31432e-08 -1.00203e-08 0)
(1.35527e-08 -9.90737e-09 0)
(1.2884e-08 -9.80457e-09 0)
(1.11058e-08 -9.7582e-09 0)
(8.30331e-09 -9.80828e-09 0)
(4.67315e-09 -9.98109e-09 0)
(5.11234e-10 -1.02846e-08 0)
(-3.80891e-09 -1.07079e-08 0)
(-7.86902e-09 -1.12248e-08 0)
(-1.12512e-08 -1.17974e-08 0)
(-1.35906e-08 -1.23805e-08 0)
(-1.46257e-08 -1.29241e-08 0)
(-1.42369e-08 -1.3376e-08 0)
(-1.24648e-08 -1.36866e-08 0)
(-9.50751e-09 -1.38149e-08 0)
(-5.70039e-09 -1.3735e-08 0)
(-1.48212e-09 -1.34401e-08 0)
(2.64785e-09 -1.29412e-08 0)
(6.18475e-09 -1.22647e-08 0)
(8.68225e-09 -1.14483e-08 0)
(9.82336e-09 -1.05448e-08 0)
(9.47357e-09 -9.62432e-09 0)
(7.70331e-09 -8.77661e-09 0)
(4.75951e-09 -8.09446e-09 0)
(1.01213e-09 -7.6511e-09 0)
(-3.10486e-09 -7.466e-09 0)
(-7.12001e-09 -7.49103e-09 0)
(-1.05511e-08 -7.60225e-09 0)
(-1.29694e-08 -7.63028e-09 0)
(-1.41522e-08 -7.44254e-09 0)
(-1.41954e-08 -7.14398e-09 0)
(-1.33055e-08 -7.21635e-09 0)
(-1.08129e-08 -7.80615e-09 0)
(-4.76432e-09 -5.6832e-09 0)
(1.5926e-09 -9.13999e-09 0)
(-1.18651e-10 -1.27343e-08 0)
(-3.3524e-09 -1.285e-08 0)
(-6.5234e-09 -1.38064e-08 0)
(-9.07655e-09 -1.54116e-08 0)
(-1.0707e-08 -1.74714e-08 0)
(-1.13165e-08 -1.97444e-08 0)
(-1.08712e-08 -2.16382e-08 0)
(-9.91999e-09 -2.24717e-08 0)
(-9.18121e-09 -2.19714e-08 0)
(-8.48444e-09 -2.05122e-08 0)
(-6.80875e-09 -1.8895e-08 0)
(-3.55513e-09 -1.77767e-08 0)
(6.56896e-10 -1.72236e-08 0)
(4.58636e-09 -1.68246e-08 0)
(7.48315e-09 -1.61865e-08 0)
(9.44586e-09 -1.52853e-08 0)
(1.08786e-08 -1.43845e-08 0)
(1.18654e-08 -1.37392e-08 0)
(1.21198e-08 -1.34293e-08 0)
(1.13696e-08 -1.34183e-08 0)
(9.65093e-09 -1.36746e-08 0)
(7.25575e-09 -1.4203e-08 0)
(4.50733e-09 -1.49805e-08 0)
(1.62919e-09 -1.5902e-08 0)
(-1.22257e-09 -1.67973e-08 0)
(-3.87222e-09 -1.75075e-08 0)
(-6.09386e-09 -1.79566e-08 0)
(-7.65716e-09 -1.81723e-08 0)
(-8.40418e-09 -1.82475e-08 0)
(-8.30651e-09 -1.82728e-08 0)
(-7.47521e-09 -1.82828e-08 0)
(-6.12235e-09 -1.82479e-08 0)
(-4.49324e-09 -1.81137e-08 0)
(-2.79932e-09 -1.78596e-08 0)
(-1.17849e-09 -1.75403e-08 0)
(3.06528e-10 -1.72796e-08 0)
(1.64159e-09 -1.72217e-08 0)
(2.82934e-09 -1.74678e-08 0)
(3.87242e-09 -1.80319e-08 0)
(4.7766e-09 -1.88403e-08 0)
(5.56258e-09 -1.97684e-08 0)
(6.26957e-09 -2.06911e-08 0)
(6.94197e-09 -2.15212e-08 0)
(7.60301e-09 -2.22182e-08 0)
(8.2296e-09 -2.27731e-08 0)
(8.74292e-09 -2.3186e-08 0)
(9.02244e-09 -2.34518e-08 0)
(8.9393e-09 -2.35636e-08 0)
(8.3954e-09 -2.35268e-08 0)
(7.35326e-09 -2.33729e-08 0)
(5.84834e-09 -2.31634e-08 0)
(3.98587e-09 -2.29811e-08 0)
(1.93029e-09 -2.29155e-08 0)
(-1.06942e-10 -2.30465e-08 0)
(-1.88252e-09 -2.34311e-08 0)
(-3.14422e-09 -2.40929e-08 0)
(-3.66353e-09 -2.50154e-08 0)
(-3.27249e-09 -2.61433e-08 0)
(-1.89498e-09 -2.73926e-08 0)
(4.34925e-10 -2.86707e-08 0)
(3.5685e-09 -2.98976e-08 0)
(7.2487e-09 -3.10205e-08 0)
(1.11252e-08 -3.20175e-08 0)
(1.478e-08 -3.28913e-08 0)
(1.77676e-08 -3.36612e-08 0)
(1.96678e-08 -3.43586e-08 0)
(2.01438e-08 -3.50245e-08 0)
(1.89937e-08 -3.57064e-08 0)
(1.61835e-08 -3.64509e-08 0)
(1.1859e-08 -3.729e-08 0)
(6.33626e-09 -3.82298e-08 0)
(7.68211e-11 -3.92456e-08 0)
(-6.35126e-09 -4.02868e-08 0)
(-1.23259e-08 -4.12882e-08 0)
(-1.72356e-08 -4.21824e-08 0)
(-2.05526e-08 -4.2907e-08 0)
(-2.19026e-08 -4.34074e-08 0)
(-2.1121e-08 -4.36368e-08 0)
(-1.82813e-08 -4.35605e-08 0)
(-1.3694e-08 -4.31604e-08 0)
(-7.87199e-09 -4.24431e-08 0)
(-1.47792e-09 -4.14374e-08 0)
(4.74928e-09 -4.01879e-08 0)
(1.00705e-08 -3.87405e-08 0)
(1.38372e-08 -3.71421e-08 0)
(1.55755e-08 -3.54482e-08 0)
(1.50682e-08 -3.37488e-08 0)
(1.23888e-08 -3.21681e-08 0)
(7.89865e-09 -3.08473e-08 0)
(2.17582e-09 -2.98786e-08 0)
(-4.05103e-09 -2.92552e-08 0)
(-9.97814e-09 -2.88257e-08 0)
(-1.47941e-08 -2.83094e-08 0)
(-1.78927e-08 -2.73466e-08 0)
(-1.92049e-08 -2.57236e-08 0)
(-1.93832e-08 -2.37914e-08 0)
(-1.88972e-08 -2.27426e-08 0)
(-1.63225e-08 -2.25075e-08 0)
(-7.57181e-09 -1.54632e-08 0)
(1.55021e-09 -1.43752e-08 0)
(-5.6876e-10 -2.14667e-08 0)
(-4.25179e-09 -2.20148e-08 0)
(-8.03695e-09 -2.2638e-08 0)
(-1.10622e-08 -2.38334e-08 0)
(-1.30659e-08 -2.56313e-08 0)
(-1.35026e-08 -2.79229e-08 0)
(-1.20656e-08 -3.00257e-08 0)
(-9.6212e-09 -3.10251e-08 0)
(-7.65178e-09 -3.04877e-08 0)
(-6.53568e-09 -2.87943e-08 0)
(-5.18028e-09 -2.68265e-08 0)
(-2.45049e-09 -2.52793e-08 0)
(1.51904e-09 -2.42346e-08 0)
(5.55338e-09 -2.33385e-08 0)
(8.6213e-09 -2.23222e-08 0)
(1.0549e-08 -2.12797e-08 0)
(1.17028e-08 -2.05211e-08 0)
(1.23037e-08 -2.02686e-08 0)
(1.21863e-08 -2.05399e-08 0)
(1.11018e-08 -2.12422e-08 0)
(9.06907e-09 -2.22983e-08 0)
(6.40647e-09 -2.36584e-08 0)
(3.51356e-09 -2.52321e-08 0)
(6.79946e-10 -2.68402e-08 0)
(-1.9414e-09 -2.82452e-08 0)
(-4.25395e-09 -2.92329e-08 0)
(-6.14429e-09 -2.9688e-08 0)
(-7.46908e-09 -2.96208e-08 0)
(-8.09436e-09 -2.91384e-08 0)
(-7.95499e-09 -2.8385e-08 0)
(-7.10181e-09 -2.74846e-08 0)
(-5.71037e-09 -2.65164e-08 0)
(-4.04114e-09 -2.55307e-08 0)
(-2.36433e-09 -2.45871e-08 0)
(-8.81893e-10 -2.37855e-08 0)
(3.17827e-10 -2.3264e-08 0)
(1.25573e-09 -2.31617e-08 0)
(2.01827e-09 -2.35667e-08 0)
(2.70343e-09 -2.44787e-08 0)
(3.38398e-09 -2.58067e-08 0)
(4.09826e-09 -2.7399e-08 0)
(4.8597e-09 -2.909e-08 0)
(5.66809e-09 -3.07375e-08 0)
(6.5096e-09 -3.22376e-08 0)
(7.34445e-09 -3.35184e-08 0)
(8.09276e-09 -3.45259e-08 0)
(8.63317e-09 -3.52175e-08 0)
(8.82263e-09 -3.55685e-08 0)
(8.53289e-09 -3.55871e-08 0)
(7.68868e-09 -3.53266e-08 0)
(6.29284e-09 -3.48836e-08 0)
(4.43264e-09 -3.43854e-08 0)
(2.2725e-09 -3.39699e-08 0)
(4.04292e-11 -3.3768e-08 0)
(-1.99011e-09 -3.38895e-08 0)
(-3.52739e-09 -3.44113e-08 0)
(-4.30092e-09 -3.53678e-08 0)
(-4.10788e-09 -3.67458e-08 0)
(-2.85363e-09 -3.84878e-08 0)
(-5.73796e-10 -4.05056e-08 0)
(2.56555e-09 -4.26999e-08 0)
(6.28397e-09 -4.49765e-08 0)
(1.02109e-08 -4.72549e-08 0)
(1.39148e-08 -4.9469e-08 0)
(1.69413e-08 -5.15658e-08 0)
(1.88626e-08 -5.35059e-08 0)
(1.93355e-08 -5.52677e-08 0)
(1.8157e-08 -5.68485e-08 0)
(1.53019e-08 -5.82602e-08 0)
(1.09355e-08 -5.95183e-08 0)
(5.3989e-09 -6.06284e-08 0)
(-8.24125e-10 -6.15789e-08 0)
(-7.15377e-09 -6.23422e-08 0)
(-1.29681e-08 -6.28842e-08 0)
(-1.76652e-08 -6.31745e-08 0)
(-2.07294e-08 -6.31943e-08 0)
(-2.17992e-08 -6.29366e-08 0)
(-2.07223e-08 -6.2405e-08 0)
(-1.75886e-08 -6.16119e-08 0)
(-1.27264e-08 -6.05838e-08 0)
(-6.66779e-09 -5.93639e-08 0)
(-8.27581e-11 -5.80136e-08 0)
(6.2905e-09 -5.65958e-08 0)
(1.17243e-08 -5.51603e-08 0)
(1.55666e-08 -5.37259e-08 0)
(1.73266e-08 -5.2297e-08 0)
(1.67484e-08 -5.08822e-08 0)
(1.38919e-08 -4.95292e-08 0)
(9.13908e-09 -4.83042e-08 0)
(3.15734e-09 -4.72681e-08 0)
(-3.21452e-09 -4.64106e-08 0)
(-9.04214e-09 -4.56293e-08 0)
(-1.34388e-08 -4.46741e-08 0)
(-1.58484e-08 -4.31807e-08 0)
(-1.65764e-08 -4.08449e-08 0)
(-1.6851e-08 -3.79725e-08 0)
(-1.73349e-08 -3.58666e-08 0)
(-1.55478e-08 -3.43696e-08 0)
(-7.01802e-09 -2.26558e-08 0)
(5.83945e-10 -1.90494e-08 0)
(-1.97737e-09 -2.8485e-08 0)
(-5.02599e-09 -2.96377e-08 0)
(-8.27979e-09 -2.98976e-08 0)
(-1.14895e-08 -3.01877e-08 0)
(-1.41136e-08 -3.08688e-08 0)
(-1.49847e-08 -3.22432e-08 0)
(-1.32526e-08 -3.40119e-08 0)
(-9.71909e-09 -3.53494e-08 0)
(-6.36917e-09 -3.54424e-08 0)
(-4.31839e-09 -3.40983e-08 0)
(-2.85544e-09 -3.18976e-08 0)
(-5.98821e-10 -2.97004e-08 0)
(2.86185e-09 -2.7979e-08 0)
(6.6329e-09 -2.66798e-08 0)
(9.53803e-09 -2.56043e-08 0)
(1.11261e-08 -2.47894e-08 0)
(1.16923e-08 -2.44826e-08 0)
(1.16118e-08 -2.48818e-08 0)
(1.09026e-08 -2.59688e-08 0)
(9.37954e-09 -2.75757e-08 0)
(7.03548e-09 -2.95243e-08 0)
(4.17577e-09 -3.16852e-08 0)
(1.24835e-09 -3.39326e-08 0)
(-1.38586e-09 -3.6086e-08 0)
(-3.54432e-09 -3.79018e-08 0)
(-5.17848e-09 -3.91258e-08 0)
(-6.28889e-09 -3.95654e-08 0)
(-6.87e-09 -3.91503e-08 0)
(-6.90071e-09 -3.79537e-08 0)
(-6.37177e-09 -3.61701e-08 0)
(-5.32989e-09 -3.40579e-08 0)
(-3.91119e-09 -3.18735e-08 0)
(-2.33712e-09 -2.98265e-08 0)
(-8.63748e-10 -2.80709e-08 0)
(2.97084e-10 -2.67245e-08 0)
(1.04623e-09 -2.58928e-08 0)
(1.4206e-09 -2.56751e-08 0)
(1.56192e-09 -2.61443e-08 0)
(1.65148e-09 -2.73142e-08 0)
(1.84572e-09 -2.91148e-08 0)
(2.23969e-09 -3.1394e-08 0)
(2.8642e-09 -3.39449e-08 0)
(3.70336e-09 -3.65453e-08 0)
(4.71208e-09 -3.89935e-08 0)
(5.81969e-09 -4.1127e-08 0)
(6.92097e-09 -4.28266e-08 0)
(7.86915e-09 -4.40138e-08 0)
(8.48689e-09 -4.46523e-08 0)
(8.60022e-09 -4.47549e-08 0)
(8.08352e-09 -4.439e-08 0)
(6.89636e-09 -4.36788e-08 0)
(5.09862e-09 -4.27819e-08 0)
(2.84493e-09 -4.18795e-08 0)
(3.67895e-10 -4.11537e-08 0)
(-2.0426e-09 -4.07756e-08 0)
(-4.06596e-09 -4.08947e-08 0)
(-5.38919e-09 -4.16253e-08 0)
(-5.7565e-09 -4.30303e-08 0)
(-5.01905e-09 -4.51085e-08 0)
(-3.16831e-09 -4.77928e-08 0)
(-3.4314e-10 -5.09619e-08 0)
(3.18703e-09 -5.44614e-08 0)
(7.0524e-09 -5.81233e-08 0)
(1.08175e-08 -6.17802e-08 0)
(1.40197e-08 -6.52741e-08 0)
(1.62157e-08 -6.84643e-08 0)
(1.70383e-08 -7.12383e-08 0)
(1.62548e-08 -7.35225e-08 0)
(1.38128e-08 -7.52874e-08 0)
(9.86011e-09 -7.6543e-08 0)
(4.73257e-09 -7.73245e-08 0)
(-1.08486e-09 -7.76749e-08 0)
(-7.01218e-09 -7.76344e-08 0)
(-1.24354e-08 -7.72372e-08 0)
(-1.67678e-08 -7.65184e-08 0)
(-1.95123e-08 -7.55198e-08 0)
(-2.03213e-08 -7.42934e-08 0)
(-1.90512e-08 -7.28961e-08 0)
(-1.57958e-08 -7.13866e-08 0)
(-1.0892e-08 -6.98231e-08 0)
(-4.87879e-09 -6.82722e-08 0)
(1.57025e-09 -6.68101e-08 0)
(7.74028e-09 -6.55177e-08 0)
(1.29456e-08 -6.44468e-08 0)
(1.65955e-08 -6.35968e-08 0)
(1.82322e-08 -6.28928e-08 0)
(1.76046e-08 -6.22237e-08 0)
(1.47282e-08 -6.1477e-08 0)
(9.95193e-09 -6.05987e-08 0)
(3.9177e-09 -5.95905e-08 0)
(-2.49303e-09 -5.85223e-08 0)
(-8.25916e-09 -5.74592e-08 0)
(-1.23283e-08 -5.63651e-08 0)
(-1.40744e-08 -5.49346e-08 0)
(-1.39986e-08 -5.27029e-08 0)
(-1.38198e-08 -4.95846e-08 0)
(-1.43571e-08 -4.6605e-08 0)
(-1.26941e-08 -4.34504e-08 0)
(-5.4107e-09 -2.80207e-08 0)
(-6.77899e-10 -2.28628e-08 0)
(-3.86499e-09 -3.39746e-08 0)
(-6.27303e-09 -3.59814e-08 0)
(-8.19431e-09 -3.67396e-08 0)
(-1.08801e-08 -3.69586e-08 0)
(-1.3875e-08 -3.68802e-08 0)
(-1.54373e-08 -3.71427e-08 0)
(-1.40282e-08 -3.79758e-08 0)
(-1.00078e-08 -3.89416e-08 0)
(-5.48106e-09 -3.9166e-08 0)
(-2.22117e-09 -3.80067e-08 0)
(-2.02654e-10 -3.56433e-08 0)
(1.81702e-09 -3.29029e-08 0)
(4.63982e-09 -3.05584e-08 0)
(7.79289e-09 -2.88656e-08 0)
(1.01691e-08 -2.77345e-08 0)
(1.11482e-08 -2.71241e-08 0)
(1.09317e-08 -2.71839e-08 0)
(1.0011e-08 -2.80695e-08 0)
(8.59441e-09 -2.97521e-08 0)
(6.59954e-09 -3.20161e-08 0)
(4.00562e-09 -3.45969e-08 0)
(1.07452e-09 -3.72795e-08 0)
(-1.74712e-09 -3.99008e-08 0)
(-4.05499e-09 -4.22954e-08 0)
(-5.62573e-09 -4.4262e-08 0)
(-6.41826e-09 -4.55734e-08 0)
(-6.50969e-09 -4.60241e-08 0)
(-6.02955e-09 -4.54915e-08 0)
(-5.11527e-09 -4.39901e-08 0)
(-3.89182e-09 -4.16904e-08 0)
(-2.4768e-09 -3.88906e-08 0)
(-1.00226e-09 -3.5948e-08 0)
(3.68153e-10 -3.31987e-08 0)
(1.4506e-09 -3.0902e-08 0)
(2.08687e-09 -2.92282e-08 0)
(2.20464e-09 -2.82801e-08 0)
(1.85764e-09 -2.81229e-08 0)
(1.22006e-09 -2.87957e-08 0)
(5.35556e-10 -3.02971e-08 0)
(4.5453e-11 -3.25584e-08 0)
(-7.1951e-11 -3.54266e-08 0)
(2.69807e-10 -3.86736e-08 0)
(1.06944e-09 -4.20299e-08 0)
(2.25937e-09 -4.52301e-08 0)
(3.72461e-09 -4.80495e-08 0)
(5.30907e-09 -5.03229e-08 0)
(6.81502e-09 -5.19468e-08 0)
(8.01252e-09 -5.28759e-08 0)
(8.67035e-09 -5.31236e-08 0)
(8.60388e-09 -5.27636e-08 0)
(7.72061e-09 -5.19295e-08 0)
(6.04444e-09 -5.08023e-08 0)
(3.71303e-09 -4.95907e-08 0)
(9.57874e-10 -4.85097e-08 0)
(-1.92058e-09 -4.77659e-08 0)
(-4.57887e-09 -4.7548e-08 0)
(-6.66379e-09 -4.80163e-08 0)
(-7.85875e-09 -4.92864e-08 0)
(-7.93822e-09 -5.14085e-08 0)
(-6.81425e-09 -5.43536e-08 0)
(-4.55881e-09 -5.80138e-08 0)
(-1.3964e-09 -6.22175e-08 0)
(2.32548e-09 -6.67533e-08 0)
(6.17576e-09 -7.13919e-08 0)
(9.68207e-09 -7.59023e-08 0)
(1.23772e-08 -8.00646e-08 0)
(1.38535e-08 -8.36844e-08 0)
(1.3823e-08 -8.66105e-08 0)
(1.21711e-08 -8.87515e-08 0)
(8.98921e-09 -9.00825e-08 0)
(4.57291e-09 -9.06385e-08 0)
(-6.12797e-10 -9.04955e-08 0)
(-5.99381e-09 -8.97488e-08 0)
(-1.09568e-08 -8.84981e-08 0)
(-1.49191e-08 -8.68431e-08 0)
(-1.73899e-08 -8.48871e-08 0)
(-1.80271e-08 -8.27397e-08 0)
(-1.66843e-08 -8.05137e-08 0)
(-1.34487e-08 -7.83138e-08 0)
(-8.64878e-09 -7.62311e-08 0)
(-2.82657e-09 -7.43421e-08 0)
(3.3451e-09 -7.27224e-08 0)
(9.16059e-09 -7.14427e-08 0)
(1.39856e-08 -7.05573e-08 0)
(1.73013e-08 -7.00556e-08 0)
(1.87372e-08 -6.98426e-08 0)
(1.80775e-08 -6.97274e-08 0)
(1.53309e-08 -6.94837e-08 0)
(1.07626e-08 -6.8894e-08 0)
(4.91793e-09 -6.78459e-08 0)
(-1.43546e-09 -6.63807e-08 0)
(-7.26248e-09 -6.47396e-08 0)
(-1.13349e-08 -6.31735e-08 0)
(-1.271e-08 -6.16476e-08 0)
(-1.18054e-08 -5.96388e-08 0)
(-1.06177e-08 -5.6649e-08 0)
(-1.03767e-08 -5.31765e-08 0)
(-8.50176e-09 -4.87846e-08 0)
(-3.13089e-09 -3.11938e-08 0)
(-2.14591e-09 -2.32494e-08 0)
(-6.36636e-09 -3.49608e-08 0)
(-8.38378e-09 -3.75011e-08 0)
(-8.74305e-09 -3.91363e-08 0)
(-1.02605e-08 -4.00522e-08 0)
(-1.28662e-08 -3.99717e-08 0)
(-1.47226e-08 -3.94545e-08 0)
(-1.3795e-08 -3.91592e-08 0)
(-9.7921e-09 -3.92323e-08 0)
(-4.49459e-09 -3.90656e-08 0)
(-6.85541e-11 -3.78467e-08 0)
(2.73243e-09 -3.53895e-08 0)
(4.70677e-09 -3.23326e-08 0)
(6.85292e-09 -2.95354e-08 0)
(9.15211e-09 -2.74686e-08 0)
(1.07323e-08 -2.61579e-08 0)
(1.09079e-08 -2.55423e-08 0)
(9.78588e-09 -2.56968e-08 0)
(7.92838e-09 -2.67458e-08 0)
(5.73148e-09 -2.86598e-08 0)
(3.2481e-09 -3.12086e-08 0)
(4.70565e-10 -3.40691e-08 0)
(-2.39937e-09 -3.69528e-08 0)
(-4.9654e-09 -3.96458e-08 0)
(-6.832e-09 -4.19837e-08 0)
(-7.7592e-09 -4.38143e-08 0)
(-7.69967e-09 -4.49845e-08 0)
(-6.76433e-09 -4.53501e-08 0)
(-5.17309e-09 -4.48073e-08 0)
(-3.20349e-09 -4.33388e-08 0)
(-1.13739e-09 -4.10551e-08 0)
(7.83114e-10 -3.82054e-08 0)
(2.37393e-09 -3.51419e-08 0)
(3.50098e-09 -3.22458e-08 0)
(4.06537e-09 -2.98488e-08 0)
(4.00584e-09 -2.81835e-08 0)
(3.32528e-09 -2.73772e-08 0)
(2.12411e-09 -2.74769e-08 0)
(6.11877e-10 -2.84782e-08 0)
(-9.20444e-10 -3.03366e-08 0)
(-2.16235e-09 -3.29581e-08 0)
(-2.85562e-09 -3.61833e-08 0)
(-2.84776e-09 -3.97847e-08 0)
(-2.11031e-09 -4.34891e-08 0)
(-7.24606e-10 -4.70176e-08 0)
(1.14725e-09 -5.0128e-08 0)
(3.28697e-09 -5.26417e-08 0)
(5.43383e-09 -5.44508e-08 0)
(7.2979e-09 -5.55132e-08 0)
(8.58779e-09 -5.58458e-08 0)
(9.05732e-09 -5.55249e-08 0)
(8.55717e-09 -5.46857e-08 0)
(7.06929e-09 -5.3514e-08 0)
(4.71084e-09 -5.22265e-08 0)
(1.71248e-09 -5.10454e-08 0)
(-1.61358e-09 -5.01786e-08 0)
(-4.90391e-09 -4.98095e-08 0)
(-7.77438e-09 -5.00937e-08 0)
(-9.85948e-09 -5.11518e-08 0)
(-1.08638e-08 -5.30549e-08 0)
(-1.06158e-08 -5.58082e-08 0)
(-9.1048e-09 -5.93408e-08 0)
(-6.48829e-09 -6.35112e-08 0)
(-3.06975e-09 -6.81247e-08 0)
(7.42395e-10 -7.29546e-08 0)
(4.4813e-09 -7.77595e-08 0)
(7.66931e-09 -8.22954e-08 0)
(9.86901e-09 -8.63281e-08 0)
(1.07399e-08 -8.96502e-08 0)
(1.00955e-08 -9.21044e-08 0)
(7.94673e-09 -9.36029e-08 0)
(4.51665e-09 -9.4136e-08 0)
(2.17547e-10 -9.37638e-08 0)
(-4.4057e-09 -9.25953e-08 0)
(-8.75313e-09 -9.07657e-08 0)
(-1.22485e-08 -8.84217e-08 0)
(-1.44089e-08 -8.57163e-08 0)
(-1.48964e-08 -8.28114e-08 0)
(-1.35609e-08 -7.98725e-08 0)
(-1.047e-08 -7.7058e-08 0)
(-5.92848e-09 -7.44989e-08 0)
(-4.53736e-10 -7.22939e-08 0)
(5.2894e-09 -7.05109e-08 0)
(1.06124e-08 -6.92059e-08 0)
(1.49119e-08 -6.84141e-08 0)
(1.77513e-08 -6.81352e-08 0)
(1.88538e-08 -6.82821e-08 0)
(1.81063e-08 -6.86732e-08 0)
(1.55524e-08 -6.90178e-08 0)
(1.14348e-08 -6.89768e-08 0)
(6.1372e-09 -6.82289e-08 0)
(1.93987e-10 -6.66724e-08 0)
(-5.58748e-09 -6.45576e-08 0)
(-9.89511e-09 -6.24415e-08 0)
(-1.13746e-08 -6.06932e-08 0)
(-9.94092e-09 -5.90366e-08 0)
(-7.54035e-09 -5.67076e-08 0)
(-5.91416e-09 -5.36083e-08 0)
(-3.71326e-09 -4.90041e-08 0)
(-5.82757e-10 -3.13763e-08 0)
(-3.70884e-09 -2.01713e-08 0)
(-9.26314e-09 -3.07435e-08 0)
(-1.10423e-08 -3.2923e-08 0)
(-1.02229e-08 -3.49616e-08 0)
(-1.03477e-08 -3.66218e-08 0)
(-1.18595e-08 -3.69774e-08 0)
(-1.3297e-08 -3.61707e-08 0)
(-1.25864e-08 -3.50036e-08 0)
(-8.83905e-09 -3.4129e-08 0)
(-3.20495e-09 -3.33961e-08 0)
(2.12616e-09 -3.20721e-08 0)
(5.73626e-09 -2.97346e-08 0)
(7.83369e-09 -2.67354e-08 0)
(9.39782e-09 -2.38517e-08 0)
(1.0799e-08 -2.16443e-08 0)
(1.14711e-08 -2.02514e-08 0)
(1.07566e-08 -1.96256e-08 0)
(8.6827e-09 -1.98026e-08 0)
(5.85431e-09 -2.08769e-08 0)
(2.83877e-09 -2.28279e-08 0)
(-1.50665e-10 -2.54309e-08 0)
(-3.07704e-09 -2.83386e-08 0)
(-5.7894e-09 -3.12074e-08 0)
(-7.96919e-09 -3.37678e-08 0)
(-9.27939e-09 -3.5826e-08 0)
(-9.5149e-09 -3.72498e-08 0)
(-8.64954e-09 -3.7956e-08 0)
(-6.81689e-09 -3.7901e-08 0)
(-4.27961e-09 -3.70722e-08 0)
(-1.39556e-09 -3.54959e-08 0)
(1.43672e-09 -3.32639e-08 0)
(3.85046e-09 -3.05633e-08 0)
(5.57353e-09 -2.76807e-08 0)
(6.45481e-09 -2.49645e-08 0)
(6.45274e-09 -2.27563e-08 0)
(5.6093e-09 -2.13229e-08 0)
(4.03571e-09 -2.08182e-08 0)
(1.9168e-09 -2.12848e-08 0)
(-4.81318e-10 -2.26815e-08 0)
(-2.82391e-09 -2.49122e-08 0)
(-4.75211e-09 -2.784e-08 0)
(-5.95067e-09 -3.12857e-08 0)
(-6.21418e-09 -3.50247e-08 0)
(-5.48584e-09 -3.87969e-08 0)
(-3.85678e-09 -4.23364e-08 0)
(-1.53459e-09 -4.54094e-08 0)
(1.19713e-09 -4.7846e-08 0)
(4.01037e-09 -4.95519e-08 0)
(6.55457e-09 -5.05024e-08 0)
(8.48254e-09 -5.07316e-08 0)
(9.49244e-09 -5.0326e-08 0)
(9.38115e-09 -4.94235e-08 0)
(8.08855e-09 -4.82097e-08 0)
(5.71209e-09 -4.69011e-08 0)
(2.48747e-09 -4.57181e-08 0)
(-1.25101e-09 -4.48584e-08 0)
(-5.11185e-09 -4.44817e-08 0)
(-8.68179e-09 -4.47083e-08 0)
(-1.15609e-08 -4.56231e-08 0)
(-1.34062e-08 -4.72748e-08 0)
(-1.39834e-08 -4.96672e-08 0)
(-1.32109e-08 -5.27488e-08 0)
(-1.11809e-08 -5.64099e-08 0)
(-8.14648e-09 -6.04917e-08 0)
(-4.48391e-09 -6.48033e-08 0)
(-6.41756e-10 -6.91371e-08 0)
(2.90944e-09 -7.32773e-08 0)
(5.7255e-09 -7.70058e-08 0)
(7.438e-09 -8.01113e-08 0)
(7.80603e-09 -8.24077e-08 0)
(6.76323e-09 -8.37598e-08 0)
(4.44554e-09 -8.41053e-08 0)
(1.1862e-09 -8.34642e-08 0)
(-2.52855e-09 -8.19302e-08 0)
(-6.13378e-09 -7.96493e-08 0)
(-9.07349e-09 -7.67963e-08 0)
(-1.08775e-08 -7.35614e-08 0)
(-1.12186e-08 -7.01442e-08 0)
(-9.94538e-09 -6.6752e-08 0)
(-7.1079e-09 -6.35859e-08 0)
(-2.96903e-09 -6.08212e-08 0)
(1.99765e-09 -5.8581e-08 0)
(7.16949e-09 -5.69355e-08 0)
(1.18778e-08 -5.59072e-08 0)
(1.55516e-08 -5.54975e-08 0)
(1.77976e-08 -5.56769e-08 0)
(1.84332e-08 -5.6382e-08 0)
(1.74476e-08 -5.74671e-08 0)
(1.50132e-08 -5.8685e-08 0)
(1.14249e-08 -5.96274e-08 0)
(6.99382e-09 -5.97984e-08 0)
(1.91277e-09 -5.88115e-08 0)
(-3.44319e-09 -5.67682e-08 0)
(-7.9867e-09 -5.43332e-08 0)
(-9.98419e-09 -5.2326e-08 0)
(-8.59885e-09 -5.09155e-08 0)
(-5.22974e-09 -4.94429e-08 0)
(-2.03936e-09 -4.7325e-08 0)
(6.12527e-10 -4.35151e-08 0)
(1.73563e-09 -2.80204e-08 0)
(-5.02182e-09 -1.53486e-08 0)
(-1.16068e-08 -2.31942e-08 0)
(-1.32561e-08 -2.40445e-08 0)
(-1.2039e-08 -2.5561e-08 0)
(-1.11148e-08 -2.73697e-08 0)
(-1.12257e-08 -2.80485e-08 0)
(-1.16508e-08 -2.72119e-08 0)
(-1.07613e-08 -2.55228e-08 0)
(-7.32375e-09 -2.39353e-08 0)
(-1.734e-09 -2.2735e-08 0)
(4.11665e-09 -2.14375e-08 0)
(8.39437e-09 -1.95141e-08 0)
(1.07028e-08 -1.70429e-08 0)
(1.18391e-08 -1.45993e-08 0)
(1.2431e-08 -1.27287e-08 0)
(1.2225e-08 -1.16214e-08 0)
(1.06475e-08 -1.12515e-08 0)
(7.67343e-09 -1.16213e-08 0)
(3.92683e-09 -1.2805e-08 0)
(1.27495e-10 -1.47909e-08 0)
(-3.34403e-09 -1.73796e-08 0)
(-6.37672e-09 -2.02297e-08 0)
(-8.84865e-09 -2.29796e-08 0)
(-1.05171e-08 -2.53223e-08 0)
(-1.11294e-08 -2.70267e-08 0)
(-1.05624e-08 -2.79415e-08 0)
(-8.8638e-09 -2.80074e-08 0)
(-6.22142e-09 -2.72553e-08 0)
(-2.93084e-09 -2.57812e-08 0)
(6.20828e-10 -2.3712e-08 0)
(3.98539e-09 -2.1192e-08 0)
(6.72056e-09 -1.83974e-08 0)
(8.4759e-09 -1.55585e-08 0)
(9.05762e-09 -1.296e-08 0)
(8.44451e-09 -1.0905e-08 0)
(6.7602e-09 -9.65635e-09 0)
(4.23017e-09 -9.38196e-09 0)
(1.14957e-09 -1.01313e-08 0)
(-2.13298e-09 -1.18461e-08 0)
(-5.22979e-09 -1.43917e-08 0)
(-7.74522e-09 -1.75881e-08 0)
(-9.3302e-09 -2.12265e-08 0)
(-9.7475e-09 -2.5073e-08 0)
(-8.92263e-09 -2.8874e-08 0)
(-6.95803e-09 -3.23736e-08 0)
(-4.10637e-09 -3.53452e-08 0)
(-7.19781e-10 -3.7624e-08 0)
(2.8003e-09 -3.91251e-08 0)
(6.03916e-09 -3.98411e-08 0)
(8.59697e-09 -3.98271e-08 0)
(1.01246e-08 -3.91869e-08 0)
(1.0373e-08 -3.80675e-08 0)
(9.24363e-09 -3.66571e-08 0)
(6.81534e-09 -3.5175e-08 0)
(3.33338e-09 -3.38473e-08 0)
(-8.33631e-10 -3.28756e-08 0)
(-5.24877e-09 -3.24123e-08 0)
(-9.45586e-09 -3.25522e-08 0)
(-1.30189e-08 -3.3339e-08 0)
(-1.55603e-08 -3.47761e-08 0)
(-1.68047e-08 -3.68303e-08 0)
(-1.66223e-08 -3.94293e-08 0)
(-1.50567e-08 -4.2459e-08 0)
(-1.23227e-08 -4.57692e-08 0)
(-8.77229e-09 -4.91881e-08 0)
(-4.84155e-09 -5.25391e-08 0)
(-9.93909e-10 -5.56501e-08 0)
(2.33003e-09 -5.83549e-08 0)
(4.75569e-09 -6.04915e-08 0)
(6.01557e-09 -6.19066e-08 0)
(5.98906e-09 -6.24732e-08 0)
(4.73409e-09 -6.2116e-08 0)
(2.49617e-09 -6.08339e-08 0)
(-3.16372e-10 -5.87075e-08 0)
(-3.19471e-09 -5.58873e-08 0)
(-5.61448e-09 -5.25702e-08 0)
(-7.12296e-09 -4.89736e-08 0)
(-7.40158e-09 -4.53221e-08 0)
(-6.30195e-09 -4.18399e-08 0)
(-3.85606e-09 -3.87461e-08 0)
(-2.86545e-10 -3.6232e-08 0)
(4.00104e-09 -3.44377e-08 0)
(8.4478e-09 -3.34245e-08 0)
(1.24419e-08 -3.3182e-08 0)
(1.54363e-08 -3.36385e-08 0)
(1.70661e-08 -3.47033e-08 0)
(1.71725e-08 -3.62777e-08 0)
(1.58317e-08 -3.82747e-08 0)
(1.3349e-08 -4.05387e-08 0)
(1.02169e-08 -4.27452e-08 0)
(6.79294e-09 -4.42988e-08 0)
(3.01305e-09 -4.45567e-08 0)
(-1.37399e-09 -4.32788e-08 0)
(-5.79066e-09 -4.10301e-08 0)
(-8.42203e-09 -3.88612e-08 0)
(-7.59406e-09 -3.74734e-08 0)
(-3.8285e-09 -3.65776e-08 0)
(6.45642e-10 -3.54473e-08 0)
(3.78734e-09 -3.28766e-08 0)
(3.48606e-09 -2.12591e-08 0)
(-5.66874e-09 -9.99196e-09 0)
(-1.24245e-08 -1.4206e-08 0)
(-1.40852e-08 -1.33217e-08 0)
(-1.33106e-08 -1.36449e-08 0)
(-1.19793e-08 -1.48785e-08 0)
(-1.08231e-08 -1.54429e-08 0)
(-9.97863e-09 -1.45272e-08 0)
(-8.61583e-09 -1.25188e-08 0)
(-5.46806e-09 -1.04195e-08 0)
(-2.43866e-10 -8.84359e-09 0)
(5.68362e-09 -7.60338e-09 0)
(1.03331e-08 -6.21046e-09 0)
(1.28101e-08 -4.52743e-09 0)
(1.36294e-08 -2.90257e-09 0)
(1.35522e-08 -1.76885e-09 0)
(1.25902e-08 -1.30514e-09 0)
(1.02808e-08 -1.46666e-09 0)
(6.55605e-09 -2.22193e-09 0)
(2.03952e-09 -3.62134e-09 0)
(-2.42595e-09 -5.67237e-09 0)
(-6.29593e-09 -8.21246e-09 0)
(-9.37201e-09 -1.09366e-08 0)
(-1.15391e-08 -1.3505e-08 0)
(-1.2612e-08 -1.56198e-08 0)
(-1.2413e-08 -1.70394e-08 0)
(-1.09134e-08 -1.75861e-08 0)
(-8.27367e-09 -1.7176e-08 0)
(-4.78689e-09 -1.58478e-08 0)
(-8.155e-10 -1.37522e-08 0)
(3.2304e-09 -1.11042e-08 0)
(6.89953e-09 -8.13106e-09 0)
(9.73597e-09 -5.04838e-09 0)
(1.13562e-08 -2.07028e-09 0)
(1.15335e-08 5.72606e-10 0)
(1.02461e-08 2.63437e-09 0)
(7.66954e-09 3.88542e-09 0)
(4.12739e-09 4.1602e-09 0)
(3.05612e-11 3.39573e-09 0)
(-4.1706e-09 1.64123e-09 0)
(-8.01886e-09 -9.6181e-10 0)
(-1.10796e-08 -4.21428e-09 0)
(-1.29818e-08 -7.88904e-09 0)
(-1.34729e-08 -1.17457e-08 0)
(-1.24711e-08 -1.55357e-08 0)
(-1.00913e-08 -1.90107e-08 0)
(-6.62885e-09 -2.19448e-08 0)
(-2.50549e-09 -2.41649e-08 0)
(1.79643e-09 -2.55757e-08 0)
(5.78879e-09 -2.61651e-08 0)
(9.01496e-09 -2.59913e-08 0)
(1.1082e-08 -2.51633e-08 0)
(1.17019e-08 -2.38282e-08 0)
(1.0741e-08 -2.2168e-08 0)
(8.25645e-09 -2.03965e-08 0)
(4.49858e-09 -1.87434e-08 0)
(-1.27443e-10 -1.74252e-08 0)
(-5.12597e-09 -1.66126e-08 0)
(-9.97717e-09 -1.64101e-08 0)
(-1.41903e-08 -1.68532e-08 0)
(-1.7345e-08 -1.79203e-08 0)
(-1.91288e-08 -1.95448e-08 0)
(-1.93759e-08 -2.16215e-08 0)
(-1.80957e-08 -2.4009e-08 0)
(-1.54792e-08 -2.65358e-08 0)
(-1.18708e-08 -2.90159e-08 0)
(-7.71472e-09 -3.12701e-08 0)
(-3.48936e-09 -3.3144e-08 0)
(3.52304e-10 -3.45139e-08 0)
(3.42775e-09 -3.52808e-08 0)
(5.45767e-09 -3.53615e-08 0)
(6.29287e-09 -3.46878e-08 0)
(5.93712e-09 -3.32206e-08 0)
(4.56063e-09 -3.09727e-08 0)
(2.4905e-09 -2.80287e-08 0)
(1.69256e-10 -2.45482e-08 0)
(-1.9192e-09 -2.07475e-08 0)
(-3.33572e-09 -1.68704e-08 0)
(-3.76183e-09 -1.31602e-08 0)
(-3.03955e-09 -9.84626e-09 0)
(-1.18417e-09 -7.13637e-09 0)
(1.62465e-09 -5.21087e-09 0)
(5.04706e-09 -4.19717e-09 0)
(8.61688e-09 -4.14747e-09 0)
(1.18019e-08 -5.01155e-09 0)
(1.4117e-08 -6.65041e-09 0)
(1.51974e-08 -8.86226e-09 0)
(1.48611e-08 -1.14707e-08 0)
(1.31534e-08 -1.43794e-08 0)
(1.04853e-08 -1.75735e-08 0)
(7.5875e-09 -2.09084e-08 0)
(5.08748e-09 -2.39021e-08 0)
(2.81738e-09 -2.57488e-08 0)
(-5.91348e-11 -2.58669e-08 0)
(-3.75643e-09 -2.44603e-08 0)
(-6.69628e-09 -2.2551e-08 0)
(-6.60908e-09 -2.11634e-08 0)
(-2.9844e-09 -2.0514e-08 0)
(2.19413e-09 -1.99907e-08 0)
(5.72199e-09 -1.85686e-08 0)
(4.57374e-09 -1.19086e-08 0)
(-5.47269e-09 -4.3364e-09 0)
(-1.14441e-08 -4.74295e-09 0)
(-1.32894e-08 -2.45695e-09 0)
(-1.35124e-08 -1.52976e-09 0)
(-1.23559e-08 -1.80783e-09 0)
(-1.0282e-08 -1.87439e-09 0)
(-8.20311e-09 -7.39793e-10 0)
(-6.21752e-09 1.51352e-09 0)
(-3.30327e-09 4.01125e-09 0)
(1.34106e-09 5.98606e-09 0)
(6.92746e-09 7.3306e-09 0)
(1.15691e-08 8.4005e-09 0)
(1.40303e-08 9.426e-09 0)
(1.45381e-08 1.02573e-08 0)
(1.38918e-08 1.0596e-08 0)
(1.23194e-08 1.03383e-08 0)
(9.46085e-09 9.58452e-09 0)
(5.19898e-09 8.42891e-09 0)
(1.20681e-10 6.84556e-09 0)
(-4.83972e-09 4.80649e-09 0)
(-8.98914e-09 2.42319e-09 0)
(-1.20392e-08 -4.96986e-11 0)
(-1.38766e-08 -2.32413e-09 0)
(-1.43583e-08 -4.15614e-09 0)
(-1.33543e-08 -5.34943e-09 0)
(-1.09015e-08 -5.73797e-09 0)
(-7.26652e-09 -5.21042e-09 0)
(-2.87434e-09 -3.76109e-09 0)
(1.80066e-09 -1.51695e-09 0)
(6.29322e-09 1.29069e-09 0)
(1.01526e-08 4.38986e-09 0)
(1.29478e-08 7.52514e-09 0)
(1.4312e-08 1.04789e-08 0)
(1.40184e-08 1.30599e-08 0)
(1.20457e-08 1.50858e-08 0)
(8.59714e-09 1.63825e-08 0)
(4.06453e-09 1.68096e-08 0)
(-1.04232e-09 1.62958e-08 0)
(-6.17007e-09 1.48623e-08 0)
(-1.07806e-08 1.26211e-08 0)
(-1.43919e-08 9.74896e-09 0)
(-1.66125e-08 6.45442e-09 0)
(-1.71825e-08 2.95526e-09 0)
(-1.60178e-08 -5.2948e-10 0)
(-1.3242e-08 -3.78086e-09 0)
(-9.18104e-09 -6.58956e-09 0)
(-4.31571e-09 -8.77874e-09 0)
(7.93216e-10 -1.02315e-08 0)
(5.57872e-09 -1.0907e-08 0)
(9.5209e-09 -1.08359e-08 0)
(1.21821e-08 -1.01018e-08 0)
(1.32402e-08 -8.82295e-09 0)
(1.2529e-08 -7.14529e-09 0)
(1.00783e-08 -5.24419e-09 0)
(6.12895e-09 -3.32131e-09 0)
(1.10678e-09 -1.58665e-09 0)
(-4.44066e-09 -2.27969e-10 0)
(-9.92326e-09 6.18999e-10 0)
(-1.47795e-08 8.86328e-10 0)
(-1.85291e-08 5.72376e-10 0)
(-2.08121e-08 -2.69029e-10 0)
(-2.14219e-08 -1.53816e-09 0)
(-2.03333e-08 -3.0939e-09 0)
(-1.77137e-08 -4.75856e-09 0)
(-1.39048e-08 -6.33113e-09 0)
(-9.37178e-09 -7.61153e-09 0)
(-4.63208e-09 -8.42873e-09 0)
(-1.81094e-10 -8.66068e-09 0)
(3.5656e-09 -8.23762e-09 0)
(6.30793e-09 -7.13019e-09 0)
(7.87853e-09 -5.33388e-09 0)
(8.25085e-09 -2.86326e-09 0)
(7.54271e-09 2.37563e-10 0)
(6.01211e-09 3.87379e-09 0)
(4.03272e-09 7.88421e-09 0)
(2.04212e-09 1.2044e-08 0)
(4.64464e-10 1.60911e-08 0)
(-3.67262e-10 1.97612e-08 0)
(-2.68759e-10 2.28193e-08 0)
(7.79383e-10 2.50699e-08 0)
(2.63693e-09 2.63634e-08 0)
(5.03021e-09 2.65963e-08 0)
(7.58018e-09 2.57358e-08 0)
(9.87003e-09 2.38432e-08 0)
(1.15052e-08 2.11089e-08 0)
(1.21608e-08 1.78265e-08 0)
(1.15718e-08 1.4313e-08 0)
(9.65345e-09 1.0734e-08 0)
(6.75586e-09 7.04098e-09 0)
(3.83717e-09 3.11638e-09 0)
(1.91088e-09 -8.22498e-10 0)
(1.0093e-09 -4.07268e-09 0)
(-1.30872e-10 -5.80303e-09 0)
(-2.53714e-09 -5.80779e-09 0)
(-5.21069e-09 -4.7607e-09 0)
(-5.61009e-09 -3.73545e-09 0)