/*--------------------------------*- C++ -*----------------------------------*\
| =========                 |                                                 |
| \\      /  F ield         | OpenFOAM: The Open Source CFD Toolbox           |
|  \\    /   O peration     | Version:  2406                                  |
|   \\  /    A nd           | Website:  www.openfoam.com                      |
|    \\/     M anipulation  |                                                 |
\*---------------------------------------------------------------------------*/
FoamFile
{
    version     2.0;
    format      ascii;
    arch        "LSB;label=32;scalar=64";
    class       surfaceScalarField;
    location    "5";
    object      alphaPhi0.grout;
}
// * * * * * * * * * * * * * * * * * * * * * * * * * * * * * * * * * * * * * //

dimensions      [0 3 -1 0 0 0 0];

oriented        oriented;

internalField   nonuniform List<scalar> 
19800
(
2.1208e-13
-6.44682e-13
-2.49455e-12
2.92044e-13
-5.55077e-13
6.0717e-13
-7.73216e-13
-4.81474e-13
-1.0134e-12
-1.14073e-12
-7.35714e-13
-1.32423e-12
-4.89677e-13
-1.42888e-12
-5.424e-13
-1.48232e-12
-8.10074e-13
-1.35738e-12
-1.09187e-12
-1.03287e-12
-1.22174e-12
-6.09596e-13
-1.12944e-12
-2.20901e-13
-8.50427e-13
4.01834e-14
-4.71023e-13
1.52534e-13
-4.71785e-14
1.54396e-13
4.23354e-13
9.58869e-14
9.54776e-13
-6.17562e-15
1.51343e-12
-1.73808e-13
2.00992e-12
-4.34819e-13
2.34627e-12
-7.87408e-13
2.46945e-12
-1.19364e-12
2.38847e-12
-1.60039e-12
2.15294e-12
-1.96364e-12
1.81993e-12
-2.25765e-12
1.43411e-12
-2.47039e-12
1.02703e-12
-2.59725e-12
6.25413e-13
-2.6411e-12
2.5477e-13
-2.61592e-12
-6.73826e-14
-2.54733e-12
-3.42561e-13
-2.46567e-12
-5.94036e-13
-2.39452e-12
-8.54516e-13
-2.3413e-12
-1.14559e-12
-2.29583e-12
-1.46394e-12
-2.23775e-12
-1.78395e-12
-2.14752e-12
-2.07229e-12
-2.01433e-12
-2.30152e-12
-1.83694e-12
-2.4532e-12
-1.6192e-12
-2.51211e-12
-1.36481e-12
-2.46007e-12
-1.07543e-12
-2.27638e-12
-7.52744e-13
-1.94473e-12
-4.0229e-13
-1.46145e-12
-3.64746e-14
-8.39859e-13
3.24849e-13
-1.09227e-13
6.56269e-13
6.90192e-13
9.30238e-13
1.51322e-12
1.12082e-12
2.31481e-12
1.20675e-12
3.05332e-12
1.17344e-12
3.69197e-12
1.01391e-12
4.19952e-12
7.2932e-13
4.55074e-12
3.29206e-13
4.7271e-12
-1.68696e-13
4.71742e-12
-7.39504e-13
4.5178e-12
-1.35333e-12
4.13079e-12
-1.97806e-12
3.5646e-12
-2.5819e-12
2.83345e-12
-3.13511e-12
1.95947e-12
-3.61101e-12
9.75412e-13
-3.98703e-12
-7.36825e-14
-4.24627e-12
-1.13135e-12
-4.37928e-12
-2.13349e-12
-4.38544e-12
-3.01404e-12
-4.27288e-12
-3.71145e-12
-4.05703e-12
-4.17481e-12
-3.7585e-12
-4.36975e-12
-3.40118e-12
-4.28381e-12
-3.01099e-12
-3.93078e-12
-2.61479e-12
-3.3523e-12
-2.2389e-12
-2.61544e-12
-1.90685e-12
-1.80564e-12
-1.6369e-12
-1.01601e-12
-1.44009e-12
-3.35046e-13
-1.31973e-12
1.64959e-13
-1.27195e-12
4.37419e-13
-1.28685e-12
4.68065e-13
-1.34945e-12
2.78277e-13
-1.44001e-12
-7.57151e-14
-1.53467e-12
-5.09153e-13
-1.60682e-12
-9.21664e-13
-1.62985e-12
-1.21627e-12
-1.58104e-12
-1.32099e-12
-1.44567e-12
-1.20713e-12
-1.22081e-12
-8.9676e-13
-9.18496e-13
-4.54841e-13
-5.67334e-13
3.39913e-14
-2.111e-13
4.95871e-13
9.8465e-14
8.92478e-13
3.1501e-13
1.22727e-12
4.13306e-13
1.53057e-12
3.9791e-13
1.83488e-12
2.9664e-13
2.16051e-12
1.40242e-13
2.51778e-12
-5.39081e-14
2.89795e-12
-2.7094e-13
3.20958e-12
-4.68598e-13
3.18484e-12
-6.16016e-13
2.37044e-12
-8.03616e-13
9.45613e-13
-1.15755e-12
-1.70596e-12
1.49027e-12
-1.51546e-12
-3.33563e-12
-3.00512e-12
-2.41752e-12
-2.02272e-12
-1.85908e-12
-1.89258e-12
-1.77942e-12
-1.79523e-12
-1.3326e-12
-1.43788e-12
-8.32028e-13
-9.79528e-13
-6.06947e-13
-5.0831e-13
-7.11328e-13
-5.11112e-14
-9.8763e-13
3.39715e-13
-1.21426e-12
5.98573e-13
-1.22857e-12
6.81863e-13
-9.90731e-13
5.76468e-13
-5.59859e-13
2.94258e-13
-1.51474e-14
-1.35209e-13
5.97629e-13
-6.73121e-13
1.25399e-12
-1.27949e-12
1.90655e-12
-1.91569e-12
2.46762e-12
-2.5405e-12
2.8391e-12
-3.10593e-12
2.96161e-12
-3.56144e-12
2.84098e-12
-3.86796e-12
2.53575e-12
-4.01277e-12
2.12114e-12
-4.01348e-12
1.65796e-12
-3.90911e-12
1.18352e-12
-3.74696e-12
7.20546e-13
-3.57516e-12
2.87194e-13
-3.44068e-12
-1.04238e-13
-3.38425e-12
-4.57197e-13
-3.42743e-12
-7.9531e-13
-3.5592e-12
-1.1517e-12
-3.73428e-12
-1.54835e-12
-3.88771e-12
-1.9809e-12
-3.95726e-12
-2.41971e-12
-3.8994e-12
-2.82347e-12
-3.69194e-12
-3.15278e-12
-3.32781e-12
-3.37406e-12
-2.81001e-12
-3.45561e-12
-2.15328e-12
-3.36445e-12
-1.39037e-12
-3.07035e-12
-5.75851e-13
-2.55567e-12
2.17186e-13
-1.8247e-12
9.06985e-13
-9.06677e-13
1.41504e-12
1.48418e-13
1.67559e-12
1.2781e-12
1.64105e-12
2.41597e-12
1.28422e-12
3.49824e-12
5.99351e-13
4.4679e-12
-3.96974e-13
5.27701e-12
-1.66571e-12
5.88801e-12
-3.14719e-12
6.27412e-12
-4.76582e-12
6.41904e-12
-6.43728e-12
6.31593e-12
-8.07647e-12
5.96585e-12
-9.60441e-12
5.37633e-12
-1.09529e-11
4.56089e-12
-1.20671e-11
3.53999e-12
-1.29068e-11
2.3436e-12
-1.34476e-11
1.01425e-12
-1.36808e-11
-3.90891e-13
-1.36129e-11
-1.80035e-12
-1.32638e-11
-3.13172e-12
-1.26632e-11
-4.29792e-12
-1.18476e-11
-5.21549e-12
-1.08579e-11
-5.81396e-12
-9.7385e-12
-6.04531e-12
-8.53625e-12
-5.89232e-12
-7.29984e-12
-5.37442e-12
-6.078e-12
-4.54939e-12
-4.91747e-12
-3.50971e-12
-3.8607e-12
-2.37337e-12
-2.94395e-12
-1.26997e-12
-2.19521e-12
-3.24164e-13
-1.63174e-12
3.61308e-13
-1.2571e-12
7.20703e-13
-1.05875e-12
7.36481e-13
-1.00764e-12
4.44792e-13
-1.06096e-12
-6.66667e-14
-1.16821e-12
-6.69893e-13
-1.2791e-12
-1.2176e-12
-1.35126e-12
-1.57216e-12
-1.35625e-12
-1.63765e-12
-1.28395e-12
-1.38608e-12
-1.14638e-12
-8.67457e-13
-9.80664e-13
-1.94813e-13
-8.48776e-13
4.95795e-13
-8.28728e-13
1.09793e-12
-9.94793e-13
1.57498e-12
-1.39138e-12
1.96404e-12
-2.01487e-12
2.33754e-12
-2.81768e-12
2.74972e-12
-3.73416e-12
3.21203e-12
-4.70259e-12
3.71577e-12
-5.65081e-12
4.23895e-12
-6.44542e-12
4.63469e-12
-6.88109e-12
4.48675e-12
-6.84711e-12
3.01851e-12
-6.48434e-12
-1.10218e-13
-5.80031e-12
-3.93055e-12
9.73777e-13
-6.24792e-13
-2.41108e-12
-2.61682e-12
-2.55373e-12
-2.45149e-12
-1.85902e-12
-2.71979e-12
-1.62215e-12
-2.99841e-12
-1.14693e-12
-3.12294e-12
-5.95418e-13
-3.07886e-12
-3.09902e-13
-2.76655e-12
-4.19118e-13
-2.16126e-12
-7.80789e-13
-1.38818e-12
-1.13614e-12
-6.36247e-13
-1.28324e-12
-5.74475e-14
-1.16397e-12
2.76055e-13
-8.35995e-13
3.60591e-13
-3.82719e-13
2.20516e-13
1.49738e-13
-1.29639e-13
7.44745e-13
-6.92403e-13
1.36894e-12
-1.46254e-12
1.94691e-12
-2.39673e-12
2.38239e-12
-3.40671e-12
2.60332e-12
-4.38215e-12
2.59313e-12
-5.22627e-12
2.38854e-12
-5.88204e-12
2.05172e-12
-6.33761e-12
1.63919e-12
-6.61462e-12
1.18676e-12
-6.75137e-12
7.15223e-13
-6.79137e-12
2.44823e-13
-6.77897e-12
-1.98689e-13
-6.75581e-12
-5.93612e-13
-6.75199e-12
-9.37274e-13
-6.77336e-12
-1.24941e-12
-6.7942e-12
-1.55768e-12
-6.76305e-12
-1.8763e-12
-6.6202e-12
-2.19461e-12
-6.3168e-12
-2.48266e-12
-5.82563e-12
-2.70597e-12
-5.14121e-12
-2.83645e-12
-4.27469e-12
-2.85368e-12
-3.25032e-12
-2.74061e-12
-2.10635e-12
-2.48151e-12
-8.97743e-13
-2.0658e-12
3.03316e-13
-1.49488e-12
1.41163e-12
-7.87129e-13
2.33735e-12
2.24651e-14
2.99602e-12
8.87569e-13
3.31781e-12
1.75796e-12
3.2541e-12
2.58631e-12
2.78087e-12
3.33249e-12
1.89964e-12
3.96482e-12
6.36621e-13
4.4591e-12
-9.58993e-13
4.79673e-12
-2.81771e-12
4.96324e-12
-4.85383e-12
4.9479e-12
-6.97123e-12
4.74391e-12
-9.07007e-12
4.34879e-12
-1.10532e-11
3.76479e-12
-1.28313e-11
3.00014e-12
-1.43257e-11
2.0717e-12
-1.54714e-11
1.00889e-12
-1.62198e-11
-1.42882e-13
-1.65416e-11
-1.32128e-12
-1.643e-11
-2.45013e-12
-1.59022e-11
-3.44644e-12
-1.49985e-11
-4.22982e-12
-1.37795e-11
-4.73257e-12
-1.23233e-11
-4.90895e-12
-1.0721e-11
-4.7429e-12
-9.07209e-12
-4.25331e-12
-7.47831e-12
-3.49569e-12
-6.035e-12
-2.55882e-12
-4.82188e-12
-1.55546e-12
-3.89459e-12
-6.07877e-13
-3.27903e-12
1.69627e-13
-2.96948e-12
6.87776e-13
-2.93025e-12
8.96026e-13
-3.09973e-12
7.90975e-13
-3.39634e-12
4.18647e-13
-3.72646e-12
-1.29684e-13
-3.99489e-12
-7.29043e-13
-4.1176e-12
-1.24066e-12
-4.03512e-12
-1.54019e-12
-3.72346e-12
-1.54979e-12
-3.19977e-12
-1.26469e-12
-2.52151e-12
-7.60087e-13
-1.77957e-12
-1.67874e-13
-1.08588e-12
3.75615e-13
-5.55176e-13
7.89805e-13
-2.80803e-13
1.08439e-12
-3.10198e-13
1.34142e-12
-6.32335e-13
1.65405e-12
-1.19144e-12
2.07004e-12
-1.92557e-12
2.59404e-12
-2.80165e-12
3.2352e-12
-3.80402e-12
3.98931e-12
-4.87355e-12
4.6753e-12
-5.89063e-12
4.85198e-12
-6.85817e-12
3.70394e-12
-7.93253e-12
-1.3225e-13
-8.3215e-12
-5.55551e-12
-4.04915e-13
-8.95961e-13
-2.25099e-12
-2.05886e-12
-2.92984e-12
-1.81599e-12
-2.33653e-12
-2.24818e-12
-2.18106e-12
-2.76933e-12
-1.67509e-12
-3.17398e-12
-8.60938e-13
-3.46494e-12
-2.0538e-13
-3.5335e-12
-1.70565e-14
-3.27989e-12
-2.34478e-13
-2.73376e-12
-5.79397e-13
-2.02915e-12
-7.93644e-13
-1.33085e-12
-7.77308e-13
-7.74973e-13
-5.80977e-13
-4.3717e-13
-3.04471e-13
-3.36819e-13
-3.50688e-15
-4.6885e-13
3.26858e-13
-8.3143e-13
7.03368e-13
-1.42399e-12
1.10374e-12
-2.2229e-12
1.46116e-12
-3.16384e-12
1.70017e-12
-4.15095e-12
1.77733e-12
-5.08702e-12
1.69654e-12
-5.90316e-12
1.49481e-12
-6.57061e-12
1.21478e-12
-7.09223e-12
8.84983e-13
-7.48474e-12
5.1981e-13
-7.76498e-12
1.34045e-13
-7.94635e-12
-2.45216e-13
-8.04183e-12
-5.8352e-13
-8.06447e-12
-8.5774e-13
-8.02143e-12
-1.0707e-12
-7.90529e-12
-1.24693e-12
-7.69119e-12
-1.41248e-12
-7.34429e-12
-1.57549e-12
-6.83367e-12
-1.72189e-12
-6.14485e-12
-1.82569e-12
-5.28504e-12
-1.86269e-12
-4.28151e-12
-1.81723e-12
-3.17723e-12
-1.68089e-12
-2.02723e-12
-1.44909e-12
-8.96305e-13
-1.12048e-12
1.43254e-13
-6.99966e-13
1.01549e-12
-2.01979e-13
1.64637e-12
3.48834e-13
1.97037e-12
9.20399e-13
1.93694e-12
1.47819e-12
1.51546e-12
1.99059e-12
6.97868e-13
2.43282e-12
-5.01401e-13
2.78852e-12
-2.04742e-12
3.04851e-12
-3.88762e-12
3.20778e-12
-5.95443e-12
3.26247e-12
-8.16786e-12
3.20832e-12
-1.04386e-11
3.04094e-12
-1.26725e-11
2.75714e-12
-1.47752e-11
2.35615e-12
-1.66572e-11
1.84067e-12
-1.82375e-11
1.2184e-12
-1.94454e-11
5.04846e-13
-2.02235e-11
-2.73209e-13
-2.05304e-11
-1.07535e-12
-2.03456e-11
-1.84849e-12
-1.96737e-11
-2.532e-12
-1.85471e-11
-3.0659e-12
-1.70265e-11
-3.39993e-12
-1.5198e-11
-3.50131e-12
-1.31688e-11
-3.36006e-12
-1.10612e-11
-2.992e-12
-9.00431e-12
-2.43924e-12
-7.12364e-12
-1.76784e-12
-5.52838e-12
-1.06142e-12
-4.29868e-12
-4.10441e-13
-3.47534e-12
1.01721e-13
-3.0548e-12
4.13336e-13
-2.99057e-12
4.959e-13
-3.20057e-12
3.60097e-13
-3.57856e-12
5.51953e-14
-4.0078e-12
-3.37661e-13
-4.37571e-12
-7.17381e-13
-4.58887e-12
-9.80163e-13
-4.58725e-12
-1.0421e-12
-4.35526e-12
-8.64902e-13
-3.92651e-12
-4.76287e-13
-3.37965e-12
2.82169e-14
-2.8246e-12
5.14449e-13
-2.38118e-12
8.66956e-13
-2.15366e-12
1.04921e-12
-2.20686e-12
1.12506e-12
-2.55056e-12
1.21514e-12
-3.14001e-12
1.40982e-12
-3.89578e-12
1.71309e-12
-4.73531e-12
2.07931e-12
-5.59327e-12
2.49937e-12
-6.40746e-12
2.97323e-12
-7.08177e-12
3.33954e-12
-7.53208e-12
3.38178e-12
-7.95981e-12
2.97339e-12
-8.88787e-12
-2.18487e-13
-9.53486e-12
-6.35872e-12
-1.148e-12
-1.11261e-12
-2.0926e-12
-1.84927e-12
-3.30108e-12
-1.50812e-12
-2.90257e-12
-2.11868e-12
-2.94759e-12
-2.91161e-12
-2.53518e-12
-3.52113e-12
-1.53928e-12
-3.96112e-12
-4.90271e-13
-4.18958e-12
1.31125e-13
-4.11012e-12
2.546e-13
-3.68916e-12
1.03301e-13
-2.98991e-12
-6.10221e-14
-2.15454e-12
-1.03241e-13
-1.35791e-12
-3.72066e-14
-7.47007e-13
5.37731e-14
-4.01427e-13
1.14819e-13
-3.39846e-13
1.60092e-13
-5.54066e-13
2.40458e-13
-1.03215e-12
3.83987e-13
-1.75335e-12
5.65703e-13
-2.67027e-12
7.2445e-13
-3.70327e-12
8.03454e-13
-4.75651e-12
7.80541e-13
-5.74452e-12
6.70746e-13
-6.61135e-12
5.06553e-13
-7.33207e-12
3.14513e-13
-7.89998e-12
1.06109e-13
-8.31206e-12
-1.12955e-13
-8.5633e-12
-3.2771e-13
-8.65125e-12
-5.10888e-13
-8.58244e-12
-6.37096e-13
-8.3721e-12
-7.01183e-13
-8.03596e-12
-7.22897e-13
-7.58159e-12
-7.32995e-13
-7.00685e-12
-7.52933e-13
-6.30698e-12
-7.84149e-13
-5.48464e-12
-8.12252e-13
-4.55646e-12
-8.18653e-13
-3.55374e-12
-7.89134e-13
-2.51955e-12
-7.15305e-13
-1.50527e-12
-5.92325e-13
-5.67846e-13
-4.17807e-13
2.32898e-13
-1.93443e-13
8.37608e-13
7.26207e-14
1.19152e-12
3.6511e-13
1.24867e-12
6.634e-13
9.75639e-13
9.44939e-13
3.54501e-13
1.18914e-12
-6.15398e-13
1.38076e-12
-1.91727e-12
1.51192e-12
-3.51825e-12
1.58193e-12
-5.37154e-12
1.5949e-12
-7.41846e-12
1.55619e-12
-9.58976e-12
1.46959e-12
-1.1807e-11
1.33644e-12
-1.3985e-11
1.15669e-12
-1.60354e-11
9.30482e-13
-1.78716e-11
6.59343e-13
-1.94129e-11
3.4674e-13
-2.05885e-11
-9.46543e-16
-2.13394e-11
-3.72534e-13
-2.16224e-11
-7.4988e-13
-2.14137e-11
-1.10721e-12
-2.07143e-11
-1.41342e-12
-1.95536e-11
-1.63736e-12
-1.79907e-11
-1.75431e-12
-1.61123e-11
-1.75131e-12
-1.40276e-11
-1.62988e-12
-1.18605e-11
-1.406e-12
-9.7412e-12
-1.10832e-12
-7.79526e-12
-7.75581e-13
-6.13178e-12
-4.52918e-13
-4.83057e-12
-1.8658e-13
-3.93131e-12
-1.65192e-14
-3.4274e-12
3.21427e-14
-3.26715e-12
-4.34997e-14
-3.36255e-12
-2.20556e-13
-3.60398e-12
-4.52239e-13
-3.87761e-12
-6.75057e-13
-4.08243e-12
-8.20019e-13
-4.14475e-12
-8.26571e-13
-4.02927e-12
-6.58795e-13
-3.74534e-12
-3.22031e-13
-3.34709e-12
1.25977e-13
-2.92514e-12
5.80776e-13
-2.58901e-12
9.2352e-13
-2.44199e-12
1.07638e-12
-2.5544e-12
1.05373e-12
-2.94441e-12
9.68153e-13
-3.57613e-12
9.67724e-13
-4.37757e-12
1.13652e-12
-5.27041e-12
1.44196e-12
-6.19261e-12
1.79113e-12
-7.09543e-12
2.12362e-12
-7.90821e-12
2.35878e-12
-8.49668e-12
2.24707e-12
-8.71635e-12
1.74198e-12
-8.73221e-12
1.70798e-12
-9.18142e-12
-4.0374e-13
-9.60658e-12
-6.30207e-12
-1.36934e-12
-7.53938e-13
-1.67665e-12
-1.25422e-12
-3.53168e-12
-9.29827e-13
-3.36744e-12
-1.63234e-12
-3.56609e-12
-2.62798e-12
-3.2362e-12
-3.37882e-12
-2.11615e-12
-3.87396e-12
-7.39202e-13
-4.14576e-12
3.05688e-13
-4.14583e-12
8.23239e-13
-3.81809e-12
9.36908e-13
-3.16735e-12
8.57632e-13
-2.2913e-12
7.32024e-13
-1.36288e-12
6.01026e-13
-5.65148e-13
4.37256e-13
-2.4312e-14
2.15315e-13
2.11423e-13
-4.03024e-14
1.4509e-13
-2.63242e-13
-2.05814e-13
-3.92839e-13
-8.22495e-13
-4.15119e-13
-1.67277e-12
-3.66122e-13
-2.6957e-12
-3.02536e-13
-3.80243e-12
-2.66148e-13
-4.89512e-12
-2.65935e-13
-5.89054e-12
-2.8492e-13
-6.73341e-12
-3.01683e-13
-7.39384e-12
-3.07497e-13
-7.85552e-12
-3.06013e-13
-8.10672e-12
-2.99355e-13
-8.14092e-12
-2.77649e-13
-7.96347e-12
-2.24501e-13
-7.59508e-12
-1.33438e-13
-7.06714e-12
-1.85269e-14
-6.41223e-12
9.15669e-14
-5.65757e-12
1.70499e-13
-4.8256e-12
2.07502e-13
-3.93903e-12
2.08078e-13
-3.02511e-12
1.85462e-13
-2.1163e-12
1.52239e-13
-1.24855e-12
1.17682e-13
-4.59537e-13
8.91963e-14
2.12046e-13
7.33326e-14
7.2735e-13
7.42697e-14
1.04927e-12
9.1312e-14
1.14523e-12
1.17914e-13
9.89847e-13
1.43108e-13
5.66836e-13
1.54428e-13
-1.29742e-13
1.41074e-13
-1.09454e-12
9.66523e-14
-2.31051e-12
2.11665e-14
-3.74931e-12
-7.8409e-14
-5.37275e-12
-1.89624e-13
-7.13435e-12
-2.97959e-13
-8.98038e-12
-3.90741e-13
-1.08502e-11
-4.59722e-13
-1.26768e-11
-5.01395e-13
-1.43889e-11
-5.15646e-13
-1.59143e-11
-5.0428e-13
-1.71851e-11
-4.70384e-13
-1.8141e-11
-4.18307e-13
-1.87331e-11
-3.53213e-13
-1.89265e-11
-2.79685e-13
-1.87031e-11
-2.00076e-13
-1.80653e-11
-1.14028e-13
-1.70395e-11
-2.00698e-14
-1.56776e-11
8.12971e-14
-1.40549e-11
1.84835e-13
-1.22649e-11
2.79914e-13
-1.04121e-11
3.52481e-13
-8.60278e-12
3.88572e-13
-6.93687e-12
3.77575e-13
-5.49876e-12
3.13993e-13
-4.34843e-12
1.97771e-13
-3.51324e-12
3.43302e-14
-2.98277e-12
-1.64677e-13
-2.70933e-12
-3.7989e-13
-2.61584e-12
-5.83407e-13
-2.61031e-12
-7.40262e-13
-2.60406e-12
-8.13222e-13
-2.5289e-12
-7.70418e-13
-2.34978e-12
-5.94761e-13
-2.07052e-12
-2.9381e-13
-1.73284e-12
9.18283e-14
-1.40914e-12
4.86634e-13
-1.18965e-12
7.92887e-13
-1.16378e-12
9.24117e-13
-1.39694e-12
8.52073e-13
-1.90763e-12
6.41139e-13
-2.65549e-12
4.35174e-13
-3.55065e-12
3.84596e-13
-4.48648e-12
5.52145e-13
-5.37968e-12
8.78041e-13
-6.19264e-12
1.24963e-12
-6.92173e-12
1.5826e-12
-7.55511e-12
1.72615e-12
-8.01659e-12
1.32121e-12
-8.1677e-12
3.68991e-13
-8.05812e-12
5.32363e-13
-8.20199e-12
-4.67822e-13
-8.43115e-12
-5.45693e-12
-1.49111e-12
-4.65108e-13
-1.16259e-12
-7.42161e-13
-3.64876e-12
-4.37969e-13
-3.76899e-12
-1.01977e-12
-4.04693e-12
-1.97536e-12
-3.72647e-12
-2.68109e-12
-2.49257e-12
-3.09303e-12
-8.59006e-13
-3.30518e-12
5.41881e-13
-3.32873e-12
1.42944e-12
-3.11214e-12
1.82258e-12
-2.61846e-12
1.84982e-12
-1.88737e-12
1.63986e-12
-1.04666e-12
1.2826e-12
-2.64826e-13
8.24206e-13
3.19001e-13
2.91587e-13
6.35338e-13
-2.71713e-13
6.75311e-13
-7.93238e-13
4.55633e-13
-1.19556e-12
-6.07714e-15
-1.43316e-12
-6.89966e-13
-1.51064e-12
-1.55751e-12
-1.47097e-12
-2.54091e-12
-1.36563e-12
-3.54999e-12
-1.22777e-12
-4.4928e-12
-1.06435e-12
-5.29599e-12
-8.6864e-13
-5.91336e-12
-6.39475e-13
-6.321e-12
-3.89459e-13
-6.50783e-12
-1.36404e-13
-6.47116e-12
1.10318e-13
-6.21939e-12
3.52418e-13
-5.77572e-12
5.91386e-13
-5.1764e-12
8.15864e-13
-4.46348e-12
1.0014e-12
-3.67763e-12
1.12287e-12
-2.85566e-12
1.16785e-12
-2.03222e-12
1.13994e-12
-1.24143e-12
1.05213e-12
-5.15894e-13
9.183e-13
1.15626e-13
7.49653e-13
6.29236e-13
5.56027e-13
1.00473e-12
3.47576e-13
1.22378e-12
1.33721e-13
1.2696e-12
-7.966e-14
1.1285e-12
-2.919e-13
7.92059e-13
-5.06479e-13
2.58663e-13
-7.28072e-13
-4.66006e-13
-9.59437e-13
-1.3688e-12
-1.19914e-12
-2.42901e-12
-1.44007e-12
-3.6186e-12
-1.66886e-12
-4.90349e-12
-1.8666e-12
-6.24547e-12
-2.01168e-12
-7.60407e-12
-2.08395e-12
-8.93729e-12
-2.06889e-12
-1.02017e-11
-1.95975e-12
-1.13524e-11
-1.75742e-12
-1.23448e-11
-1.46893e-12
-1.31375e-11
-1.1061e-12
-1.36953e-11
-6.85227e-13
-1.39921e-11
-2.27074e-13
-1.40122e-11
2.43845e-13
-1.3751e-11
7.01264e-13
-1.32164e-11
1.11968e-12
-1.24303e-11
1.47613e-12
-1.14299e-11
1.75068e-12
-1.02663e-11
1.92606e-12
-9.00162e-12
1.98826e-12
-7.70235e-12
1.92876e-12
-6.43321e-12
1.74831e-12
-5.2513e-12
1.46032e-12
-4.20183e-12
1.09168e-12
-3.31453e-12
6.79983e-13
-2.60044e-12
2.67746e-13
-2.0492e-12
-1.04221e-13
-1.62887e-12
-4.01952e-13
-1.29041e-12
-6.00882e-13
-9.78022e-13
-6.86352e-13
-6.43976e-13
-6.53559e-13
-2.63857e-13
-5.08548e-13
1.53035e-13
-2.70898e-13
5.61925e-13
2.228e-14
8.90465e-13
3.13578e-13
1.05372e-12
5.29016e-13
9.72717e-13
5.95192e-13
5.93182e-13
4.71612e-13
-9.68861e-14
1.86674e-13
-1.0542e-12
-1.49267e-13
-2.17819e-12
-3.78732e-13
-3.32898e-12
-3.76974e-13
-4.36534e-12
-1.30111e-13
-5.18699e-12
2.56669e-13
-5.75787e-12
6.45131e-13
-6.10304e-12
9.40809e-13
-6.28799e-12
9.8393e-13
-6.3714e-12
4.04504e-13
-6.33307e-12
-7.70389e-13
-6.15692e-12
-4.36086e-13
-6.12805e-12
-4.01653e-13
-6.26753e-12
-4.01962e-12
-1.59253e-12
-5.82554e-13
-6.81446e-13
-7.35917e-13
-3.59983e-12
-4.44146e-13
-4.04923e-12
-7.18949e-13
-4.37275e-12
-1.34898e-12
-4.01915e-12
-1.7525e-12
-2.69862e-12
-1.89165e-12
-9.03614e-13
-1.91604e-12
7.41605e-13
-1.88964e-12
1.91886e-12
-1.77339e-12
2.56495e-12
-1.50203e-12
2.71981e-12
-1.05676e-12
2.46918e-12
-4.95825e-13
1.92717e-12
6.70409e-14
1.20504e-12
5.16067e-13
3.89431e-13
7.7911e-13
-4.47793e-13
8.37625e-13
-1.22952e-12
7.05251e-13
-1.87343e-12
4.0108e-13
-2.31408e-12
-6.02632e-14
-2.52585e-12
-6.59519e-13
-2.52789e-12
-1.3582e-12
-2.36778e-12
-2.09387e-12
-2.09533e-12
-2.79078e-12
-1.74368e-12
-3.37896e-12
-1.32902e-12
-3.8093e-12
-8.64841e-13
-4.05698e-12
-3.74266e-13
-4.11548e-12
1.12118e-13
-3.98993e-12
5.68794e-13
-3.6953e-12
9.82859e-13
-3.25751e-12
1.34799e-12
-2.71198e-12
1.65229e-12
-2.09794e-12
1.87423e-12
-1.45225e-12
1.99142e-12
-8.07292e-13
1.99366e-12
-1.92757e-13
1.88806e-12
3.62518e-13
1.69322e-12
8.3187e-13
1.42935e-12
1.1943e-12
1.11263e-12
1.43661e-12
7.56014e-13
1.55205e-12
3.72153e-13
1.53686e-12
-2.5979e-14
1.38772e-12
-4.27413e-13
1.10204e-12
-8.255e-13
6.80152e-13
-1.21765e-12
1.27601e-13
-1.60259e-12
-5.43805e-13
-1.97714e-12
-1.316e-12
-2.33413e-12
-2.16498e-12
-2.66172e-12
-3.0614e-12
-2.94332e-12
-3.97197e-12
-3.15816e-12
-4.86207e-12
-3.28306e-12
-5.699e-12
-3.29589e-12
-6.45446e-12
-3.17998e-12
-7.10545e-12
-2.92771e-12
-7.63389e-12
-2.5419e-12
-8.02614e-12
-2.03475e-12
-8.27332e-12
-1.42598e-12
-8.3723e-12
-7.41419e-13
-8.32641e-12
-1.25231e-14
-8.14494e-12
7.24018e-13
-7.84147e-12
1.42791e-12
-7.43215e-12
2.05841e-12
-6.93484e-12
2.57814e-12
-6.36932e-12
2.95637e-12
-5.75739e-12
3.17082e-12
-5.12182e-12
3.20893e-12
-4.48374e-12
3.06928e-12
-3.85936e-12
2.76414e-12
-3.25782e-12
2.32203e-12
-2.68109e-12
1.78827e-12
-2.12576e-12
1.22154e-12
-1.58522e-12
6.85477e-13
-1.05072e-12
2.37393e-13
-5.11231e-13
-8.27015e-14
4.61946e-14
-2.58878e-13
6.32943e-13
-2.9988e-13
1.25097e-12
-2.341e-13
1.88231e-12
-1.0184e-13
2.4807e-12
5.12308e-14
2.97119e-12
1.7691e-13
3.26088e-12
2.24748e-13
3.25939e-12
1.46092e-13
2.9026e-12
-9.03111e-14
2.17287e-12
-4.70438e-13
1.11022e-12
-9.10423e-13
-1.86952e-13
-1.26266e-12
-1.57349e-12
-1.36997e-12
-2.88252e-12
-1.14987e-12
-3.96034e-12
-6.56995e-13
-4.69726e-12
-6.98805e-14
-5.0418e-12
4.04771e-13
-5.00768e-12
6.247e-13
-4.69462e-12
4.54454e-13
-4.28656e-12
-3.42815e-13
-3.93818e-12
-1.6343e-12
-3.65419e-12
-1.18574e-12
-3.49737e-12
-2.75785e-13
-3.60297e-12
-2.28454e-12
-1.59007e-12
-1.12527e-12
-2.67301e-13
-1.35612e-12
-3.29911e-12
-1.09281e-12
-4.04385e-12
-9.66224e-13
-4.39501e-12
-1.0557e-12
-4.01524e-12
-9.31076e-13
-2.68454e-12
-6.19741e-13
-8.6542e-13
-3.32046e-13
8.67063e-13
-1.74158e-13
2.19991e-12
-1.17527e-13
3.02059e-12
-7.75179e-14
3.29419e-12
1.48006e-14
3.05136e-12
1.7685e-13
2.40138e-12
3.73174e-13
1.49532e-12
5.418e-13
4.71495e-13
6.30485e-13
-5.65037e-13
6.19096e-13
-1.52911e-12
5.16764e-13
-2.34064e-12
3.43163e-13
-2.92854e-12
1.12487e-13
-3.24785e-12
-1.68191e-13
-3.29365e-12
-4.88564e-13
-3.09951e-12
-8.24174e-13
-2.71989e-12
-1.13544e-12
-2.20797e-12
-1.37818e-12
-1.60434e-12
-1.51782e-12
-9.42003e-13
-1.5376e-12
-2.57231e-13
-1.43773e-12
4.08531e-13
-1.23014e-12
1.01844e-12
-9.34817e-13
1.54975e-12
-5.78597e-13
1.99137e-12
-1.92453e-13
2.33236e-12
1.94421e-13
2.55457e-12
5.60588e-13
2.63824e-12
8.93537e-13
2.57495e-12
1.18531e-12
2.37536e-12
1.42709e-12
2.06493e-12
1.60765e-12
1.67252e-12
1.71647e-12
1.22149e-12
1.74756e-12
7.28476e-13
1.70015e-12
2.07294e-13
1.57582e-12
-3.27975e-13
1.37508e-12
-8.63395e-13
1.09647e-12
-1.38746e-12
7.38933e-13
-1.89192e-12
3.0529e-13
-2.36995e-12
-1.95242e-13
-2.81322e-12
-7.46318e-13
-3.21005e-12
-1.32491e-12
-3.54546e-12
-1.90231e-12
-3.80224e-12
-2.44578e-12
-3.96194e-12
-2.92168e-12
-4.00593e-12
-3.29983e-12
-3.91733e-12
-3.55798e-12
-3.68415e-12
-3.68482e-12
-3.30283e-12
-3.68066e-12
-2.78041e-12
-3.55616e-12
-2.13423e-12
-3.3305e-12
-1.38979e-12
-3.02971e-12
-5.7824e-13
-2.68498e-12
2.65141e-13
-2.32999e-12
1.10142e-12
-1.99709e-12
1.8888e-12
-1.71283e-12
2.5848e-12
-1.49443e-12
3.15021e-12
-1.34825e-12
3.5534e-12
-1.27034e-12
3.7738e-12
-1.24784e-12
3.80351e-12
-1.26023e-12
3.64783e-12
-1.27989e-12
3.32564e-12
-1.27329e-12
2.87023e-12
-1.20404e-12
2.32958e-12
-1.03822e-12
1.76399e-12
-7.50973e-13
1.2389e-12
-3.31571e-13
8.12918e-13
2.15052e-13
5.23794e-13
8.70495e-13
3.77387e-13
1.60623e-12
3.4476e-13
2.38457e-12
3.69735e-13
3.15542e-12
3.84641e-13
3.85099e-12
3.27805e-13
4.3844e-12
1.55355e-13
4.65831e-12
-1.55546e-13
4.58515e-12
-6.06804e-13
4.11372e-12
-1.17244e-12
3.25138e-12
-1.78125e-12
2.07231e-12
-2.30381e-12
7.07544e-13
-2.57153e-12
-6.80186e-13
-2.44e-12
-1.92931e-12
-1.87094e-12
-2.90804e-12
-9.82102e-13
-3.52559e-12
-3.0508e-14
-3.7244e-12
6.69849e-13
-3.48409e-12
8.60754e-13
-2.87745e-12
4.04052e-13
-2.13381e-12
-7.06592e-13
-1.5397e-12
-2.11881e-12
-1.1593e-12
-1.68966e-12
-8.88826e-13
-1.36575e-13
-9.52605e-13
-5.52265e-13
-1.43978e-12
-1.90516e-12
8.92496e-14
-2.40277e-12
-2.70632e-12
-2.17591e-12
-3.60719e-12
-1.62883e-12
-3.94592e-12
-1.07585e-12
-3.57628e-12
-3.01026e-13
-2.35424e-12
5.57319e-13
-6.85423e-13
1.2243e-12
9.42525e-13
1.56245e-12
2.25548e-12
1.59566e-12
3.12415e-12
1.42265e-12
3.46451e-12
1.15084e-12
3.25544e-12
8.66466e-13
2.57873e-12
6.195e-13
1.59301e-12
4.21522e-13
4.66937e-13
2.614e-13
-6.65259e-13
1.28587e-13
-1.70654e-12
2.64417e-14
-2.58069e-12
-3.16024e-14
-3.22286e-12
-3.51076e-14
-3.58486e-12
1.41456e-14
-3.64799e-12
1.03936e-13
-3.43075e-12
2.21307e-13
-2.98249e-12
3.61077e-13
-2.36523e-12
5.26147e-13
-1.63717e-12
7.20639e-13
-8.48952e-13
9.42858e-13
-4.9828e-14
1.18347e-12
7.09742e-13
1.42783e-12
1.38598e-12
1.65811e-12
1.95224e-12
1.85404e-12
2.39908e-12
1.99524e-12
2.72248e-12
2.06744e-12
2.91222e-12
2.06957e-12
2.9527e-12
2.0155e-12
2.83509e-12
1.9278e-12
2.56865e-12
1.82742e-12
2.18044e-12
1.72657e-12
1.70445e-12
1.62844e-12
1.16965e-12
1.5316e-12
5.95443e-13
1.43375e-12
-4.94577e-15
1.33192e-12
-6.18963e-13
1.22029e-12
-1.2322e-12
1.08927e-12
-1.82949e-12
9.27823e-13
-2.39661e-12
7.28052e-13
-2.92007e-12
4.89463e-13
-3.38533e-12
2.21009e-13
-3.7755e-12
-5.90955e-14
-4.07211e-12
-3.2485e-13
-4.25753e-12
-5.44692e-13
-4.31717e-12
-6.84864e-13
-4.24058e-12
-7.14337e-13
-4.0219e-12
-6.10705e-13
-3.66069e-12
-3.65346e-13
-3.16365e-12
1.39028e-14
-2.5461e-12
5.03183e-13
-1.83189e-12
1.06538e-12
-1.05115e-12
1.65389e-12
-2.36982e-13
2.21664e-12
5.77233e-13
2.70058e-12
1.35883e-12
3.05722e-12
2.07567e-12
3.24897e-12
2.69641e-12
3.25499e-12
3.19236e-12
3.07479e-12
3.54098e-12
2.72843e-12
3.72949e-12
2.25363e-12
3.75697e-12
1.70139e-12
3.63429e-12
1.13146e-12
3.38261e-12
6.08089e-13
3.03196e-12
1.95169e-13
2.62052e-12
-5.05309e-14
2.1938e-12
-8.77748e-14
1.80116e-12
1.01117e-13
1.48731e-12
5.06037e-13
1.27943e-12
1.09099e-12
1.17368e-12
1.80149e-12
1.12838e-12
2.57334e-12
1.06993e-12
3.33803e-12
9.12728e-13
4.02255e-12
5.86545e-13
4.54708e-12
5.93934e-14
4.82779e-12
-6.53844e-13
4.79083e-12
-1.49632e-12
4.39591e-12
-2.37633e-12
3.65957e-12
-3.1674e-12
2.6639e-12
-3.70961e-12
1.54243e-12
-3.83502e-12
4.46057e-13
-3.42679e-12
-4.96165e-13
-2.48603e-12
-1.20136e-12
-1.16789e-12
-1.62588e-12
2.21504e-13
-1.73245e-12
1.26221e-12
-1.47595e-12
1.53288e-12
-8.68644e-13
8.31321e-13
-9.53655e-14
-6.09152e-13
5.30209e-13
-2.15007e-12
9.14389e-13
-1.90301e-12
1.27596e-12
1.60891e-14
1.29913e-12
9.45228e-13
-1.1625e-12
-2.64222e-12
4.15535e-13
-3.48346e-12
-1.8338e-12
-3.27237e-12
-2.67933e-12
-2.33465e-12
-2.93738e-12
-1.15254e-12
-2.62433e-12
2.61856e-13
-1.65044e-12
1.64762e-12
-3.21736e-13
2.67512e-12
9.98603e-13
3.18913e-12
2.10039e-12
3.21563e-12
2.86423e-12
2.86432e-12
3.18676e-12
2.26816e-12
3.01121e-12
1.56535e-12
2.38103e-12
8.81331e-13
1.43159e-12
3.05127e-13
3.31219e-13
-1.19684e-13
-7.72558e-13
-3.81958e-13
-1.77235e-12
-4.82264e-13
-2.59414e-12
-4.2124e-13
-3.18466e-12
-2.0183e-13
-3.50613e-12
1.61897e-13
-3.54103e-12
6.39663e-13
-3.30059e-12
1.18875e-12
-2.82602e-12
1.76339e-12
-2.17757e-12
2.32254e-12
-1.41875e-12
2.8322e-12
-6.08058e-13
3.26435e-12
1.99e-13
3.59697e-12
9.47876e-13
3.81519e-12
1.59217e-12
3.91105e-12
2.10562e-12
3.88068e-12
2.48534e-12
3.72292e-12
2.74022e-12
3.44317e-12
2.87424e-12
3.06105e-12
2.87991e-12
2.61457e-12
2.74692e-12
2.1549e-12
2.47647e-12
1.73334e-12
2.08734e-12
1.3881e-12
1.6093e-12
1.1383e-12
1.07061e-12
9.86318e-13
4.9011e-13
9.23813e-13
-1.21515e-13
9.36164e-13
-7.55151e-13
1.00377e-12
-1.39769e-12
1.10253e-12
-2.03097e-12
1.20651e-12
-2.63374e-12
1.29312e-12
-3.18349e-12
1.34881e-12
-3.65679e-12
1.37256e-12
-4.02924e-12
1.37628e-12
-4.2771e-12
1.38272e-12
-4.38083e-12
1.42236e-12
-4.32882e-12
1.52947e-12
-4.11942e-12
1.73707e-12
-3.76057e-12
2.07055e-12
-3.26824e-12
2.54126e-12
-2.66507e-12
3.14192e-12
-1.97953e-12
3.84541e-12
-1.24482e-12
4.60725e-12
-4.96253e-13
5.37032e-12
2.32518e-13
6.07067e-12
9.13154e-13
6.64337e-12
1.52435e-12
7.02906e-12
2.05112e-12
7.18105e-12
2.48269e-12
7.07239e-12
2.81107e-12
6.70136e-12
3.03152e-12
6.09319e-12
3.14462e-12
5.29731e-12
3.15819e-12
4.38117e-12
3.08747e-12
3.42256e-12
2.9528e-12
2.50242e-12
2.77645e-12
1.69859e-12
2.58032e-12
1.07951e-12
2.38574e-12
6.96619e-13
2.21384e-12
5.76101e-13
2.08327e-12
7.12563e-13
2.00249e-12
1.06856e-12
1.95769e-12
1.58188e-12
1.90248e-12
2.17851e-12
1.75869e-12
2.78544e-12
1.43453e-12
3.33731e-12
8.57308e-13
3.77544e-12
6.87266e-15
4.04478e-12
-1.06689e-12
4.09718e-12
-2.25028e-12
3.90578e-12
-3.38742e-12
3.48452e-12
-4.30242e-12
2.89886e-12
-4.81912e-12
2.25436e-12
-4.79033e-12
1.66309e-12
-4.14192e-12
1.20352e-12
-2.91115e-12
8.99266e-13
-1.26176e-12
7.3536e-13
4.99784e-13
7.07299e-13
1.89338e-12
8.57487e-13
2.3427e-12
1.22912e-12
1.53472e-12
1.7366e-12
-1.22208e-13
2.14556e-12
-1.72483e-12
2.40037e-12
-1.78939e-12
2.80503e-12
2.04708e-13
2.95736e-12
2.07299e-12
-8.08182e-13
-3.10035e-12
7.46332e-13
-4.22467e-12
-7.2744e-13
-3.98999e-12
-1.29517e-12
-2.73318e-12
-1.39755e-12
-1.03864e-12
-1.18877e-12
8.79434e-13
-5.97334e-13
2.66237e-12
2.17182e-13
3.95183e-12
1.04826e-12
4.59105e-12
1.76601e-12
4.6138e-12
2.27824e-12
4.13829e-12
2.48842e-12
3.30996e-12
2.32673e-12
2.29515e-12
1.80039e-12
1.26921e-12
9.99898e-13
3.83252e-13
6.10655e-14
-2.64482e-13
-8.80938e-13
-6.32248e-13
-1.71928e-12
-7.17667e-13
-2.38222e-12
-5.37213e-13
-2.82738e-12
-1.1535e-13
-3.03312e-12
5.14766e-13
-2.99473e-12
1.30589e-12
-2.72709e-12
2.19507e-12
-2.26694e-12
3.10905e-12
-1.6672e-12
3.97346e-12
-9.847e-13
4.72085e-12
-2.7174e-13
5.29634e-12
4.22878e-13
5.66244e-12
1.05068e-12
5.80272e-12
1.56911e-12
5.72129e-12
1.95508e-12
5.43648e-12
2.21298e-12
4.97323e-12
2.3661e-12
4.36086e-12
2.43626e-12
3.63831e-12
2.42848e-12
2.86046e-12
2.33239e-12
2.09715e-12
2.13651e-12
1.42147e-12
1.84114e-12
8.93315e-13
1.45965e-12
5.4737e-13
1.00956e-12
3.90884e-13
5.03343e-13
4.09496e-13
-5.32738e-14
5.75182e-13
-6.55418e-13
8.51954e-13
-1.29163e-12
1.1992e-12
-1.94039e-12
1.57521e-12
-2.57169e-12
1.94256e-12
-3.15088e-12
2.2746e-12
-3.64198e-12
2.56009e-12
-4.00992e-12
2.80445e-12
-4.22342e-12
3.02742e-12
-4.25924e-12
3.25873e-12
-4.10718e-12
3.53326e-12
-3.77324e-12
3.88566e-12
-3.27937e-12
4.3443e-12
-2.66005e-12
4.92472e-12
-1.95758e-12
5.62407e-12
-1.21775e-12
6.41844e-12
-4.86284e-13
7.26419e-12
1.94692e-13
8.10269e-12
7.90808e-13
8.86694e-12
1.27955e-12
9.48846e-12
1.65263e-12
9.90402e-12
1.91516e-12
1.00624e-11
2.08177e-12
9.93139e-12
2.17152e-12
9.50397e-12
2.20389e-12
8.80163e-12
2.19746e-12
7.87329e-12
2.17045e-12
6.78914e-12
2.14123e-12