/*--------------------------------*- C++ -*----------------------------------*\
| =========                 |                                                 |
| \\      /  F ield         | OpenFOAM: The Open Source CFD Toolbox           |
|  \\    /   O peration     | Version:  2406                                  |
|   \\  /    A nd           | Website:  www.openfoam.com                      |
|    \\/     M anipulation  |                                                 |
\*---------------------------------------------------------------------------*/
FoamFile
{
    version     2.0;
    format      ascii;
    arch        "LSB;label=32;scalar=64";
    class       volScalarField;
    location    "5";
    object      p;
}
// * * * * * * * * * * * * * * * * * * * * * * * * * * * * * * * * * * * * * //

dimensions      [1 -1 -2 0 0 0 0];

internalField   nonuniform List<scalar> 
10000
(
3733.86
3594.05
3546.38
3339.75
3126.65
2934.57
2738.14
2575.38
2439.07
2303.04
2166.38
2052.78
1987.13
1979.89
2028.29
2127.8
2281.83
2500.52
2789.98
3141.68
3530.94
3924.99
4293.87
4617.11
4884
5090.21
5234.64
5318.73
5346.86
5325.74
5261.47
5155.67
5003.79
4797.27
4528.48
4195.17
3802.21
3360.6
2885.96
2398.08
1921.53
1485.84
1123.98
869.175
750.873
791.344
1003.45
1389.73
1942.53
2644.73
3470.99
4389.2
5362.27
6350.18
7312
8207.87
9000.58
9656.79
10148.1
10452.3
10554.9
10450.5
10144.7
9654.55
9008.2
8243.68
7406.54
6546.73
5714.63
4956.56
4310.16
3800.3
3436.54
3212.37
3106.74
3087.5
3116.25
3154.01
3167.1
3132.37
3041.07
2900.21
2730.98
2563.95
2432.27
2364.39
2378.75
2481.84
2670.21
2934.76
3265.11
3651.31
4082.67
4545.69
5023.74
5498.06
5943.34
6308.74
6509.58
6554.13
3524.07
3305.5
3229.24
3071.71
2857.24
2668.02
2493.12
2358
2256.89
2160.78
2056.23
1955.3
1880.1
1846.82
1861.56
1926.25
2045.73
2228.25
2478.84
2791.33
3146
3514.6
3868.66
4186.02
4452.82
4662.02
4810.94
4899.87
4931.67
4911.29
4843.99
4732.88
4577.15
4372.78
4115.33
3803.33
3440.42
3035.72
2603.25
2161.46
1732.99
1344.26
1023.99
800.641
699.365
739.183
931.035
1276.85
1769.57
2393.87
3127.36
3942.08
4806.05
5684.8
6542.89
7345.36
8058.95
8653.27
9101.87
9383.42
9483.19
9394.72
9121.37
8677.34
8087.79
7387.81
6620.29
5832.68
5073.06
4385.63
3806.13
3357.93
3049.32
2872.76
2806.34
2817.36
2867.42
2918.4
2938.35
2906.51
2816.58
2677.6
2511.87
2350.05
2224.18
2160.36
2173.47
2265.9
2430.88
2658.55
2940.86
3272.31
3646.53
4053.46
4481.07
4916.39
5331.92
5665.08
5863.38
6060.44
3363.95
3132.98
2928.95
2724.5
2482.94
2280.15
2110.85
2004.11
1953.35
1916.25
1860.52
1786.91
1718.07
1677.05
1675.24
1714.24
1794.71
1921.93
2102.83
2337.97
2616.07
2915.47
3211.13
3481.8
3713.42
3898.29
4032.37
4113.51
4141.65
4119.72
4053.4
3948.7
3809
3633.76
3420.09
3166.11
2873.88
2550.49
2207.55
1860.33
1527.05
1228.45
986.786
823.986
759.282
806.928
974.605
1262.72
1664.6
2167.3
2752.82
3399.36
4082.47
4776.04
5453.17
6087.04
6651.78
7123.31
7480.21
7704.56
7783.19
7709.21
7483.62
7116.68
6628.36
6047.71
5410.99
4758.8
4132.44
3569.93
3101.88
2747.93
2514.24
2392.74
2362.5
2393.22
2450.21
2500.12
2516.23
2482.83
2397.62
2272.01
2128.72
1996.71
1904.19
1871.37
1905.78
2002.53
2150.16
2338.79
2565.23
2830.65
3133.31
3465.25
3819.42
4196.93
4586.38
4915.11
5104.93
5266.84
3065.44
2894.25
2640.35
2396.58
2119.09
1884.56
1686.99
1566.84
1531.62
1537.63
1537.69
1516.18
1486.13
1468.53
1476.06
1509.87
1566.59
1646.58
1755.76
1900.08
2078.17
2278.67
2483.72
2675.45
2840.8
2972.37
3066.26
3119.79
3131.35
3102.02
3036.61
2942.41
2825.95
2690.31
2535.08
2358.77
2161.84
1948.35
1725.86
1504.47
1296.11
1114.23
973.186
887.181
868.506
925.869
1063.23
1279.43
1568.46
1920.32
2322.04
2758.76
3214.49
3672.64
4116.33
4528.66
4893.1
5194
5417.19
5550.61
5585.21
5516.02
5343.48
5074.64
4723.78
4312.01
3865.84
3414.79
2988.43
2613.26
2309.73
2089.66
1954.66
1895.71
1894.49
1926.42
1964.88
1986.04
1973.09
1919.23
1828.82
1716.44
1603.89
1515.22
1470.5
1479.95
1541.13
1641.48
1766.34
1908.27
2071.19
2264.88
2493.64
2750.9
3027.42
3323.06
3635.51
3909.46
4073.14
4178.77
2752.09
2593.93
2313.33
2035.9
1696.9
1396.08
1142.52
987.95
953.766
999.978
1069.68
1130.41
1178.64
1223.44
1270.85
1318.24
1358.67
1389.14
1415.08
1447.54
1495.77
1561.25
1637.19
1712.89
1778.92
1829.82
1863.21
1877.56
1871.25
1843.85
1798.06
1739.82
1675.77
1610.11
1543.18
1472.82
1397.09
1316.22
1232.91
1151.5
1077.28
1016.21
974.885
960.022
977.385
1030.62
1120.42
1244.35
1397.24
1572.01
1760.65
1955.15
2148.1
2332.92
2503.74
2655.08
2781.67
2878.44
2940.67
2964.23
2945.9
2883.91
2778.68
2633.67
2455.94
2256.14
2047.68
1845.2
1662.74
1511.94
1400.47
1330.97
1300.47
1300.57
1318.43
1338.88
1347.25
1332.44
1289.55
1221.25
1137.52
1053.85
988.029
955.788
966.142
1017.73
1098.54
1190.72
1279.98
1364.56
1456.95
1575.02
1728.15
1910.63
2108.23
2310.19
2515.25
2704.56
2834.94
2906.15
2453.94
2309.55
2013.73
1702.85
1290.79
899.244
564.233
351.163
295.818
366.573
502.412
655.634
802.521
933.986
1044.11
1124.3
1164.47
1159.05
1112.34
1038.23
954.245
874.153
804.058
743.608
690.229
642.773
602.224
569.949
545.998
529.466
520.452
521.307
535.517
564.977
608.028
659.839
714.601
767.638
816.139
858.666
894.497
923.477
946.222
964.066
978.484
990.228
998.671
1001.67
995.973
977.922
944.38
893.557
825.6
742.737
648.924
549.154
448.72
352.647
265.359
190.478
130.674
87.5879
61.9407
53.8645
63.3201
90.3389
134.874
196.267
272.579
360.125
453.451
545.749
629.544
697.45
742.956
761.272
750.307
711.636
651.101
578.649
507.138
450.178
419.293
420.798
453.05
505.276
559.718
598.245
611.961
608.684
611.809
648.686
735.662
870.433
1032.8
1189.15
1316.99
1431.06
1532.74
1590.07
2145.46
2027.94
1734.43
1389.82
911.118
433.936
21.8844
-248.308
-329.699
-243.529
-49.3068
194.331
443.794
668.89
848.362
966.272
1010.58
975.281
864.334
693.11
484.777
263.4
47.8974
-150.02
-323.867
-468.938
-580.396
-653.972
-687.771
-682.81
-641.566
-566.137
-458.069
-320.104
-158.066
19.0168
200.709
377.365
541.206
686.046
806.599
898.253
957.398
981.741
970.116
921.89
836.391
712.761
550.291
349.069
110.736
-160.806
-458.892
-773.971
-1094.03
-1405.5
-1694.44
-1947.61
-2153.35
-2302.16
-2387.17
-2404.6
-2354.06
-2238.65
-2064.69
-1841.25
-1579.65
-1293.1
-996.275
-704.767
-434.03
-197.91
-7.01151
132.632
220.198
259.88
260.023
231.855
188.078
141.384
102.907
80.6061
77.6661
91.0798
110.934
121.383
104.592
48.0218
-47.0994
-161.175
-260.65
-311.175
-291.197
-197.954
-52.1547
92.6902
181.226
244.251
323.297
373.033
1837.05
1749.89
1478.87
1108.76
582.191
41.694
-425.882
-737.061
-839.365
-744.819
-507.34
-190.306
147.736
457.377
701.352
855.203
905.066
846.016
683.075
432.707
121.384
-219.574
-560.53
-878.094
-1155.94
-1382.73
-1549.88
-1651.09
-1683.56
-1648.92
-1552.21
-1399.95
-1199.02
-957.467
-686.074
-398.636
-110.359
164.545
414.342
629.691
802.741
926.549
995.256
1004.61
952.164
837.019
659.346
420.225
121.893
-231.72
-634.411
-1077.24
-1548.24
-2032.42
-2512.2
-2968.38
-3381.52
-3733.35
-4008.09
-4193.29
-4280.47
-4265.66
-4149.8
-3938.97
-3644.26
-3281.13
-2868.44
-2427.37
-1980.19
-1549
-1154.27
-812.96
-536.568
-329.553
-188.718
-104.006
-60.7013
-42.5225
-34.8481
-27.2894
-15.148
0.29268
12.2847
9.54813
-22.3863
-98.6485
-230.323
-417.684
-644.103
-875.391
-1068.14
-1184.57
-1204.36
-1127.09
-977.2
-822.798
-747.979
-717.927
-661.357
-623.853
1490.32
1438.49
1212.36
841.244
304.293
-257.369
-742.544
-1066.85
-1178.06
-1081.58
-823.363
-465.037
-72.0469
293.569
581.765
759.978
812.239
735.316
536.492
233.59
-145.469
-565.812
-991.182
-1389.54
-1736.2
-2013.81
-2210.61
-2319.35
-2337.71
-2268.86
-2120.68
-1903.66
-1629.11
-1309.3
-958.705
-594.645
-235.928
99.7333
397.757
646.995
838.69
965.358
1020.53
999.245
898.627
718.041
458.895
124.499
-279.776
-746.112
-1263.9
-1819.63
-2396.98
-2977.17
-3539.52
-4062.41
-4524.58
-4906.67
-5192.58
-5370.48
-5433.32
-5379.17
-5211.38
-4938.67
-4574.94
-4138.7
-3651.86
-3138.25
-2622.01
-2126.04
-1670.46
-1271.13
-938.023
-673.87
-473.627
-325.388
-213.052
-120.412
-35.6318
45.3035
117.327
167.6
178.733
132.607
13.9126
-186.407
-466.869
-810.469
-1181.65
-1529.54
-1799.72
-1950.96
-1967.33
-1859.39
-1666.27
-1473.22
-1386.46
-1372.85
-1340.6
-1321.64
1050.54
1039.14
875.084
538.928
46.536
-474.242
-921.936
-1218.99
-1318.61
-1222.22
-966.79
-606.851
-205.871
170.982
467.789
646.905
690.695
597.647
377.966
51.3604
-353.868
-802.679
-1257.21
-1681.92
-2047.73
-2333.76
-2526.63
-2619.36
-2611.2
-2507.69
-2319.77
-2061.27
-1746.5
-1389.66
-1005.99
-613.122
-230.504
122.913
431.181
682.305
867.408
979.245
1011.38
958.473
817.105
586.507
268.815
-130.883
-604.428
-1140.38
-1723.95
-2337.29
-2960.17
-3570.87
-4147.15
-4667.3
-5111.33
-5462.23
-5707.23
-5838.5
-5853.43
-5754.4
-5548.43
-5246.78
-4864.58
-4420.23
-3934.42
-3428.67
-2923.79
-2438.31
-1987.41
-1582.02
-1228.17
-926.392
-671.5
-453.334
-259.066
-77.1691
97.7619
261.045
396.678
479.933
483.148
382.697
164.882
-170.026
-604.997
-1104.28
-1613.97
-2068.19
-2402.09
-2568.89
-2553.96
-2380.02
-2108.41
-1847.1
-1720.88
-1703.56
-1691.98
-1691.79
493.335
521.029
426.606
163.625
-221.775
-629.069
-974.311
-1196.41
-1258.46
-1159.72
-927.723
-606.043
-248.345
87.2484
348.106
497.03
516.436
406.249
179.172
-143.287
-533.147
-957.701
-1382.09
-1773.04
-2102.7
-2350.91
-2505.38
-2560.88
-2518.77
-2386.95
-2178.78
-1910.31
-1597.1
-1252.69
-889.654
-521.738
-164.866
164.156
450.071
680.8
847.268
942.027
958.102
888.996
729.733
478.148
135.817
-291.516
-793.761
-1356.45
-1960.99
-2585.37
-3205.54
-3796.98
-4336.37
-4802.94
-5179.69
-5454.31
-5619.91
-5675.32
-5624.75
-5476.91
-5243.82
-4939.67
-4579.96
-4180.92
-3758.8
-3328.99
-2904.94
-2497.08
-2112.25
-1753.67
-1421.37
-1112.75
-823.056
-545.988
-275.172
-7.00658
255.289
497.83
694.739
811.225
811.123
666.553
366.272
-79.6608
-638.989
-1259.29
-1872.78
-2404.59
-2784.28
-2959.71
-2912.21
-2669.74
-2313.05
-1972.28
-1787.05
-1744.43
-1741.43
-1751.35
-161.841
-103.963
-127.269
-282.452
-502.855
-727.596
-908.063
-1009.76
-1009.33
-904.541
-712.801
-464.131
-196.648
47.2742
227.623
314.629
293.835
166.429
-53.9466
-345.465
-681.702
-1034.16
-1374.34
-1676.18
-1918.6
-2087.21
-2174.41
-2178.53
-2103.32
-1957.94
-1756.33
-1514.6
-1247.34
-965.094
-674.808
-382.697
-97.0243
171.27
410.073
608.041
755.335
842.96
861.809
802.624
657.222
420.367
91.4614
-324.46
-816.394
-1367.52
-1955.82
-2555.34
-3138.15
-3676.77
-4146.61
-4527.96
-4807.3
-4978
-5040.47
-5001.66
-4874.1
-4674.12
-4419.8
-4128.9
-3817.35
-3498.3
-3181.9
-2875.13
-2581.68
-2301.7
-2032.02
-1766.78
-1498.86
-1221.61
-930.178
-622.424
-299.493
32.984
362.555
667.114
913.612
1060.86
1067.41
902.771
557.763
50.158
-575.965
-1256.22
-1915.38
-2477.57
-2874.76
-3054.02
-2990.17
-2707
-2292.82
-1889.45
-1642.8
-1558.13
-1545.78
-1550.82
-865.528
-789.219
-740.332
-759.622
-771.339
-761.32
-729.617
-676.704
-595.485
-481.967
-342.336
-191.401
-48.5511
65.1127
129.388
128.622
55.4898
-86.9801
-286.104
-522.406
-773.294
-1016.3
-1231.43
-1402.86
-1520.25
-1579.19
-1580.31
-1527.71
-1427.88
-1289.88
-1125.51
-947.8
-767.527
-590.048
-414.821
-238.324
-58.3556
123.026
299.223
460.61
596.047
693.381
739.325
719.828
621.625
434.689
154.687
-215.343
-664.393
-1173.83
-1718.5
-2268.59
-2792.28
-3258.91
-3642.27
-3923.25
-4091.58
-4146.3
-4095.31
-3954.15
-3744.05
-3489.39
-3214.76
-2942.03
-2687.98
-2462.99
-2270.91
-2109.71
-1972.5
-1848.62
-1724.67
-1585.87
-1418.08
-1210.22
-956.467
-657.654
-321.38
38.3181
400.804
737.781
1012.55
1182.11
1204.05
1047.53
704.643
196.996
-425.408
-1093.01
-1730.09
-2267.17
-2646.47
-2821.24
-2762.11
-2482.11
-2062.26
-1638.25
-1347.71
-1215.22
-1175.91
-1160.22
-1557.65
-1471.06
-1347.68
-1212.66
-993.591
-723.463
-456.286
-231.905
-60.9318
62.7744
145.382
188.175
191.139
155.915
85.2909
-17.9017
-150.028
-304.61
-470.917
-634.471
-779.337
-891.121
-959.567
-980.199
-954.923
-891.357
-800.67
-694.583
-583.153
-474.525
-375.963
-294.002
-232.438
-189.294
-155.553
-117.458
-61.5136
20.5605
129.313
257.849
393.594
520.005
617.772
666.13
645.01
538.081
335.955
38.5645
-343.877
-791.363
-1275.76
-1763.41
-2218.51
-2607.01
-2900.66
-3080.37
-3138.34
-3078.57
-2915.91
-2673.94
-2382.15
-2072.55
-1775.99
-1518.51
-1318.33
-1183.99
-1114.06
-1098.39
-1120.25
-1158.78
-1191.28
-1195.26
-1150.69
-1042.6
-863.623
-615.767
-310.558
32.2452
386.395
720.181
996.795
1175.85
1218.41
1096.14
801.905
356.779
-190.683
-774.043
-1324.39
-1784.28
-2111.44
-2271.48
-2235.94
-2005.44
-1641.05
-1253.05
-953.042
-781.116
-704.287
-656.992
-2176.96
-2081
-1882.13
-1588.29
-1142.6
-619.611
-123.039
269.086
528.534
663.408
692.486
633.103
503.2
324.812
122.152
-82.9991
-273.962
-438.694
-567.768
-652.837
-686.681
-664.735
-587.168
-460.499
-298.097
-119.053
54.8528
203.53
312.465
374.171
386.982
353.168
278.686
174.81
59.5108
-43.9756
-111.898
-126.064
-78.395
27.651
178.378
352.411
523.362
662.461
741.628
737.183
633.716
427.141
126.1
-248.562
-665.979
-1088.67
-1476.73
-1792.51
-2005.27
-2095.14
-2055.75
-1894.85
-1633
-1300.73
-934.758
-573.728
-253.932
-5.23273
152.397
211.139
175.892
62.9169
-103.097
-292.729
-475.433
-622.536
-709.704
-719.224
-642.241
-480.452
-246.393
38.1243
344.862
641.911
895.422
1070.98
1136.71
1069.47
863.143
534.77
124.467
-313.055
-723.058
-1064.49
-1312.93
-1449.62
-1452.08
-1310.44
-1058.35
-765.139
-499.973
-310.714
-197.464
-116.838
-2661.9
-2551.43
-2280.84
-1841.2
-1200.78
-465.749
223.549
758.233
1094.57
1241.48
1228.85
1088.58
853.613
561.357
251.859
-38.009
-279.471
-453.559
-550.159
-565.864
-502.114
-364.567
-163.683
84.256
356.671
625.638
860.966
1035.24
1129.18
1134.92
1055.59
902.508
692.602
447.647
194.68
-34.9403
-209.423
-302.652
-299.978
-201.34
-20.9745
215.364
474.251
718.659
912.153
1023.35
1030.4
924.546
712.088
413.931
63.0649
-299.55
-630.031
-886.969
-1036.69
-1057.72
-943.815
-704.844
-365.37
38.7418
464.982
869.292
1210.97
1457.05
1585.83
1589.29
1473.89
1259.39
975.735
658.561
344.444
66.8196
-146.959
-277.584
-315.25
-260.665
-125.142
70.9098
301.059
536.463
748.636
911.055
1000.77
1001.64
909.255
734.941
505.621
257.494
24.7586
-171.344
-324.688
-432.607
-481.825
-455.507
-357.625
-208.138
-23.0985
151.738
287.554
392.614
-2954.43
-2823.02
-2491.39
-1937.34
-1159.48
-282.717
535.185
1167.33
1559.06
1718.33
1682.39
1494.21
1197.45
838.571
465.642
123.486
-151.282
-333.395
-409.948
-379.381
-249.098
-33.0491
249.641
574.974
914.05
1233.75
1499.17
1678.29
1747.98
1698.83
1536.54
1279.37
954.033
592.406
230.032
-95.175
-345.971
-491.098
-511.29
-403.532
-181.978
124.431
476.437
829.719
1140.23
1369.44
1489.3
1486.24
1363.54
1141.15
853.076
542.809
257.563
42.2037
-66.5142
-44.8243
114.7
401.929
790.444
1241.16
1707.56
2141.62
2499.34
2745.45
2856.87
2824.96
2656.25
2371.52
2002.94
1589.49
1171.6
786.135
462.655
221.415
72.6238
16.4836
43.8656
137.943
277.022
438.055
599.664
743.843
856.682
929.301
959.496
952.918
921.903
881.055
840.538
799.866
747.485
671.142
573.628
475.166
399.366
375.906
444.136
570.018
704.492
816.03
-3012.37
-2857.18
-2483.18
-1862.09
-1023.33
-96.0595
766.316
1435.21
1852.11
2022.5
1985.42
1788.96
1481.85
1113.01
730.449
378.636
95.4953
-90.4095
-162.545
-117.629
35.5896
279.225
589.142
936.8
1290.21
1614.72
1874.72
2037.19
2077.16
1983.34
1761.25
1432.23
1029.15
591.431
161.304
-218.621
-508.106
-673.55
-693.36
-562.542
-294.601
80.0433
518.481
971.237
1388.52
1726.18
1951.02
2045.07
2008.25
1858.48
1629.3
1365.09
1114.97
926.224
838.152
876.956
1052.16
1355.11
1759.86
2226.63
2707.23
3151.43
3513.21
3755.89
3855.58
3803.09
3604.35
3279.46
2860.15
2385.77
1898.03
1435.56
1029.49
700.841
459.984
307.61
236.498
233.8
283.772
370.698
481.296
605.934
738.648
876.658
1019.72
1168.78
1323.22
1477.49
1618.49
1724.85
1768.98
1725.59
1586.95
1373.49
1131.17
932.136
864.302
912.456
1017.61
1112.96
-2823.35
-2648.17
-2259.01
-1629.59
-816.891
60.2966
873.756
1510.08
1915.66
2093.21
2077.38
1913.58
1648.46
1326.75
989.597
673.719
411.525
230.301
149.151
175.552
304.274
519.237
796.716
1108.18
1422.25
1706.07
1926.7
2053.48
2062.15
1940.06
1690.46
1333.38
902.668
440.642
-7.16794
-395.972
-684.833
-840.171
-840.089
-678.597
-367.998
61.8015
567.107
1096.38
1596.93
2021.35
2333.1
2510.85
2551.23
2469.3
2296.42
2075.8
1856.33
1685.82
1604.72
1640.94
1806.22
2094.45
2482.25
2931.81
3396
3824.76
4171.73
4399.87
4485.21
4418.53
4205.3
3864.32
3425.34
2925.62
2405.45
1903.11
1450.15
1068.11
767.543
549.185
406.694
329.976
308.408
333.382
399.691
505.541
651.531
839.214
1069.37
1339.31
1638.96
1947.7
2234.46
2461.27
2587.84
2578.23
2414.68
2115.03
1740.34
1392.46
1193.18
1149.04
1200.73
1258.86
-2410.63
-2226.9
-1857.87
-1284.61
-585.49
144.038
818.011
1352.51
1707.61
1884.69
1908.95
1814.78
1638.48
1414.1
1170.61
931.89
719.606
555.207
457.912
439.948
503.023
638.186
828.08
1049.68
1276.58
1480.87
1634.71
1712.15
1691.72
1560.52
1318.45
980.644
576.543
145.669
-267.914
-620.62
-873.179
-993.889
-962.005
-771.187
-431.882
28.6173
569.045
1139.47
1687.85
2166.54
2537.98
2778.98
2883.41
2862.87
2745.04
2569.65
2382.81
2230.4
2151.89
2175.26
2313.61
2563.53
2905.39
3305.66
3721.12
4104.73
4412.08
4607.29
4667.25
4583.39
4361.39
4019.21
3584.34
3090.71
2575.08
2072.98
1614.51
1220.83
902.378
659.554
485.653
371.159
308.027
292.613
326.394
414.497
563.045
776.607
1056.1
1396.17
1781.34
2182.96
2560.39
2866.65
3054.02
3078.99
2914.66
2573.64
2123.8
1680.99
1381.02
1250.28
1236.02
1244.3
-1828.71
-1654.86
-1346.42
-893.393
-386.285
112.234
570.129
942.346
1209.39
1374.18
1449.86
1452.99
1401.58
1312.64
1198.98
1068.97
930.826
797.085
684.451
608.839
580.036
599.465
660.874
751.967
855.952
953.137
1022.72
1044.54
1001.02
879.804
677.238
401.429
73.1586
-276.264
-609.455
-888.043
-1077.02
-1148.11
-1082.58
-873.923
-529.894
-73.0909
460.864
1027.51
1579.3
2071.76
2468.94
2747.53
2899.4
2932.42
2869.21
2743.9
2597.14
2470.16
2398.92
2409.4
2514.43
2712.44
2987.73
3312.34
3649.41
3957.83
4197.97
4337.24
4354.66
4243.13
4009.25
3671.03
3254.54
2790.52
2311.23
1847.52
1425.8
1065.03
774.536
553.741
394.442
285.399
217.754
189.189
204.983
275.544
411.867
621.29
904.947
1256.08
1657.71
2080.44
2483.63
2820.62
3043.18
3104.15
2968.7
2641.78
2189.49
1725.63
1378.71
1188.91
1113.32
1072.44
-1153.35
-1012.25
-804.056
-527.692
-273.14
-65.761
122.047
287.515
434.703
571.237
698.742
812.499
906.474
975.457
1013.15
1011.43
964.518
874.952
755.189
623.188
495.998
385.94
299.916
239.729
202.07
178.745
157.843
125.592
68.2686
-25.8244
-163.861
-345.627
-561.433
-792.124
-1011.52
-1190.4
-1300.71
-1318.97
-1228.94
-1023.66
-707.247
-295.667
184.03
696.473
1202.43
1664
2049.54
2337.41
2518.4
2596.48
2588.12
2519.84
2424.34
2335.49
2283.26
2289.39
2364.68
2507.97
2706.74
2938.85
3175.14
3382.9
3530.12
3590.13
3545.9
3392.74
3138.72
2802.58
2410.03
1989.66
1569.65
1175.35
827.573
540.83
321.53
166.982
66.4875
5.2643
-29.5348
-43.0751
-30.28
21.9176
128.628
300.647
540.752
842.897
1192.27
1565.08
1929.51
2248.51
2480.87
2580.39
2505.98
2252.46
1876.03
1474.01
1148.51
944.926
830.698
755.943
-470.894
-385.228
-308.137
-248.916
-281.947
-396.167
-504.461
-569.409
-564.589
-475.436
-308.643
-89.2753
150.89
381.888
576.824
711.019
765.282
732.284
619.578
445.806
233.588
4.50126
-222.357
-430.753
-608.744
-750.58
-857.323
-935.636
-995.676
-1048.99
-1106.47
-1175.87
-1259.38
-1351.92
-1441.44
-1510.93
-1541.64
-1516.12
-1420.81
-1247.86
-996.69
-674.998
-298.894
108.367
519.162
905.302
1241.97
1510.95
1702.78
1817.59
1864.78
1861.59
1830.47
1795.49
1778.26
1794.37
1850.98
1946.03
2069.1
2203.24
2327.21
2418
2453.51
2415.64
2293.51
2086.12
1803.42
1465
1096.7
726.066
378.286
73.6731
-173.353
-354.593
-468.679
-521.992
-528.684
-508.128
-479.289
-453.731
-430.828
-398.305
-338.348
-235.81
-83.8856
115.105
352.098
613.808
883.968
1142.84
1363.11
1504.51
1521.79
1397.56
1170.43
909.618
676.665
513.285
397.059
314.796
132.424
145.738
77.2602
-97.1249
-421.363
-854.111
-1254.28
-1550.5
-1698.86
-1677.36
-1496.36
-1196.23
-831.253
-454.587
-112.786
153.826
313.343
348.713
262.053
71.631
-196.052
-512.639
-849.895
-1179.83
-1476.49
-1719.69
-1898.21
-2010.42
-2062.66
-2066.73
-2037.45
-1990.38
-1939.15
-1892.93
-1854.76
-1821.49
-1785.17
-1735.34
-1661.2
-1553.51
-1406.09
-1217.15
-990.209
-734.294
-462.964
-192.253
61.9608
286.417
472.247
615.875
719.146
788.784
835.172
870.394
905.697
948.868
1002.25
1062.07
1119.19
1160.96
1173.46
1143.41
1059.67
914.597
705.641
437.074
121.255
-221.651
-566.107
-885.422
-1156.37
-1362.54
-1495.44
-1553.9
-1543.19
-1474.94
-1367.59
-1245.42
-1134.18
-1053.86
-1011.7
-999.875
-1000.1
-992.66
-964.268
-910.166
-830.353
-724.336
-588.904
-421.608
-230.522
-45.1722
88.0007
137.981
118.964
63.479
-15.6249
-87.5722
-163.736
-223.159
581.96
516.522
308.951
-85.9325
-670.661
-1384.36
-2042.62
-2548.81
-2848.54
-2913.49
-2752.82
-2414.45
-1967.6
-1482.49
-1020.97
-636.367
-372.458
-256.762
-294.24
-468.756
-751.614
-1109.95
-1509.87
-1916.07
-2292.53
-2606.81
-2835.46
-2967.46
-3004.23
-2957.27
-2845.1
-2690.45
-2517.35
-2348.05
-2200.03
-2083.98
-2003.29
-1954.88
-1930.83
-1920.12
-1910.39
-1889.67
-1848.11
-1779.47
-1681.89
-1557.76
-1412.6
-1253.6
-1088.28
-923.547
-765.156
-617.416
-483.053
-363.437
-259.325
-172.086
-104.992
-63.9123
-56.9262
-92.8357
-179.145
-320.328
-516.965
-765.707
-1059.47
-1387.25
-1733.5
-2077.79
-2395.9
-2662.89
-2857.48
-2966.12
-2985.01
-2919.35
-2781.4
-2588.86
-2364.95
-2138.39
-1940.99
-1801.24
-1736.01
-1744.98
-1812.17
-1914.17
-2029.81
-2144.37
-2246.22
-2319.59
-2340.93
-2284.14
-2135.19
-1908.51
-1647.71
-1397.14
-1172.16
-982.78
-867.066
-809.896
-808.815
-819.417
826.247
688.231
369.025
-202.755
-984.237
-1909.26
-2765.53
-3441.21
-3878.58
-4044.78
-3943.31
-3621.06
-3152.05
-2613.96
-2076.07
-1599.5
-1237.91
-1030.52
-992.71
-1114.11
-1366.52
-1714.6
-2121.5
-2548.81
-2955.69
-3301.8
-3553.72
-3690.9
-3708.41
-3615.8
-3433.94
-3191.39
-2920.95
-2655.92
-2426.37
-2255.56
-2157.67
-2136.93
-2188.3
-2298.99
-2450.39
-2620.36
-2785.78
-2925.18
-3021.22
-3062.22
-3042.82
-2963.56
-2830.08
-2652.11
-2442.55
-2216.36
-1989.3
-1776.61
-1591.84
-1446.45
-1349.94
-1310.38
-1334.58
-1427.41
-1590.48
-1820.71
-2109.65
-2444.06
-2807.44
-3181.44
-3546.64
-3882.42
-4166.93
-4378.5
-4498.85
-4517.17
-4433.02
-4256.42
-4005.48
-3703.59
-3378.27
-3061.56
-2789.4
-2597.03
-2510.63
-2539.13
-2671.63
-2883.22
-3144.92
-3430.69
-3715.89
-3969.79
-4150.55
-4210.67
-4114.09
-3857.04
-3475.12
-3023.01
-2547.72
-2104.55
-1780.06
-1576.82
-1475.22
-1421.87
845.47
652.39
265.567
-413.668
-1301.49
-2342.47
-3316.15
-4106.23
-4657.57
-4933.87
-4928.94
-4680.5
-4257.08
-3733.06
-3175.2
-2644.65
-2200.67
-1894.36
-1755.57
-1785.44
-1961.13
-2247.66
-2607.08
-3000.6
-3386.92
-3723.02
-3969.43
-4097.64
-4095.49
-3968.46
-3737.29
-3434.07
-3097.92
-2770.65
-2492.27
-2296.47
-2206.8
-2234.27
-2376.8
-2620.21
-2940.26
-3305.5
-3680.57
-4029.97
-4321.86
-4531.27
-4642.29
-4648.88
-4554.56
-4371.38
-4118.49
-3820.29
-3504.34
-3198.7
-2929.27
-2717.66
-2579.93
-2526.48
-2562.57
-2688.76
-2900.81
-3189.03
-3537.88
-3926.61
-4331.14
-4726.75
-5090.23
-5400.72
-5639.42
-5789.4
-5837
-5774.92
-5605.41
-5341.46
-5004.94
-4623.13
-4226.38
-3848.08
-3525.41
-3297.12
-3196.51
-3241.73
-3429.29
-3735.73
-4126.44
-4564.54
-5012.67
-5427.07
-5752.03
-5924.03
-5888.48
-5622.24
-5147.41
-4522.84
-3824.55
-3151.83
-2633.75
-2290.6
-2084.09
-1965.25
653.383
430.193
28.8617
-672.269
-1560.45
-2606.56
-3604.44
-4444.63
-5078.69
-5466.63
-5588.43
-5465.57
-5152.41
-4710.7
-4195.39
-3658.85
-3159.2
-2756.73
-2498.26
-2402.79
-2459.86
-2639.71
-2905.45
-3219.11
-3541.3
-3830.25
-4044.85
-4151.54
-4131.43
-3984.19
-3727.6
-3394.07
-3025.92
-2670.37
-2374.32
-2179.17
-2115.89
-2201.36
-2436.54
-2806.68
-3283.31
-3827.38
-4393.39
-4933.98
-5404.92
-5769.66
-6002.91
-6092.59
-6040.16
-5859.48
-5574.85
-5218.4
-4827.17
-4439.68
-4092.2
-3815.29
-3631.17
-3552.67
-3583.58
-3719.96
-3951.58
-4262.66
-4632.25
-5034.76
-5441.7
-5824.47
-6157.46
-6420.07
-6596.85
-6676.5
-6651.39
-6518.91
-6284.04
-5961.31
-5573.89
-5150.39
-4721.55
-4319.49
-3979.14
-3738.59
-3634.41
-3692.26
-3917.23
-4290.83
-4776.57
-5329.59
-5901.88
-6439.89
-6879.71
-7149.34
-7181.97
-6936.86
-6418.01
-5679.88
-4819.51
-3973.36
-3303.88
-2847.86
-2550.97
-2377.18
291.272
65.301
-297.041
-931.357
-1712.86
-2651.34
-3577.54
-4400.08
-5080.09
-5572.51
-5839.23
-5879.46
-5726.89
-5424.72
-5010.07
-4519.54
-4002.37
-3521.97
-3140.66
-2899.35
-2807.27
-2846.69
-2985.58
-3187.8
-3416.21
-3632.02
-3795.64
-3871.71
-3836.34
-3682.85
-3423.68
-3088.3
-2718.73
-2364.11
-2074.97
-1897.44
-1867.72
-2007.34
-2320.35
-2792.59
-3393.31
-4078.5
-4795.43
-5488.09
-6102.89
-6594.25
-6929.3
-7090.88
-7078.49
-6907.23
-6605.28
-6210.5
-5766.66
-5319.39
-4912.04
-4581.51
-4354.75
-4246.68
-4259.95
-4386.62
-4610.73
-4910.82
-5261.63
-5635.07
-6001.51
-6331.96
-6601.09
-6789.95
-6886.87
-6886.45
-6787.78
-6593.77
-6312.54
-5959.24
-5556.32
-5130.96
-4711.54
-4326.1
-4003.88
-3777.7
-3682.64
-3748.46
-3988.6
-4392.61
-4927.19
-5544.37
-6189.59
-6803.61
-7320.27
-7666.93
-7772.64
-7583.58
-7083.73
-6314.2
-5380.32
-4442.86
-3685.24
-3158.81
-2800.45
-2590.04
-184.394
-388.281
-665.874
-1155.33
-1737.65
-2469.04
-3236.25
-3976.07
-4661.28
-5240.57
-5654.42
-5874.75
-5910.1
-5782.65
-5510.51
-5111.99
-4621.69
-4098.23
-3613.19
-3228.28
-2976.77
-2859.8
-2855.66
-2932.18
-3054.33
-3185.98
-3290.19
-3332.14
-3285.07
-3136.71
-2892.98
-2577.8
-2229.65
-1896.21
-1628.4
-1474.2
-1472.69
-1648.79
-2009.53
-2542.56
-3217.2
-3987.55
-4797.39
-5585.9
-6293.91
-6870.1
-7276.35
-7491.61
-7513.5
-7357.54
-7054.26
-6645.06
-6177.56
-5701.01
-5261.93
-4899.92
-4644.05
-4510.19
-4500.17
-4603.05
-4798.29
-5059.61
-5358.3
-5665.3
-5952.39
-6193.51
-6366.86
-6457.33
-6457.94
-6369.2
-6196.75
-5949.25
-5638.04
-5278.45
-4890.6
-4498.05
-4124.45
-3791.44
-3519.75
-3333.05
-3259.88
-3329.57
-3561.88
-3956.26
-4487.68
-5111.56
-5772.56
-6410.81
-6963.11
-7362.97
-7543
-7442.84
-7027.94
-6319.16
-5415.36
-4483.68
-3712.99
-3166.4
-2782.99
-2556.7
-716.746
-879.747
-1041.15
-1330.34
-1649.52
-2102.01
-2642.98
-3244.11
-3891.4
-4527.92
-5071.99
-5465.37
-5688.5
-5742.33
-5628.98
-5351.48
-4928.76
-4408.12
-3861.1
-3363.11
-2969.95
-2705.27
-2562.94
-2518.41
-2539.43
-2591.64
-2640.18
-2651.58
-2597.99
-2462.92
-2245.91
-1964
-1649.74
-1346.57
-1102.96
-966.142
-975.987
-1159.46
-1526.41
-2067.39
-2754.06
-3541.92
-4375.09
-5192.17
-5932.6
-6543.03
-6982.86
-7228.63
-7276.17
-7140.24
-6851.83
-6453.46
-5993.85
-5522.62
-5085.79
-4721.89
-4458.87
-4311.62
-4280.85
-4353.82
-4507.25
-4711.71
-4936.24
-5151.79
-5332.96
-5458.8
-5513.66
-5488.58
-5382.51
-5201.91
-4958.46
-4666
-4338.79
-3991.79
-3641.85
-3307.27
-3005.43
-2750.21
-2552.49
-2424.3
-2383.66
-2454.54
-2659.4
-3007.29
-3485.4
-4059.01
-4679.09
-5290.85
-5838.71
-6266.81
-6517.06
-6529.24
-6254.78
-5691.46
-4918.23
-4088.87
-3379.96
-2863.12
-2490.92
-2267.83
-1260.92
-1372.63
-1405.1
-1469.42
-1499.57
-1639.65
-1916.73
-2338.74
-2905.15
-3556.66
-4193.22
-4727.46
-5110.72
-5323.54
-5356.79
-5205.24
-4876.58
-4404.67
-3852.27
-3297.4
-2810.43
-2435.23
-2183.67
-2042.35
-1983.78
-1975.2
-1982.88
-1974.43
-1921.76
-1805.69
-1620.39
-1376.01
-1098
-823.693
-596.984
-462.321
-458.627
-613.775
-940.169
-1432.12
-2065.59
-2800.42
-3584.67
-4360.35
-5069.56
-5660.65
-6093.58
-6344.22
-6406.83
-6294.27
-6035.71
-5672.13
-5250.56
-4818.3
-4418.06
-4084.28
-3840.83
-3699.37
-3658.61
-3704.75
-3813.76
-3955.37
-4098.17
-4214.04
-4280.91
-4283.59
-4213.75
-4069.97
-3858.03
-3590.46
-3284.29
-2957.69
-2627.17
-2306.88
-2009.66
-1747.68
-1531.17
-1366.07
-1253.52
-1193.69
-1191.97
-1263.02
-1427.39
-1701.24
-2085.11
-2559.28
-3087.76
-3627.11
-4133.42
-4564.06
-4873.02
-5005.18
-4904.04
-4545.83
-3980.8
-3331.89
-2746.72
-2300.99
-1969.99
-1765.51
-1790.39
-1849.91
-1761.73
-1610.33
-1367.02
-1203.81
-1214.09
-1437.12
-1883.59
-2496.99
-3167.98
-3786.82
-4278.4
-4604.27
-4748.11
-4703.98
-4476.19
-4088.1
-3588.84
-3048.03
-2538.37
-2115.66
-1807.04
-1611.54
-1508.68
-1468.37
-1457.85
-1445.38
-1403.08
-1310.26
-1157.3
-948.326
-701.732
-447.91
-224.899
-72.9159
-28.6463
-119.947
-361.48
-751.861
-1272.87
-1891
-2561.22
-3232.18
-3852.03
-4374.04
-4761.54
-4991.63
-5057.64
-4969.66
-4752.94
-4444.1
-4085.76
-3720.6
-3386.14
-3111.07
-2913.42
-2799.93
-2766.22
-2797.56
-2870.6
-2956.52
-3025.57
-3051.77
-3016.42
-2909.54
-2729.57
-2482.37
-2180.52
-1842.21
-1489.08
-1142.78
-821.495
-538.308
-301.926
-118.064
10.3961
85.0635
113.022
104.454
66.0797
-5.36405
-124.454
-310.044
-574.197
-913.894
-1311.16
-1739.32
-2170.1
-2575.36
-2921.62
-3161.26
-3235.48
-3103.87
-2785.22
-2360.95
-1937.04
-1589.15
-1318.67
-1145.36
-2295.33
-2311.76
-2132.09
-1805.84
-1342.78
-925.088
-699.454
-726.187
-1021.84
-1537.94
-2168.76
-2795.24
-3323.98
-3700.94
-3905.06
-3934.5
-3797.4
-3512.5
-3115.28
-2659.43
-2207.72
-1815.87
-1518.66
-1325.04
-1222.36
-1184.93
-1181.97
-1182.87
-1160.51
-1093.96
-971.387
-792.506
-569.526
-325.983
-93.4895
92.8701
199.613
199.701
76.6239
-172.721
-536.839
-990.488
-1497.59
-2015.74
-2501.43
-2915.14
-3225.62
-3412.95
-3470.44
-3405.21
-3237.18
-2996.32
-2718.31
-2439.22
-2190.26
-1993.98
-1862.4
-1796.99
-1789.82
-1825.03
-1880.54
-1930.46
-1948.43
-1911.8
-1805.22
-1622.7
-1367.56
-1051.16
-691.285
-310.555
65.8747
413.718
713.389
952.448
1125.63
1233.03
1278.73
1271.01
1223.5
1153.91
1078.77
1005.67
928.685
830.814
693.188
504.082
262.479
-25.1731
-349.23
-697.216
-1047.46
-1360.23
-1578.5
-1651.32
-1569.44
-1370.4
-1114.19
-872.153
-669.994
-537.849
-2774.44
-2766.11
-2542.48
-2107.72
-1508.23
-915.491
-511.78
-365.431
-491.29
-852.204
-1359.76
-1902.95
-2384.1
-2741.06
-2950.16
-3014.76
-2949.94
-2774.65
-2513.47
-2201.32
-1882.18
-1599.96
-1386.75
-1255.49
-1199.82
-1199.57
-1227.8
-1256.63
-1261.05
-1221.42
-1125.59
-970.714
-764.287
-523.724
-274.199
-45.128
134.029
237.916
248.891
159.709
-25.0438
-289.117
-606.542
-945.145
-1270.99
-1552.85
-1765.93
-1894.32
-1932.26
-1884.39