/*--------------------------------*- C++ -*----------------------------------*\
| =========                 |                                                 |
| \\      /  F ield         | OpenFOAM: The Open Source CFD Toolbox           |
|  \\    /   O peration     | Version:  2406                                  |
|   \\  /    A nd           | Website:  www.openfoam.com                      |
|    \\/     M anipulation  |                                                 |
\*---------------------------------------------------------------------------*/
FoamFile
{
    version     2.0;
    format      ascii;
    arch        "LSB;label=32;scalar=64";
    class       volScalarField;
    location    "5";
    object      p_rgh;
}
// * * * * * * * * * * * * * * * * * * * * * * * * * * * * * * * * * * * * * //

dimensions      [1 -1 -2 0 0 0 0];

internalField   nonuniform List<scalar> 
10000
(
3802.53
3662.72
3615.05
3408.42
3195.32
3003.24
2806.81
2644.05
2507.74
2371.71
2235.05
2121.45
2055.8
2048.56
2096.96
2196.47
2350.5
2569.19
2858.65
3210.35
3599.61
3993.66
4362.54
4685.78
4952.67
5158.88
5303.31
5387.4
5415.53
5394.41
5330.14
5224.34
5072.46
4865.94
4597.15
4263.84
3870.88
3429.27
2954.63
2466.75
1990.2
1554.51
1192.65
937.845
819.542
860.014
1072.12
1458.4
2011.2
2713.4
3539.66
4457.87
5430.94
6418.85
7380.67
8276.54
9069.25
9725.46
10216.8
10521
10623.5
10519.1
10213.4
9723.22
9076.87
8312.35
7475.21
6615.4
5783.3
5025.23
4378.83
3868.97
3505.21
3281.04
3175.41
3156.17
3184.92
3222.68
3235.77
3201.04
3109.74
2968.88
2799.65
2632.62
2500.94
2433.06
2447.42
2550.51
2738.88
3003.43
3333.78
3719.98
4151.34
4614.36
5092.41
5566.73
6012.01
6377.41
6578.25
6622.8
3730.08
3511.51
3435.25
3277.72
3063.25
2874.03
2699.13
2564.01
2462.9
2366.79
2262.24
2161.31
2086.11
2052.83
2067.57
2132.26
2251.74
2434.26
2684.85
2997.34
3352.01
3720.62
4074.67
4392.03
4658.83
4868.03
5016.95
5105.88
5137.68
5117.3
5050
4938.89
4783.16
4578.79
4321.34
4009.34
3646.43
3241.73
2809.26
2367.47
1939
1550.27
1230
1006.65
905.375
945.193
1137.04
1482.86
1975.58
2599.88
3333.37
4148.09
5012.06
5890.81
6748.9
7551.37
8264.96
8859.28
9307.88
9589.43
9689.2
9600.73
9327.38
8883.35
8293.8
7593.82
6826.3
6038.69
5279.07
4591.64
4012.14
3563.94
3255.33
3078.77
3012.35
3023.37
3073.43
3124.41
3144.36
3112.52
3022.59
2883.61
2717.88
2556.06
2430.19
2366.37
2379.48
2471.91
2636.89
2864.56
3146.87
3478.32
3852.54
4259.47
4687.08
5122.4
5537.93
5871.09
6069.39
6266.45
3707.3
3476.33
3272.3
3067.85
2826.29
2623.5
2454.2
2347.46
2296.7
2259.6
2203.87
2130.26
2061.42
2020.4
2018.59
2057.59
2138.06
2265.28
2446.18
2681.32
2959.42
3258.82
3554.48
3825.15
4056.77
4241.64
4375.72
4456.86
4485
4463.07
4396.75
4292.05
4152.35
3977.11
3763.44
3509.46
3217.23
2893.84
2550.9
2203.68
1870.4
1571.8
1330.14
1167.34
1102.63
1150.28
1317.96
1606.07
2007.95
2510.65
3096.17
3742.71
4425.82
5119.39
5796.52
6430.39
6995.13
7466.66
7823.56
8047.91
8126.54
8052.56
7826.97
7460.03
6971.71
6391.06
5754.34
5102.15
4475.79
3913.28
3445.23
3091.28
2857.59
2736.09
2705.85
2736.57
2793.56
2843.47
2859.58
2826.18
2740.97
2615.36
2472.07
2340.06
2247.54
2214.72
2249.12
2345.88
2493.51
2682.14
2908.58
3174
3476.66
3808.6
4162.77
4540.28
4929.73
5258.46
5448.28
5610.19
3546.13
3374.94
3121.04
2877.27
2599.78
2365.25
2167.68
2047.53
2012.31
2018.32
2018.38
1996.87
1966.82
1949.22
1956.75
1990.56
2047.28
2127.27
2236.45
2380.77
2558.86
2759.36
2964.41
3156.14
3321.49
3453.06
3546.95
3600.48
3612.04
3582.71
3517.3
3423.1
3306.64
3171
3015.77
2839.46
2642.53
2429.04
2206.55
1985.16
1776.8
1594.92
1453.88
1367.87
1349.2
1406.56
1543.92
1760.12
2049.15
2401.01
2802.73
3239.45
3695.18
4153.33
4597.02
5009.36
5373.79
5674.69
5897.88
6031.3
6065.9
5996.71
5824.17
5555.33
5204.47
4792.7
4346.53
3895.48
3469.12
3093.95
2790.42
2570.35
2435.35
2376.4
2375.18
2407.11
2445.57
2466.73
2453.78
2399.92
2309.51
2197.13
2084.58
1995.91
1951.19
1960.64
2021.82
2122.17
2247.03
2388.96
2551.88
2745.57
2974.33
3231.59
3508.11
3803.75
4116.2
4390.15
4553.83
4659.46
3370.12
3211.96
2931.36
2653.93
2314.93
2014.11
1760.55
1605.98
1571.8
1618.01
1687.71
1748.44
1796.67
1841.47
1888.88
1936.27
1976.7
2007.17
2033.11
2065.57
2113.8
2179.28
2255.22
2330.92
2396.95
2447.85
2481.24
2495.59
2489.28
2461.88
2416.09
2357.85
2293.8
2228.14
2161.21
2090.85
2015.12
1934.25
1850.94
1769.53
1695.31
1634.24
1592.91
1578.05
1595.42
1648.65
1738.45
1862.38
2015.27
2190.04
2378.68
2573.18
2766.13
2950.95
3121.77
3273.11
3399.7
3496.47
3558.7
3582.26
3563.93
3501.94
3396.71
3251.7
3073.97
2874.17
2665.71
2463.23
2280.77
2129.97
2018.5
1949
1918.5
1918.6
1936.46
1956.91
1965.28
1950.47
1907.58
1839.28
1755.55
1671.88
1606.06
1573.82
1584.17
1635.76
1716.57
1808.75
1898.01
1982.59
2074.98
2193.05
2346.18
2528.66
2726.26
2928.22
3133.28
3322.59
3452.97
3524.18
3209.31
3064.92
2769.1
2458.22
2046.16
1654.61
1319.6
1106.53
1051.19
1121.94
1257.78
1411
1557.89
1689.36
1799.48
1879.67
1919.84
1914.42
1867.71
1793.6
1709.62
1629.52
1559.43
1498.98
1445.6
1398.14
1357.59
1325.32
1301.37
1284.84
1275.82
1276.68
1290.89
1320.35
1363.4
1415.21
1469.97
1523.01
1571.51
1614.04
1649.87
1678.85
1701.59
1719.44
1733.85
1745.6
1754.04
1757.04
1751.34
1733.29
1699.75
1648.93
1580.97
1498.11
1404.29
1304.52
1204.09
1108.02
1020.73
945.848
886.044
842.958
817.311
809.234
818.69
845.709
890.244
951.637
1027.95
1115.49
1208.82
1301.12
1384.91
1452.82
1498.33
1516.64
1505.68
1467.01
1406.47
1334.02
1262.51
1205.55
1174.66
1176.17
1208.42
1260.65
1315.09
1353.61
1367.33
1364.05
1367.18
1404.06
1491.03
1625.8
1788.17
1944.52
2072.36
2186.43
2288.11
2345.44
3038.17
2920.65
2627.14
2282.53
1803.83
1326.65
914.594
644.402
563.011
649.181
843.403
1087.04
1336.5
1561.6
1741.07
1858.98
1903.29
1867.99
1757.04
1585.82
1377.49
1156.11
940.607
742.69
568.843
423.772
312.314
238.738
204.939
209.9
251.144
326.573
434.641
572.606
734.644
911.727
1093.42
1270.08
1433.92
1578.76
1699.31
1790.96
1850.11
1874.45
1862.83
1814.6
1729.1
1605.47
1443
1241.78
1003.45
731.903
433.818
118.739
-201.32
-512.792
-801.728
-1054.9
-1260.64
-1409.45
-1494.46
-1511.89
-1461.35
-1345.94
-1171.98
-948.539
-686.944
-400.39
-103.566
187.942
458.679
694.8
885.698
1025.34
1112.91
1152.59
1152.73
1124.56
1080.79
1034.09
995.617
973.316
970.376
983.79
1003.64
1014.09
997.302
940.732
845.61
731.535
632.059
581.535
601.512
694.756
840.555
985.4
1073.94
1136.96
1216.01
1265.74
2867.1
2779.94
2508.92
2138.81
1612.24
1071.74
604.168
292.989
190.685
285.231
522.71
839.745
1177.79
1487.43
1731.4
1885.25
1935.12
1876.07
1713.13
1462.76
1151.43
810.476
469.52
151.956
-125.885
-352.682
-519.834
-621.038
-653.514
-618.869
-522.162
-369.901
-168.967
72.5829
343.976
631.414
919.691
1194.6
1444.39
1659.74
1832.79
1956.6
2025.31
2034.66
1982.21
1867.07
1689.4
1450.28
1151.94
798.33
395.639
-47.1891
-518.188
-1002.37
-1482.15
-1938.33
-2351.47
-2703.3
-2978.04
-3163.24
-3250.42
-3235.61
-3119.75
-2908.92
-2614.21
-2251.08
-1838.39
-1397.32
-950.138
-518.952
-124.223
217.09
493.482
700.497
841.332
926.044
969.349
987.528
995.202
1002.76
1014.9
1030.34
1042.33
1039.6
1007.66
931.401
799.727
612.366
385.947
154.659
-38.0906
-154.519
-174.311
-97.0355
52.8499
207.252
282.07
312.123
368.693
406.196
2657.71
2605.88
2379.75
2008.63
1471.68
910.021
424.846
100.538
-10.6724
85.8076
344.028
702.353
1095.34
1460.96
1749.16
1927.37
1979.63
1902.71
1703.88
1400.98
1021.92
601.578
176.208
-222.148
-568.812
-846.421
-1043.22
-1151.96
-1170.32
-1101.47
-953.294
-736.267
-461.72
-141.908
208.685
572.745
931.462
1267.12
1565.15
1814.39
2006.08
2132.75
2187.92
2166.63
2066.02
1885.43
1626.28
1291.89
887.614
421.277
-96.5141
-652.242
-1229.59
-1809.78
-2372.14
-2895.02
-3357.19
-3739.28
-4025.19
-4203.09
-4265.93
-4211.78
-4043.99
-3771.28
-3407.56
-2971.31
-2484.47
-1970.86
-1454.62
-958.648
-503.07
-103.741
229.367
493.52
693.763
842.002
954.338
1046.98
1131.76
1212.69
1284.72
1334.99
1346.12
1300
1181.3
980.983
700.521
356.921
-14.261
-362.151
-632.331
-783.57
-799.943
-692.005
-498.877
-305.834
-219.067
-205.46
-173.212
-154.254
2355.27
2343.87
2179.81
1843.66
1351.27
830.488
382.794
85.7353
-13.8817
82.5117
337.94
697.879
1098.86
1475.71
1772.52
1951.63
1995.42
1902.38
1682.7
1356.09
950.862
502.051
47.5161
-377.187
-743.005
-1029.04
-1221.9
-1314.63
-1306.47
-1202.96
-1015.04
-756.537
-441.775
-84.9291
298.738
691.608
1074.23
1427.64
1735.91
1987.04
2172.14
2283.98
2316.11
2263.2
2121.84
1891.24
1573.54
1173.85
700.301
164.348
-419.221
-1032.56
-1655.44
-2266.14
-2842.42
-3362.58
-3806.6
-4157.51
-4402.51
-4533.77
-4548.7
-4449.67
-4243.7
-3942.05
-3559.85
-3115.5
-2629.69
-2123.94
-1619.06
-1133.58
-682.683
-277.292
76.5588
378.338
633.23
851.396
1045.66
1227.56
1402.49
1565.77
1701.41
1784.66
1787.88
1687.43
1469.61
1134.7
699.733
200.455
-309.238
-763.459
-1097.36
-1264.16
-1249.23
-1075.29
-803.678
-542.374
-416.15
-398.835
-387.255
-387.057
1935.41
1963.1
1868.68
1605.69
1220.29
813.001
467.759
245.658
183.613
282.355
514.347
836.027
1193.72
1529.32
1790.18
1939.1
1958.51
1848.32
1621.24
1298.78
908.922
484.369
59.9829
-330.966
-660.626
-908.837
-1063.31
-1118.81
-1076.7
-944.884
-736.707
-468.236
-155.028
189.377
552.416
920.332
1277.2
1606.23
1892.14
2122.87
2289.34
2384.1
2400.17
2331.07
2171.8
1920.22
1577.89
1150.55
648.308
85.6172
-518.916
-1143.3
-1763.47
-2354.91
-2894.3
-3360.87
-3737.62
-4012.24
-4177.84
-4233.25
-4182.68
-4034.85
-3801.75
-3497.6
-3137.89
-2738.85
-2316.73
-1886.92
-1462.87
-1055.01
-670.18
-311.596
20.7042
329.32
619.014
896.082
1166.9
1435.06
1697.36
1939.9
2136.81
2253.29
2253.19
2108.62
1808.34
1362.41
803.081
182.779
-430.712
-962.521
-1342.21
-1517.64
-1470.14
-1227.67
-870.983
-530.208
-344.984
-302.358
-299.361
-309.279
1417.57
1475.45
1452.14
1296.96
1076.55
851.813
671.347
569.653
570.079
674.869
866.61
1115.28
1382.76
1626.68
1807.03
1894.04
1873.24
1745.84
1525.46
1233.94
897.707
545.253
205.071
-96.7708
-339.194
-507.805
-595.001
-599.121
-523.908
-378.531
-176.917
64.8142
332.07
614.315
904.602
1196.71
1482.39
1750.68
1989.48
2187.45
2334.74
2422.37
2441.22
2382.03
2236.63
1999.78
1670.87
1254.95
763.016
211.892
-376.406
-975.927
-1558.74
-2097.36
-2567.2
-2948.55
-3227.89
-3398.6
-3461.06
-3422.25
-3294.69
-3094.71
-2840.39
-2549.5
-2237.94
-1918.89
-1602.49
-1295.73
-1002.27
-722.295
-452.613
-187.368
80.5459
357.802
649.232
956.985
1279.92
1612.39
1941.97
2246.52
2493.02
2640.27
2646.82
2482.18
2137.17
1629.57
1003.45
323.186
-335.967
-898.158
-1295.35
-1474.61
-1410.76
-1127.59
-713.408
-310.038
-63.3869
21.2762
33.6321
28.5898
851.222
927.53
976.417
957.128
945.411
955.43
987.133
1040.05
1121.27
1234.78
1374.41
1525.35
1668.2
1781.86
1846.14
1845.37
1772.24
1629.77
1430.65
1194.34
943.455
700.448
485.321
313.891
196.498
137.561
136.436
189.039
288.871
426.872
591.235
768.95
949.222
1126.7
1301.93
1478.43
1658.39
1839.78
2015.97
2177.36
2312.8
2410.13
2456.07
2436.58
2338.38
2151.44
1871.44
1501.41
1052.36
542.922
-1.74531
-551.84
-1075.53
-1542.16
-1925.52
-2206.5
-2374.83
-2429.55
-2378.56
-2237.41
-2027.3
-1772.64
-1498.01
-1225.28
-971.227
-746.243
-554.165
-392.957
-255.748
-131.872
-7.91863
130.879
298.665
506.533
760.282
1059.1
1395.37
1755.07
2117.55
2454.53
2729.3
2898.86
2920.8
2764.28
2421.39
1913.75
1291.34
623.738
-13.3425
-550.42
-929.717
-1104.49
-1045.36
-765.365
-345.508
78.5001
369.035
501.529
540.839
556.53
296.442
383.024
506.406
641.433
860.499
1130.63
1397.8
1622.19
1793.16
1916.86
1999.47
2042.27
2045.23
2010.01
1939.38
1836.19
1704.06
1549.48
1383.17
1219.62
1074.75
962.969
894.523
873.891
899.167
962.733
1053.42
1159.51
1270.94
1379.56
1478.13
1560.09
1621.65
1664.8
1698.54
1736.63
1792.58
1874.65
1983.4
2111.94
2247.68
2374.09
2471.86
2520.22
2499.1
2392.17
2190.05
1892.66
1510.21
1062.73
578.328
90.6751
-364.419
-752.918
-1046.57
-1226.28
-1284.25
-1224.48
-1061.82
-819.847
-528.062
-218.465
78.0988
335.579
535.757
670.1
740.028
755.701
733.844
695.307
662.806
658.829
703.399
811.492
990.466
1238.32
1543.53
1886.33
2240.48
2574.27
2850.89
3029.94
3072.5
2950.23
2656
2210.87
1663.41
1080.05
529.697
69.8122
-257.351
-417.393
-381.855
-151.347
213.044
601.036
901.048
1072.97
1149.8
1197.1
-185.533
-89.5665
109.299
403.142
848.834
1371.82
1868.39
2260.52
2519.96
2654.84
2683.92
2624.53
2494.63
2316.24
2113.58
1908.43
1717.47
1552.74
1423.66
1338.59
1304.75
1326.69
1404.26
1530.93
1693.33
1872.38
2046.28
2194.96
2303.89
2365.6
2378.41
2344.6
2270.12
2166.24
2050.94
1947.45
1879.53
1865.37
1913.03
2019.08
2169.81
2343.84
2514.79
2653.89
2733.06
2728.61
2625.15
2418.57
2117.53
1742.87
1325.45
902.761
514.698
198.917
-13.8358
-103.71
-64.324
96.5782
358.431
690.698
1056.67
1417.7
1737.5
1986.2
2143.83
2202.57
2167.32
2054.35
1888.33
1698.7
1516
1368.89
1281.73
1272.21
1349.19
1510.98
1745.04
2029.55
2336.29
2633.34
2886.85
3062.41
3128.14
3060.9
2854.57
2526.2
2115.9
1678.37
1268.37
926.943
678.5
541.806
539.348
680.988
933.079
1226.29
1491.46
1680.72
1793.97
1874.59
-533.135
-422.658
-152.071
287.574
927.993
1663.02
2352.32
2887
3223.34
3370.25
3357.62
3217.35
2982.38
2690.13
2380.63
2090.76
1849.3
1675.21
1578.61
1562.91
1626.66
1764.2
1965.09
2213.03
2485.44
2754.41
2989.74
3164
3257.95
3263.69
3184.36
3031.28
2821.37
2576.42
2323.45
2093.83
1919.35
1826.12
1828.79
1927.43
2107.8
2344.13
2603.02
2847.43
3040.92
3152.13
3159.17
3053.32
2840.86
2542.7
2191.84
1829.22
1498.74
1241.8
1092.08
1071.05
1184.95
1423.93
1763.4
2167.51
2593.75
2998.06
3339.74
3585.82
3714.6
3718.06
3602.66
3388.16
3104.51
2787.33
2473.21
2195.59
1981.81
1851.19
1813.52
1868.1
2003.63
2199.68
2429.83
2665.23
2877.41
3039.82
3129.54
3130.41
3038.03
2863.71
2634.39
2386.26
2153.53
1957.43
1804.08
1696.16
1646.95
1673.26
1771.15
1920.63
2105.67
2280.51
2416.32
2521.38
-688.323
-556.907
-225.279
328.769
1106.63
1983.39
2801.29
3433.44
3825.17
3984.44
3948.5
3760.32
3463.56
3104.68
2731.75
2389.6
2114.83
1932.72
1856.16
1886.73
2017.01
2233.06
2515.75
2841.08
3180.16
3499.86
3765.28
3944.4
4014.09
3964.94
3802.65
3545.48
3220.14
2858.52
2496.14
2170.93
1920.14
1775.01
1754.82
1862.58
2084.13
2390.54
2742.55
3095.83
3406.34
3635.55
3755.41
3752.35
3629.66
3407.26
3119.19
2808.92
2523.67
2308.31
2199.6
2221.29
2380.81
2668.04
3056.55
3507.27
3973.67
4407.73
4765.45
5011.56
5122.98
5091.07
4922.36
4637.63
4269.05
3855.6
3437.71
3052.24
2728.76
2487.52
2338.73
2282.59
2309.98
2404.05
2543.13
2704.16
2865.77
3009.95
3122.79
3195.41
3225.61
3219.03
3188.01
3147.17
3106.65
3065.98
3013.6
2937.25
2839.74
2741.28
2665.48
2642.02
2710.25
2836.13
2970.6
3082.14
-608.924
-453.732
-79.7321
541.358
1380.12
2307.39
3169.77
3838.66
4255.56
4425.96
4388.87
4192.41
3885.31
3516.46
3133.9
2782.09
2498.95
2313.04
2240.9
2285.82
2439.04
2682.68
2992.59
3340.25
3693.66
4018.17
4278.17
4440.64
4480.61
4386.79
4164.7
3835.68
3432.6
2994.88
2564.75
2184.83
1895.34
1729.9
1710.09
1840.91
2108.85
2483.49
2921.93
3374.69
3791.98
4129.63
4354.47
4448.52
4411.7
4261.93
4032.75
3768.54
3518.42
3329.67
3241.6
3280.41
3455.61
3758.56
4163.31
4630.08
5110.68
5554.88
5916.66
6159.34
6259.03
6206.54
6007.81
5682.91
5263.6
4789.22
4301.48
3839.01
3432.94
3104.29
2863.43
2711.06
2639.95
2637.25
2687.22
2774.15
2884.75
3009.38
3142.1
3280.11
3423.17
3572.23
3726.67
3880.94
4021.94
4128.3
4172.43
4129.04
3990.4
3776.94
3534.62
3335.59
3267.75
3315.91
3421.06
3516.41
-282.559
-107.378
281.777
911.2
1723.9
2601.09
3414.55
4050.87
4456.45
4634
4618.17
4454.38
4189.25
3867.54
3530.39
3214.51
2952.32
2771.09
2689.94
2716.34
2845.06
3060.03
3337.51
3648.97
3963.04
4246.86
4467.49
4594.27
4602.94
4480.85
4231.25
3874.17
3443.46
2981.43
2533.62
2144.82
1855.96
1700.62
1700.7
1862.19
2172.79
2602.59
3107.9
3637.17
4137.72
4562.14
4873.89
5051.64
5092.02
5010.09
4837.21
4616.59
4397.12
4226.61
4145.51
4181.73
4347.01
4635.24
5023.04
5472.6
5936.79
6365.55
6712.52
6940.66
7026
6959.32
6746.09
6405.11
5966.14
5466.41
4946.24
4443.9
3990.94
3608.9
3308.33
3089.97
2947.48
2870.77
2849.2
2874.17
2940.48
3046.33
3192.32
3380
3610.16
3880.1
4179.75
4488.49
4775.25
5002.06
5128.63
5119.02
4955.47
4655.82
4281.13
3933.25
3733.98
3689.83
3741.52
3799.65
267.501
451.231
820.257
1393.52
2092.64
2822.17
3496.14
4030.64
4385.74
4562.82
4587.08
4492.91
4316.61
4092.23
3848.74
3610.02
3397.74
3233.34
3136.04
3118.08
3181.15
3316.32
3506.21
3727.81
3954.71
4159
4312.85
4390.28
4369.85
4238.65
3996.58
3658.77
3254.67
2823.8
2410.22
2057.51
1804.95
1684.24
1716.12
1906.94
2246.25
2706.75
3247.18
3817.6
4365.98
4844.67
5216.11
5457.11
5561.54
5541
5423.17
5247.78
5060.94
4908.53
4830.02
4853.39
4991.74
5241.66
5583.52
5983.79
6399.25
6782.86
7090.21
7285.42
7345.38
7261.52
7039.52
6697.34
6262.47
5768.84
5253.21
4751.11
4292.64
3898.96
3580.51
3337.68
3163.78
3049.29
2986.16
2970.74
3004.52
3092.63
3241.18
3454.74
3734.23
4074.3
4459.47
4861.09
5238.52
5544.78
5732.15
5757.12
5592.79
5251.77
4801.93
4359.12
4059.15
3928.41
3914.15
3922.43
986.764
1160.61
1469.05
1922.08
2429.19
2927.7
3385.6
3757.82
4024.86
4189.65
4265.33
4268.46
4217.05
4128.11
4014.45
3884.44
3746.3
3612.56
3499.92
3424.31
3395.51
3414.94
3476.34
3567.44
3671.42
3768.61
3838.19
3860.01
3816.49
3695.28
3492.71
3216.9
2888.63
2539.21
2206.02
1927.43
1738.45
1667.36
1732.89
1941.55
2285.58
2742.38
3276.33
3842.98
4394.77
4887.23
5284.41
5563
5714.87
5747.89
5684.68
5559.37
5412.61
5285.63
5214.39
5224.87
5329.9
5527.91
5803.2
6127.81
6464.88
6773.31
7013.44
7152.71
7170.13
7058.6
6824.72
6486.5
6070.01
5605.99
5126.7
4662.99
4241.27
3880.5
3590.01
3369.21
3209.91
3100.87
3033.22
3004.66
3020.45
3091.01
3227.34
3436.76
3720.42
4071.55
4473.18
4895.91
5299.1
5636.09
5858.65
5919.62
5784.18
5457.25
5004.96
4541.1
4194.19
4004.38
3928.79
3887.92
1799.46
1940.56
2148.75
2425.12
2679.67
2887.05
3074.86
3240.33
3387.51
3524.05
3651.55
3765.31
3859.28
3928.27
3965.96
3964.24
3917.33
3827.76
3708
3576
3448.81
3338.75
3252.73
3192.54
3154.88
3131.56
3110.65
3078.4
3021.08
2926.99
2788.95
2607.18
2391.38
2160.69
1941.3
1762.41
1652.11
1633.84
1723.87
1929.15
2245.56
2657.14
3136.84
3649.28
4155.24
4616.81
5002.35
5290.22
5471.21
5549.29
5540.93
5472.65
5377.15
5288.3
5236.07
5242.2
5317.49
5460.78
5659.55
5891.66
6127.95
6335.71
6482.93
6542.94
6498.71
6345.55
6091.53
5755.39
5362.84
4942.48
4522.46
4128.16
3780.38
3493.64
3274.34
3119.79
3019.3
2958.07
2923.28
2909.74
2922.53
2974.73
3081.44
3253.46
3493.56
3795.71
4145.08
4517.89
4882.32
5201.32
5433.68
5533.2
5458.79
5205.27
4828.84
4426.82
4101.33
3897.74
3783.51
3708.75
2619.26
2704.92
2782.01
2841.23
2808.2
2693.98
2585.69
2520.74
2525.56
2614.71
2781.51
3000.87
3241.04
3472.04
3666.97
3801.17
3855.43
3822.43
3709.73
3535.96
3323.74
3094.65
2867.79
2659.4
2481.41
2339.57
2232.83
2154.51
2094.48
2041.16
1983.68
1914.28
1830.77
1738.23
1648.72
1579.22
1548.51
1574.03
1669.34
1842.29
2093.46
2415.15
2791.26
3198.52
3609.31
3995.45
4332.11
4601.1
4792.93
4907.74
4954.92
4951.74
4920.62
4885.64
4868.41
4884.52
4941.13
5036.18
5159.26
5293.39
5417.36
5508.15
5543.66
5505.79
5383.66
5176.27
4893.57
4555.15
4186.86
3816.22
3468.44
3163.82
2916.8
2735.56
2621.47
2568.16
2561.47
2582.02
2610.86
2636.42
2659.32
2691.84
2751.8
2854.34
3006.26
3205.25
3442.25
3703.96
3974.12
4232.99
4453.26
4594.66
4611.94
4487.71
4260.58
3999.77
3766.82
3603.44
3487.21
3404.95
3359.91
3373.23
3304.75
3130.37
2806.13
2373.38
1973.21
1676.99
1528.63
1550.13
1731.13
2031.26
2396.24
2772.9
3114.7
3381.32
3540.83
3576.2
3489.54
3299.12
3031.44
2714.85
2377.6
2047.66
1751
1507.8
1329.29
1217.08
1164.83
1160.76
1190.04
1237.11
1288.34
1334.56
1372.73
1406
1442.32
1492.15
1566.29
1673.98
1821.4
2010.34
2237.28
2493.2
2764.52
3035.24
3289.45
3513.91
3699.74
3843.36
3946.64
4016.27
4062.66
4097.88
4133.19
4176.36
4229.74
4289.57
4346.68
4388.45
4400.95
4370.9
4287.16
4142.09
3933.13
3664.56
3348.75
3005.84
2661.38
2342.07
2071.12
1864.95
1732.05
1673.59
1684.3
1752.55
1859.9
1982.07
2093.31
2173.63
2215.79
2227.61
2227.39
2234.83
2263.22
2317.32
2397.14
2503.15
2638.59
2805.88
2996.97
3182.32
3315.49
3365.47
3346.45
3290.97
3211.86
3139.92
3063.75
3004.33
3946.79
3881.35
3673.78
3278.9
2694.17
1980.47
1322.21
816.021
516.291
451.338
612.013
950.382
1397.23
1882.34
2343.86
2728.46
2992.37
3108.07
3070.59
2896.07
2613.22
2254.88
1854.96
1448.76
1072.3
758.016
529.373
397.375
360.6
407.563
519.731
674.381
847.477
1016.78
1164.8
1280.85
1361.54
1409.95
1434
1444.71
1454.44
1475.16
1516.72
1585.36
1682.94
1807.07
1952.23
2111.23
2276.55
2441.28
2599.67
2747.41
2881.78
3001.39
3105.5
3192.74
3259.84
3300.92
3307.9
3271.99
3185.69
3044.5
2847.86
2599.12
2305.36
1977.58
1631.33
1287.04
968.925
701.936
507.351
398.705
379.823
445.475
583.433
775.965
999.877
1226.44
1423.84
1563.59
1628.82
1619.85
1552.66
1450.66
1335.02
1220.46
1118.61
1045.24
1023.9
1080.69
1229.64
1456.32
1717.12
1967.69
2192.67
2382.05
2497.76
2554.93
2556.01
2545.41
4328.42
4190.4
3871.19
3299.42
2517.93
1592.91
736.64
60.9554
-376.415
-542.612
-441.139
-118.887
350.124
888.209
1426.1
1902.67
2264.26
2471.65
2509.46
2388.06
2135.65
1787.57
1380.67
953.358
546.485
200.366
-51.5483
-188.731
-206.241
-113.629
68.2355
310.776
581.221
846.248
1075.81
1246.61
1344.51
1365.24
1313.87
1203.18
1051.78
881.807
716.392
576.986
480.953
439.949
459.353
538.612
672.092
850.054
1059.61
1285.81
1512.86
1725.56
1910.33
2055.72
2152.23
2191.78
2167.59
2074.76
1911.69
1681.46
1392.52
1058.11
694.733
320.734
-44.4723
-380.253
-664.765
-876.333
-996.68
-1015
-930.854
-754.254
-503.308
-201.416
123.904
440.606
712.774
905.144
991.535
963.044
830.537
618.954
357.254
71.4795
-213.72
-467.621
-648.384
-708.503
-611.924
-354.867
27.0497
479.155
954.446
1397.62
1722.11
1925.35
2026.95
2080.3
4484.98
4291.9
3905.08
3225.84
2338.02
1297.04
323.363
-466.724
-1018.06
-1294.36
-1289.43
-1040.99
-617.575
-93.5553
464.309
994.863
1438.84
1745.15
1883.94
1854.07
1678.38
1391.85
1032.43
638.914
252.593
-83.5094
-329.919
-458.127
-455.983
-328.948
-97.7808
205.435
541.59
868.864
1147.24
1343.04
1432.71
1405.24
1262.71
1019.3
699.249
334.012
-41.0568
-390.461
-682.348
-891.761
-1002.78
-1009.37
-915.05
-731.875
-478.977
-180.785
135.165
440.813
710.239
921.849
1059.58
1113.03
1076.94
950.745
738.698
450.481
101.628
-287.096
-691.627
-1087.24
-1450.72
-1761.21
-1999.91
-2149.89
-2197.49
-2135.41
-1965.9
-1701.95
-1365.43
-983.615
-586.869
-208.574
114.102
342.395
442.998
397.783
210.221
-96.222
-486.93
-925.028
-1373.16
-1787.56
-2112.52
-2284.52
-2248.97
-1982.73
-1507.9
-883.328
-185.04
487.674
1005.76
1348.91
1555.42
1674.26
4430.23
4207.04
3805.71
3104.58
2216.4
1170.29
172.405
-667.782
-1301.84
-1689.78
-1811.58
-1688.72
-1375.56
-933.848
-418.538
118.001
617.646
1020.12
1278.59
1374.06
1316.98
1137.14
871.397
557.735
235.546
-53.404
-268.004
-374.69
-354.583
-207.345
49.2506
382.782
750.925
1106.48
1402.53
1597.68
1660.96
1575.49
1340.31
970.17
493.543
-50.5338
-616.539
-1157.13
-1628.07
-1992.81
-2226.06
-2315.74
-2263.31
-2082.63
-1798
-1441.55
-1050.32
-662.834
-315.354
-38.4367
145.677
224.174
193.271
56.887
-174.731
-485.815
-855.397
-1257.91
-1664.85
-2047.62
-2380.62
-2643.23
-2820
-2899.65
-2874.54
-2742.06
-2507.19
-2184.46
-1797.04
-1373.54
-944.702
-542.638
-202.292
38.2623
142.438
84.5914
-140.38
-513.982
-999.722
-1552.74
-2125.03
-2663.04
-3102.86
-3372.49
-3405.12
-3160.01
-2641.16
-1903.03
-1042.66
-196.508
472.967
928.984
1225.87
1399.67
4205.46
3979.49
3617.15
2982.83
2201.34
1262.85
336.65
-485.893
-1165.91
-1658.32
-1925.04
-1965.27
-1812.7
-1510.53
-1095.88
-605.355
-88.1845
392.22
773.532
1014.84
1106.92
1067.5
928.604
726.387
497.975
282.168
118.548
42.4765
77.8513
231.338
490.506
825.887
1195.46
1550.08
1839.22
2016.75
2046.47
1906.85
1593.84
1121.6
520.877
-164.306
-881.241
-1573.9
-2188.7
-2680.06
-3015.11
-3176.69
-3164.3
-2993.04
-2691.09
-2296.32
-1852.47
-1405.2
-997.848
-667.319
-440.566
-332.491
-345.761
-472.427
-696.538
-996.637
-1347.44
-1720.89
-2087.32
-2417.77
-2686.9
-2875.76
-2972.68
-2972.26
-2873.59
-2679.58
-2398.35
-2045.05
-1642.13
-1216.77
-797.353
-411.91
-89.6871
136.492
231.545
165.733
-74.415
-478.425
-1013.01
-1630.18
-2275.4
-2889.43
-3406.08
-3752.74
-3858.45
-3669.39
-3169.55
-2400.01
-1466.13
-528.674
228.946
755.377
1113.74
1324.15
3867.14
3663.25
3385.66
2896.2
2313.88
1582.49
815.275
75.4635
-609.752
-1189.04
-1602.89
-1823.22
-1858.57
-1731.12
-1458.98
-1060.46
-570.159
-46.697
438.339
823.249
1074.76
1191.72
1195.87
1119.35
997.194
865.546
761.335
719.389
766.454
914.813
1158.55
1473.73
1821.88
2155.32
2423.13
2577.33
2578.83
2402.74
2042
1508.97
834.333
63.9759
-745.865
-1534.37
-2242.38
-2818.57
-3224.82
-3440.08
-3461.97
-3306.01
-3002.73
-2593.53
-2126.03
-1649.48
-1210.4
-848.39
-592.52
-458.664
-448.64
-551.518
-746.759
-1008.08
-1306.77
-1613.77
-1900.86
-2141.99
-2315.33
-2405.8
-2406.41
-2317.67
-2145.22
-1897.72
-1586.51
-1226.92
-839.075
-446.518
-72.9229
260.089
531.781
718.484
791.654
721.96
489.654
95.2722
-436.155
-1060.04
-1721.04
-2359.28
-2911.58
-3311.44
-3491.47
-3391.31
-2976.41
-2267.63
-1363.83
-432.152
338.539
885.134
1268.54
1494.83
3472.12
3309.12
3147.72
2858.53
2539.35
2086.86
1545.89
944.762
297.466
-339.055
-883.118
-1276.5
-1499.63
-1553.46
-1440.11
-1162.61
-739.886
-219.247
327.771
825.762
1218.92
1483.6
1625.93
1670.46
1649.43
1597.23
1548.69
1537.29
1590.88
1725.95
1942.96
2224.87
2539.13
2842.3
3085.91
3222.73
3212.88
3029.41
2662.46
2121.48
1434.81
646.947
-186.224
-1003.3
-1743.74
-2354.16
-2793.99
-3039.77
-3087.3
-2951.37
-2662.96
-2264.6
-1804.98
-1333.75
-896.919
-533.024
-270.003
-122.753
-91.9799
-164.951
-318.379
-522.839
-747.374
-962.921
-1144.09
-1269.93
-1324.79
-1299.71
-1193.64
-1013.04
-769.595
-477.135
-149.917
197.076
547.019
881.599
1183.44
1438.66
1636.38
1764.57
1805.21
1734.32
1529.47
1181.58
703.468
129.862
-490.225
-1101.98
-1649.84
-2077.94
-2328.19
-2340.37
-2065.91
-1502.59
-729.357
99.9993
808.908
1325.75
1697.95
1921.04
3065.29
2953.59
2921.11
2856.79
2826.64
2686.56
2409.48
1987.47
1421.05
769.546
132.989
-401.253
-784.514
-997.326
-1030.58
-879.026
-550.375
-78.4628
473.944
1028.81
1515.78
1890.98
2142.54
2283.86
2342.43
2351.01
2343.32
2351.78
2404.44
2520.52
2705.82
2950.2
3228.2
3502.52
3729.23
3863.89
3867.58
3712.44
3386.04
2894.09
2260.62
1525.79
741.537
-34.1396
-743.355
-1334.44
-1767.37
-2018.01
-2080.62
-1968.06
-1709.5
-1345.92
-924.346
-492.095
-91.8466
241.928
485.377
626.835
667.598
621.454
512.454
370.841
228.041
112.167
45.2982
42.6143
112.457
256.243
468.177
735.747
1041.92
1368.52
1699.04
2019.33
2316.55
2578.52
2795.04
2960.14
3072.69
3132.52
3134.24
3063.18
2898.82
2624.96
2241.1
1766.93
1238.45
699.095
192.786
-237.853
-546.815
-678.973
-577.834
-219.62
345.408
994.324
1579.49
2025.22
2356.22
2560.7
2673.16
2613.64
2701.82
2853.22
3096.53
3259.74
3249.46
3026.43
2579.96
1966.55
1295.57
676.732
185.149
-140.722
-284.561
-240.433
-12.6388
375.449
874.715
1415.52
1925.18
2347.89
2656.51
2852
2954.87
2995.17
3005.7
3018.16
3060.47
3153.28
3306.25
3515.22
3761.82
4015.64
4238.65
4390.63
4434.9
4343.6
4102.07
3711.69
3190.68
2572.55
1902.33
1231.37
611.524
89.5067
-297.986
-528.077
-594.091
-506.113
-289.39
19.45
377.787
742.945
1077.41
1352.48
1550.13
1663.62
1697.33
1665.99
1592.95
1507.03
1437.98
1411.78
1447.13
1554.01
1733.98
1981.18
2283.03
2621.34
2974.47
3320.77
3642.05
3925.24
4161.62
4345.49
4473.95
4548.61
4576.57
4568
4529.63
4458.19
4339.1
4153.51
3889.35
3549.65
3152.39
2724.23
2293.45
1888.19
1541.93
1302.29
1228.07
1359.68
1678.33
2102.6
2526.51
2874.4
3144.88
3318.19
2305.56
2289.13
2468.8
2795.05
3258.11
3675.8
3901.43
3874.7
3579.05
3062.95
2432.13
1805.65
1276.91
899.949
695.83
666.394
803.49
1088.39
1485.61
1941.46
2393.17
2785.02
3082.23
3275.85
3378.53
3415.96
3418.92
3418.02
3440.38
3506.93
3629.5
3808.38
4031.36
4274.91
4507.4
4693.76
4800.5
4800.59
4677.51
4428.17
4064.05
3610.4
3103.3
2585.15
2099.46
1685.74
1375.27
1187.94
1130.45
1195.68
1363.71
1604.57
1882.58
2161.67
2410.63
2606.91
2738.49
2803.9
2811.07
2775.86
2720.35
2670.43
2652.46
2689.09
2795.67
2978.19
3233.33
3549.73
3909.6
4290.33
4666.76
5014.61
5314.28
5553.34
5726.52
5833.92
5879.62
5871.9
5824.4
5754.8
5679.66
5606.56
5529.58
5431.7
5294.08
5104.97
4863.37
4575.72
4251.66
3903.67
3553.43
3240.66
3022.39
2949.57
3031.45
3230.49
3486.7
3728.74
3930.9
4063.04
1963.79
1972.12
2195.75
2630.51
3230
3822.74
4226.45
4372.8
4246.94
3886.02
3378.46
2835.28
2354.13
1997.17
1788.07
1723.47
1788.29
1963.58
2224.76
2536.91
2856.05
3138.27
3351.48
3482.74
3538.41
3538.66
3510.43
3481.6
3477.18
3516.81
3612.64
3767.52
3973.94
4214.51
4464.03
4693.1
4872.26
4976.15
4987.12
4897.94
4713.19
4449.11
4131.69
3793.09
3467.24
3185.38
2972.3
2843.91
2805.97
2853.84
2973.28
3142.15
3333.38
3519.08
3674.95
3784.18
3839.6
3843.78
3807.51
3747.6
3684.77
3641.69
3640.55
3700.19
3832.83
4041.99
4321.91
4658.67
5031.97
5417.06
5787.02
6115.94
6382.86
6574.98
6688.58
6727.72
6701.87
6624.92
6515.31
6395.75
6289.24
6212.15
6167.43
6143.73
6120.81
6077.88
5997.94
5867.9
5677.47
5422.62
5113.39
4781.77
4480.66
4265.36
4166.31
4182.97
4297.48
4444.54
4581.78
4666.77
1652.23
1659.78
1867.26
2327.43
2961.9
3631.33
4138.66
4419.58
4468.48
4310.44
4005.7
3639.65
3296.36
3034
2874.49
2810.34
2821.1
2886.97
2992.05
3119.97
3249.8
3357.82
3424.16
3439.38
3407.15
3342.31
3266.13
3201.41
3168.82
3184.61
3259.13
3395.69
3589.72
3828.79
4093.79
4361.27
4606.59
4807.13
4945.3
5010.74
5001.85
4926.16
4799.35
4642.98
4481.1
4336.52
4227.58
4166.03
4156.19
4195.16
4273.62
4376.98
4487.17
4584.96
4653.22
4680.1
4661.51
4601.83
4512.73
4410.89
4315.57
4246.55
4222.42
4258.65
4365.31
4545.06
4792.34
5093.85
5430.06
5776.99
6108.27
6397.8
6623.49
6770.82
6835.08
6820.93
6740.43
6610.89
6454.16
6295.9
6163.1
6077.95
6051.21
6078.64
6143.81
6223.49
6291.83
6320.87
6282.68
6156.68
5940.65
5658.07
5355.44
5087.65
4897.3
4809.04
4834.38
4914.98
4999.74
5041.02
1387.98
1366.39
1493.96
1890.19
2451.74
3091.82
3621.24
3988.99
4203.03
4277.14
4237.39
4130.08
4008.59
3912.25