/*--------------------------------*- C++ -*----------------------------------*\
| =========                 |                                                 |
| \\      /  F ield         | OpenFOAM: The Open Source CFD Toolbox           |
|  \\    /   O peration     | Version:  2406                                  |
|   \\  /    A nd           | Website:  www.openfoam.com                      |
|    \\/     M anipulation  |                                                 |
\*---------------------------------------------------------------------------*/
FoamFile
{
    version     2.0;
    format      ascii;
    arch        "LSB;label=32;scalar=64";
    class       surfaceScalarField;
    location    "5";
    object      phi;
}
// * * * * * * * * * * * * * * * * * * * * * * * * * * * * * * * * * * * * * //

dimensions      [0 3 -1 0 0 0 0];

oriented        oriented;

internalField   nonuniform List<scalar> 
19800
(
9.20354e-13
3.70695e-13
6.77696e-13
1.0089e-12
1.75074e-12
1.49006e-12
1.96119e-12
1.4582e-12
1.92551e-12
1.54747e-12
1.90971e-12
1.58268e-12
1.6213e-12
1.43958e-12
1.36275e-12
1.16434e-12
1.26502e-12
7.72249e-13
1.16796e-12
3.40699e-13
8.92338e-13
1.74799e-14
4.21862e-13
-8.69689e-14
-1.31323e-13
3.09021e-14
-6.57274e-13
2.92088e-13
-1.13913e-12
6.048e-13
-1.64102e-12
9.20161e-13
-2.21875e-12
1.24315e-12
-2.83963e-12
1.60221e-12
-3.38202e-12
2.0076e-12
-3.70834e-12
2.43241e-12
-3.74512e-12
2.82717e-12
-3.51051e-12
3.15057e-12
-3.08313e-12
3.38976e-12
-2.54976e-12
3.55766e-12
-1.97178e-12
3.67561e-12
-1.38393e-12
3.75823e-12
-8.10699e-13
3.81129e-12
-2.76857e-13
3.83961e-12
2.00283e-13
3.85378e-12
6.28109e-13
3.86651e-12
1.0449e-12
3.8805e-12
1.50256e-12
3.87858e-12
2.03479e-12
3.82668e-12
2.63416e-12
3.6893e-12
3.25398e-12
3.44671e-12
3.82998e-12
3.10199e-12
4.3021e-12
2.67472e-12
4.62104e-12
2.18876e-12
4.74159e-12
1.66449e-12
4.61586e-12
1.12001e-12
4.19751e-12
5.77945e-13
3.45601e-12
7.06411e-14
2.39146e-12
-3.60453e-13
1.04099e-12
-6.70688e-13
-5.25385e-13
-8.19575e-13
-2.21577e-12
-7.76187e-13
-3.92858e-12
-5.21492e-13
-5.56259e-12
-4.86085e-14
-7.02388e-12
6.37367e-13
-8.23054e-12
1.51898e-12
-9.11609e-12
2.56573e-12
-9.63223e-12
3.73424e-12
-9.75081e-12
4.97046e-12
-9.46431e-12
6.21424e-12
-8.78439e-12
7.40519e-12
-7.73872e-12
8.48811e-12
-6.36772e-12
9.41665e-12
-4.72289e-12
1.01549e-11
-2.8677e-12
1.06783e-11
-8.79719e-13
1.09741e-11
1.14854e-12
1.10425e-11
3.11217e-12
1.08966e-11
4.90056e-12
1.05606e-11
6.40663e-12
1.00661e-11
7.53692e-12
9.44723e-12
8.22097e-12
8.7373e-12
8.4197e-12
7.96667e-12
8.1326e-12
7.16269e-12
7.40253e-12
6.34994e-12
6.316e-12
5.55015e-12
4.99686e-12
4.78177e-12
3.59278e-12
4.06e-12
2.25648e-12
3.39785e-12
1.12508e-12
2.8075e-12
3.01718e-13
2.30096e-12
-1.58017e-13
1.8887e-12
-2.53235e-13
1.57654e-12
-3.8096e-14
1.36224e-12
3.85205e-13
1.23418e-12
8.81514e-13
1.17289e-12
1.30548e-12
1.15507e-12
1.52942e-12
1.15795e-12
1.47021e-12
1.16275e-12
1.10742e-12
1.15763e-12
4.85161e-13
1.1417e-12
-3.0477e-13
1.13028e-12
-1.15423e-12
1.15772e-12
-1.97221e-12
1.27125e-12
-2.70558e-12
1.51284e-12
-3.33608e-12
1.896e-12
-3.85711e-12
2.39485e-12
-4.24902e-12
2.95878e-12
-4.47714e-12
3.54316e-12
-4.5139e-12
4.12106e-12
-4.34415e-12
4.65209e-12
-3.91413e-12
5.05404e-12
-3.075e-12
5.2844e-12
-1.69129e-12
5.45487e-12
-3.03681e-13
5.39703e-12
3.14076e-12
1.82038e-12
2.72568e-13
1.41638e-12
5.65709e-13
2.20438e-12
1.70317e-12
2.71401e-12
2.36783e-12
2.62539e-12
2.77466e-12
2.4767e-12
3.02895e-12
2.00287e-12
3.09462e-12
1.53687e-12
2.89405e-12
1.3362e-12
2.39982e-12
1.2659e-12
1.75194e-12
1.05156e-12
1.18158e-12
5.78667e-13
8.43353e-13
-6.84079e-14
7.43267e-13
-7.49981e-13
7.96263e-13
-1.40916e-12
9.30543e-13
-2.09211e-12
1.14986e-12
-2.86002e-12
1.51955e-12
-3.68749e-12
2.10229e-12
-4.43988e-12
2.89988e-12
-4.94314e-12
3.84307e-12
-5.08153e-12
4.82785e-12
-4.84798e-12
5.76369e-12
-4.32384e-12
6.59898e-12
-3.62013e-12
7.31537e-12
-2.82847e-12
7.90772e-12
-2.00699e-12
8.37166e-12
-1.19328e-12
8.70635e-12
-4.19524e-13
8.92303e-12
2.89081e-13
9.04439e-12
9.3039e-13
9.09007e-12
1.53623e-12
9.05836e-12
2.16083e-12
8.91999e-12
2.84918e-12
8.63058e-12
3.60671e-12
8.15367e-12
4.3912e-12
7.478e-12
5.12906e-12
6.61941e-12
5.73925e-12
5.61013e-12
6.14736e-12
4.48697e-12
6.28583e-12
3.28749e-12
6.09082e-12
2.05451e-12
5.50665e-12
8.42562e-13
4.49982e-12
-2.80172e-13
3.07428e-12
-1.23652e-12
1.27902e-12
-1.94888e-12
-7.95635e-13
-2.34783e-12
-3.03012e-12
-2.37844e-12
-5.29068e-12
-2.004e-12
-7.44316e-12
-1.20827e-12
-9.36369e-12
2.96279e-15
-1.0946e-11
1.60055e-12
-1.21058e-11
3.53156e-12
-1.27829e-11
5.72075e-12
-1.29417e-11
8.07484e-12
-1.25709e-11
1.04892e-11
-1.1682e-11
1.28558e-11
-1.03069e-11
1.50702e-11
-8.49447e-12
1.70373e-11
-6.30994e-12
1.86745e-11
-3.8352e-12
1.99148e-11
-1.17155e-12
2.0711e-11
1.55858e-12
2.10389e-11
4.21369e-12
2.08997e-11
6.64094e-12
2.03198e-11
8.68892e-12
1.93474e-11
1.0223e-11
1.80475e-11
1.11407e-11
1.64968e-11
1.13851e-11
1.47804e-11
1.09556e-11
1.29871e-11
9.91337e-12
1.12052e-11
8.38149e-12
9.51662e-12
6.53574e-12
7.99041e-12
4.58591e-12
6.67775e-12
2.74901e-12
5.60952e-12
1.21891e-12
4.79627e-12
1.38137e-13
4.22951e-12
-4.22551e-13
3.88315e-12
-4.73666e-13
3.71499e-12
-1.043e-13
3.66958e-12
5.32131e-13
3.68395e-12
1.24231e-12
3.69642e-12
1.82576e-12
3.65629e-12
2.11207e-12
3.53178e-12
1.99645e-12
3.31432e-12
1.46372e-12
3.0201e-12
5.90458e-13
2.69059e-12
-4.81414e-13
2.39222e-12
-1.59455e-12
2.20987e-12
-2.63078e-12
2.22808e-12
-3.5405e-12
2.49991e-12
-4.3264e-12
3.01878e-12
-4.99043e-12
3.71765e-12
-5.49239e-12
4.5087e-12
-5.76925e-12
5.33869e-12
-5.79885e-12
6.20239e-12
-5.59613e-12
7.07628e-12
-5.06737e-12
7.83203e-12
-3.94145e-12
8.31343e-12
-2.22348e-12
8.64307e-12
-1.18045e-12
8.83338e-12
6.30101e-12
2.18063e-12
1.23307e-12
2.58524e-12
1.21044e-12
2.67633e-12
1.66249e-12
2.92021e-12
2.19747e-12
2.61532e-12
2.77776e-12
2.24344e-12
3.36082e-12
1.51864e-12
3.90991e-12
8.10763e-13
4.24004e-12
5.16049e-13
4.16133e-12
5.70147e-13
3.68792e-12
6.24827e-13
3.01139e-12
4.32126e-13
2.34087e-12
-5.45351e-15
1.79385e-12
-5.40327e-13
1.39341e-12
-1.05548e-12
1.13213e-12
-1.55071e-12
1.03909e-12
-2.09649e-12
1.19668e-12
-2.72494e-12
1.69581e-12
-3.36423e-12
2.56883e-12
-3.86778e-12
3.75595e-12
-4.1023e-12
5.1288e-12
-4.01903e-12
6.54719e-12
-3.66158e-12
7.90538e-12
-3.12082e-12
9.14285e-12
-2.48042e-12
1.02268e-11
-1.79074e-12
1.11317e-11
-1.07818e-12
1.18341e-11
-3.69189e-13
1.23214e-11
2.99734e-13
1.26001e-11
8.97044e-13
1.26894e-11
1.42092e-12
1.26028e-11
1.90676e-12
1.23334e-11
2.40548e-12
1.18545e-11
2.94724e-12
1.11366e-11
3.51812e-12
1.01676e-11
4.06426e-12
8.96205e-12
4.51455e-12
7.55736e-12
4.80176e-12
6.00412e-12
4.86991e-12
4.36019e-12
4.67204e-12
2.69124e-12
4.16971e-12
1.07403e-12
3.34028e-12
-4.03545e-13
2.18829e-12
-1.64748e-12
7.52983e-13
-2.56609e-12
-8.93081e-13
-3.07842e-12
-2.65331e-12
-3.12078e-12
-4.42009e-12
-2.65118e-12
-6.08739e-12
-1.65201e-12
-7.56036e-12
-1.31556e-13
-8.76111e-12
1.87562e-12
-9.63063e-12
4.30911e-12
-1.0128e-11
7.08433e-12
-1.02289e-11
1.00957e-11
-9.92395e-12
1.32222e-11
-9.21887e-12
1.63342e-11
-8.1337e-12
1.93013e-11
-6.70195e-12
2.19987e-11
-4.96967e-12
2.43119e-11
-2.99618e-12
2.61401e-11
-8.5679e-13
2.7401e-11
1.35383e-12
2.80358e-11
3.52104e-12
2.80157e-11
5.51523e-12
2.73463e-11
7.2032e-12
2.60695e-11
8.46364e-12
2.42615e-11
9.20311e-12
2.20285e-11
9.36949e-12
1.95015e-11
8.96141e-12
1.68284e-11
8.033e-12
1.41652e-11
6.69318e-12
1.16638e-11
5.0979e-12
9.4572e-12
3.43384e-12
7.64613e-12
1.89399e-12
6.28856e-12
6.48638e-13
5.39537e-12
-1.82151e-13
4.93227e-12
-5.4799e-13
4.82646e-12
-4.75204e-13
4.97642e-12
-6.04145e-14
5.26373e-12
5.47008e-13
5.56718e-12
1.17027e-12
5.77869e-12
1.63522e-12
5.81959e-12
1.80288e-12
5.65363e-12
1.60047e-12
5.2933e-12
1.04264e-12
4.79764e-12
2.30802e-13
4.26246e-12
-6.79362e-13
3.80447e-12
-1.53854e-12
3.53962e-12
-2.26621e-12
3.55556e-12
-2.87403e-12
3.88297e-12
-3.42193e-12
4.47944e-12
-3.93172e-12
5.24351e-12
-4.33884e-12
6.06319e-12
-4.55619e-12
6.87716e-12
-4.598e-12
7.7069e-12
-4.57002e-12
8.628e-12
-4.40519e-12
9.68016e-12
-3.62859e-12
1.07851e-11
-2.07464e-12
1.18755e-11
-9.89424e-13
1.25179e-11
9.02026e-12
1.99114e-12
1.51191e-12
3.17629e-12
1.80724e-12
3.14015e-12
1.96082e-12
3.29795e-12
2.37249e-12
2.88958e-12
3.19478e-12
2.39258e-12
4.19328e-12
1.42956e-12
5.16466e-12
3.72402e-13
5.87891e-12
-2.16165e-13
6.10059e-12
-2.56481e-13
5.75326e-12
-8.89511e-14
4.95358e-12
-5.2865e-14
3.91907e-12
-2.4392e-13
2.86467e-12
-5.54465e-13
1.9463e-12
-8.42413e-13
1.26013e-12
-1.06229e-12
8.78188e-13
-1.27705e-12
8.80013e-13
-1.57132e-12
1.34466e-12
-1.95613e-12
2.30706e-12
-2.345e-12
3.7184e-12
-2.61019e-12
5.44728e-12
-2.66271e-12
7.32255e-12
-2.49395e-12
9.18655e-12
-2.1587e-12
1.09254e-11
-1.72599e-12
1.2466e-11
-1.24043e-12
1.37563e-11
-7.19331e-13
1.47503e-11
-1.7754e-13
1.54122e-11
3.50746e-13
1.57281e-11
8.18088e-13
1.57118e-11
1.19347e-12
1.53938e-11
1.48661e-12
1.48024e-11
1.74197e-12
1.39518e-11
2.00559e-12
1.28472e-11
2.29207e-12
1.14985e-11
2.57577e-12
9.93345e-12
2.80737e-12
8.19954e-12
2.93696e-12
6.3582e-12
2.92624e-12
4.47867e-12
2.74742e-12
2.6363e-12
2.37908e-12
9.13542e-13
1.80803e-12
-6.00448e-13
1.03723e-12
-1.81435e-12
9.29234e-14
-2.64197e-12
-9.74856e-13
-3.00953e-12
-2.09914e-12
-2.86103e-12
-3.20655e-12
-2.16149e-12
-4.22745e-12
-8.98754e-13
-5.10339e-12
9.15544e-13
-5.79082e-12
3.24577e-12
-6.26107e-12
6.03245e-12
-6.49756e-12
9.19272e-12
-6.49203e-12
1.26215e-11
-6.24197e-12
1.61944e-11
-5.75021e-12
1.97724e-11
-5.02612e-12
2.32091e-11
-4.08682e-12
2.63582e-11
-2.95766e-12
2.90802e-11
-1.67294e-12
3.12482e-11
-2.77798e-13
3.27539e-11
1.16855e-12
3.35151e-11
2.59064e-12
3.34841e-11
3.8987e-12
3.26556e-11
4.9967e-12
3.10724e-11
5.79528e-12
2.88258e-11
6.2261e-12
2.60513e-11
6.2537e-12
2.29202e-11
5.88264e-12
1.96282e-11
5.15948e-12
1.63807e-11
4.17024e-12
1.3375e-11
3.03345e-12
1.07816e-11
1.88766e-12
8.72419e-12
8.73317e-13
7.26515e-12
1.10328e-13
6.3993e-12
-3.24073e-13
6.05754e-12
-4.11099e-13
6.11992e-12
-1.94656e-13
6.43512e-12
2.27535e-13
6.84232e-12
7.23465e-13
7.19298e-12
1.1519e-12
7.37067e-12
1.38851e-12
7.30724e-12
1.35057e-12
6.99305e-12
1.01824e-12
6.47826e-12
4.46724e-13
5.86358e-12
-2.41488e-13
5.28071e-12
-8.95247e-13
4.86543e-12
-1.39959e-12
4.72731e-12
-1.73687e-12
4.9215e-12
-1.99508e-12
5.43105e-12
-2.29558e-12
6.1704e-12
-2.67738e-12
7.01545e-12
-3.04485e-12
7.85209e-12
-3.26137e-12
8.62264e-12
-3.31527e-12
9.35913e-12
-3.33518e-12
1.01976e-11
-3.34779e-12
1.13227e-11
-2.92884e-12
1.27708e-11
-1.82155e-12
1.43216e-11
-7.92081e-13
1.51929e-11
1.08109e-11
1.93972e-12
1.55016e-12
3.48777e-12
1.89336e-12
3.62914e-12
1.85207e-12
4.07086e-12
2.18187e-12
3.70322e-12
3.08091e-12
3.05378e-12
4.29848e-12
1.77964e-12
5.52971e-12
2.62085e-13
6.52008e-12
-8.06304e-13
7.01517e-12
-1.18675e-12
6.86515e-12
-1.13656e-12
6.10289e-12
-1.00725e-12
4.92303e-12
-9.62809e-13
3.59559e-12
-9.65448e-13
2.37001e-12
-9.05789e-13
1.4177e-12
-7.35691e-13
8.35915e-13
-5.17396e-13
6.88727e-13
-3.72551e-13
1.03428e-12
-3.85213e-13
1.91011e-12
-5.4066e-13
3.29454e-12
-7.41887e-13
5.08482e-12
-8.79223e-13
7.11516e-12
-8.94068e-13
9.20323e-12
-7.94774e-13
1.11935e-11
-6.25718e-13
1.29737e-11
-4.23908e-13
1.44642e-11
-1.99838e-13
1.56008e-11
4.7106e-14
1.63298e-11
3.01033e-13
1.66191e-11
5.22033e-13
1.6472e-11
6.69271e-13
1.59263e-11
7.3305e-13
1.50383e-11
7.44456e-13
1.38628e-11
7.52851e-13
1.2445e-11
7.91316e-13
1.08268e-11
8.58385e-13
9.0575e-12
9.26177e-13
7.1996e-12
9.61595e-13
5.32535e-12
9.40914e-13
3.51056e-12
8.50345e-13
1.83086e-12
6.79925e-13
3.61611e-13
4.21473e-13
-8.22045e-13
7.36485e-14
-1.64787e-12
-3.51111e-13
-2.05194e-12
-8.24421e-13
-1.98418e-12
-1.30649e-12
-1.41204e-12
-1.75457e-12
-3.22009e-13
-2.13125e-12
1.28019e-12
-2.41024e-12
3.36999e-12
-2.57878e-12
5.90468e-12
-2.63672e-12
8.82401e-12
-2.59258e-12
1.20504e-11
-2.45812e-12
1.54889e-11
-2.24362e-12
1.90273e-11
-1.95596e-12
2.25384e-11
-1.59958e-12
2.58852e-11
-1.179e-12
2.89278e-11
-7.00669e-13
3.15311e-11
-1.74135e-13
3.35715e-11
3.86853e-13
3.49429e-11
9.62007e-13
3.55639e-11
1.52169e-12
3.53855e-11
2.02602e-12
3.44004e-11
2.42828e-12
3.26499e-11
2.68309e-12
3.02264e-11
2.75679e-12
2.72695e-11
2.63627e-12
2.39566e-11
2.33327e-12
2.04903e-11
1.88366e-12
1.70818e-11
1.34298e-12
1.3933e-11
7.80158e-13
1.12171e-11
2.69799e-13
9.05833e-12
-1.17585e-13
7.5162e-12
-3.27656e-13
6.57714e-12
-3.35067e-13
6.15858e-12
-1.52993e-13
6.12513e-12
1.65231e-13
6.31396e-12
5.34919e-13
6.56348e-12
8.57688e-13
6.73936e-12
1.04302e-12
6.75387e-12
1.02827e-12
6.57692e-12
7.94207e-13
6.23801e-12
3.7494e-13
5.81919e-12
-1.40755e-13
5.43859e-12
-6.2553e-13
5.22564e-12
-9.55387e-13
5.29057e-12
-1.07197e-12
5.69461e-12
-1.03208e-12
6.42907e-12
-9.9545e-13
7.41303e-12
-1.12775e-12
8.514e-12
-1.47112e-12
9.58573e-12
-1.89697e-12
1.05052e-11
-2.21291e-12
1.11968e-11
-2.3302e-12
1.16641e-11
-2.31266e-12
1.20606e-11
-2.29153e-12
1.27129e-11
-2.15121e-12
1.38798e-11
-1.60212e-12
1.53682e-11
-8.0969e-13
1.61727e-11
1.13457e-11
1.85983e-12
1.68011e-12
3.69205e-12
2.04883e-12
4.18997e-12
1.81749e-12
5.10307e-12
2.04628e-12
4.91476e-12
2.80914e-12
4.12738e-12
3.90023e-12
2.52363e-12
5.02039e-12
5.07848e-13
5.95579e-12
-1.14363e-12
6.49303e-12
-2.04301e-12
6.45521e-12
-2.31083e-12
5.80058e-12
-2.23748e-12
4.66517e-12
-2.01559e-12
3.31393e-12
-1.68989e-12
2.0346e-12
-1.22871e-12
1.04199e-12
-6.20332e-13
4.47072e-13
6.59441e-14
2.9142e-13
6.91417e-13
5.97829e-13
1.12113e-12
1.38704e-12
1.29922e-12
2.65275e-12
1.26919e-12
4.32707e-12
1.13098e-12
6.27268e-12
9.74284e-13
8.31162e-12
8.36613e-13
1.02704e-11
7.08041e-13
1.20127e-11
5.67148e-13
1.34442e-11
4.11949e-13
1.44989e-11
2.5993e-13
1.51266e-11
1.23219e-13
1.5296e-11
-1.08096e-14
1.50066e-11
-1.70549e-13
1.42957e-11
-3.70626e-13
1.32288e-11
-5.91485e-13
1.18816e-11
-7.88208e-13
1.03252e-11
-9.19731e-13
8.62532e-12
-9.7199e-13
6.84734e-12
-9.57953e-13
5.06138e-12
-9.00541e-13
3.3399e-12
-8.16953e-13
1.75212e-12
-7.15875e-13
3.61006e-13
-6.03895e-13
-7.75545e-13
-4.90314e-13
-1.60252e-12
-3.84552e-13
-2.06846e-12
-2.89423e-13
-2.12963e-12
-1.97176e-13
-1.75518e-12
-9.17542e-14
-9.30491e-13
4.45521e-14
3.41899e-13
2.24038e-13
2.0429e-12
4.48794e-13
4.13788e-12
7.08833e-13
6.57786e-12
9.83063e-13
9.30103e-12
1.24313e-12
1.22341e-11
1.45958e-12
1.5293e-11
1.60848e-12
1.83828e-11
1.67584e-12
2.13982e-11
1.65834e-12
2.42264e-11
1.56094e-12
2.67525e-11
1.39374e-12
2.88668e-11
1.16991e-12
3.04717e-11
9.0474e-13
3.14871e-11
6.14459e-13
3.18554e-11
3.13731e-13
3.15462e-11
1.27721e-14
3.05628e-11
-2.83775e-13
2.8947e-11
-5.74558e-13
2.67823e-11
-8.56456e-13
2.41899e-11
-1.11957e-12
2.1321e-11
-1.34545e-12
1.83431e-11
-1.50991e-12
1.54263e-11
-1.58888e-12
1.27285e-11
-1.56462e-12
1.03814e-11
-1.42951e-12
8.47671e-12
-1.1874e-12
7.05402e-12
-8.53755e-13
6.09356e-12
-4.56238e-13
5.51871e-12
-3.53327e-14
5.2103e-12
3.57133e-13
5.0316e-12
6.64116e-13
4.85825e-12
8.34483e-13
4.60516e-12
8.36299e-13
4.24335e-12
6.68089e-13
3.80301e-12
3.65089e-13
3.36416e-12
-3.86369e-16
3.03787e-12
-3.26722e-13
2.94262e-12
-5.04808e-13
3.17789e-12
-4.59619e-13
3.79793e-12
-2.02991e-13
4.79051e-12
1.34868e-13
6.06973e-12
3.39408e-13
7.49173e-12
2.22702e-13
8.89282e-12
-2.49961e-13
1.01328e-11
-9.26787e-13
1.11176e-11
-1.56662e-12
1.17917e-11
-1.95757e-12
1.21429e-11
-1.97809e-12
1.22806e-11
-1.76954e-12
1.25304e-11
-1.68604e-12
1.32713e-11
-1.58166e-12
1.44511e-11
-1.04309e-12
1.51004e-11
1.05132e-11
1.63411e-12
1.79862e-12
3.74555e-12
2.24182e-12
4.77797e-12
1.8005e-12
6.16437e-12
1.82541e-12
6.18595e-12
2.27323e-12
5.26912e-12
2.99856e-12
3.36696e-12
3.76356e-12
9.12266e-13
4.42945e-12
-1.29196e-12
4.85895e-12
-2.75121e-12
4.89192e-12
-3.43417e-12
4.43519e-12
-3.51865e-12
3.54442e-12
-3.18114e-12
2.41851e-12
-2.53967e-12
1.31625e-12
-1.66499e-12
4.54627e-13
-6.152e-13
-4.81003e-14
5.19719e-13
-1.6105e-13
1.59871e-12
1.0997e-13
2.46346e-12
7.60844e-13
3.00349e-12
1.78665e-12
3.2004e-12
3.1506e-12
3.11886e-12
4.7592e-12
2.85565e-12
6.46817e-12
2.48596e-12
8.11658e-12
2.04205e-12
9.56549e-12
1.53076e-12
1.0718e-11
9.65417e-13
1.15154e-11
3.79598e-13
1.19234e-11
-1.8804e-13
1.19257e-11
-7.17766e-13
1.15286e-11
-1.2133e-12
1.0768e-11
-1.68098e-12
9.70639e-12
-2.10557e-12
8.4191e-12
-2.44801e-12
6.9811e-12
-2.66701e-12
5.46213e-12
-2.74318e-12
3.92964e-12
-2.6848e-12
2.45134e-12
-2.51416e-12
1.09218e-12
-2.25042e-12
-9.20589e-14
-1.9038e-12
-1.05804e-12
-1.4816e-12
-1.77211e-12
-9.95769e-13
-2.2048e-12
-4.63553e-13
-2.32792e-12
9.83933e-14
-2.11683e-12
6.79672e-13
-1.55571e-12
1.27635e-12
-6.42079e-13
1.88603e-12
6.11374e-13
2.50163e-12
2.17728e-12
3.10727e-12
4.0149e-12
3.677e-12
6.07186e-12
4.17583e-12
8.2866e-12
4.56306e-12
1.05915e-11
4.79793e-12
1.29155e-11
4.84688e-12
1.5186e-11
4.69006e-12
1.7329e-11
4.32461e-12
1.92693e-11
3.76361e-12
2.09339e-11
3.03244e-12
2.22562e-11
2.16517e-12
2.31812e-11
1.20248e-12
2.36702e-11
1.90632e-13
2.37021e-11
-8.20372e-13
2.32749e-11
-1.78035e-12
2.24068e-11
-2.64321e-12
2.11386e-11
-3.36995e-12
1.95346e-11
-3.92895e-12
1.76811e-11
-4.29485e-12
1.56799e-11
-4.44815e-12
1.36379e-11
-4.37813e-12
1.16565e-11
-4.08845e-12
9.82218e-12
-3.60296e-12
8.19967e-12
-2.96759e-12
6.82775e-12
-2.24638e-12
5.71509e-12
-1.51205e-12
4.83754e-12
-8.34657e-13
4.13918e-12
-2.71803e-13
3.541e-12
1.37456e-13
2.95886e-12
3.75476e-13
2.32811e-12
4.4701e-13
1.6276e-12
3.79238e-13
8.93686e-13
2.20693e-13
2.17897e-13
3.86559e-14
-2.72414e-13
-8.59179e-14
-4.44204e-13
-6.9029e-14
-1.91025e-13
1.54241e-13
5.40018e-13
5.9343e-13
1.72971e-12
1.16402e-12
3.27943e-12
1.67821e-12
5.02024e-12
1.89892e-12
6.74461e-12
1.65325e-12
8.25687e-12
9.36173e-13
9.42199e-12
-8.43028e-14
1.01854e-11
-1.15065e-12
1.05569e-11
-1.95182e-12
1.0593e-11
-2.14312e-12
1.04322e-11
-1.74955e-12
1.0365e-11
-1.55399e-12
1.07515e-11
-1.67419e-12
1.16238e-11
-1.30187e-12
1.21754e-11
8.48323e-12
1.28393e-12
2.24595e-12
3.56503e-12
2.86872e-12
5.21838e-12
2.18817e-12
7.00428e-12
1.84563e-12
7.21314e-12
1.75917e-12
6.18613e-12
1.87606e-12
4.06134e-12
2.07367e-12
1.30484e-12
2.30921e-12
-1.30584e-12
2.52926e-12
-3.2309e-12
2.61103e-12
-4.31391e-12
2.43311e-12
-4.60465e-12
1.96796e-12
-4.22516e-12
1.30829e-12
-3.33375e-12
6.23247e-13
-2.09623e-12
8.15681e-14
-6.56299e-13
-2.11446e-13
8.5798e-13
-2.29307e-13
2.30502e-12
6.42127e-15
3.5256e-12
4.6906e-13
4.3805e-12
1.14565e-12
4.79932e-12
2.02239e-12
4.79991e-12
3.05656e-12
4.46405e-12
4.16285e-12
3.88854e-12
5.22725e-12
3.14675e-12
6.13838e-12
2.28346e-12
6.81455e-12
1.33659e-12
7.21169e-12
3.56855e-13
7.31488e-12
-5.96519e-13
7.12783e-12
-1.47747e-12
6.67024e-12
-2.26573e-12
5.98013e-12
-2.95501e-12
5.1117e-12
-3.52943e-12
4.12545e-12
-3.95403e-12
3.07747e-12
-4.18955e-12
2.01615e-12
-4.21664e-12
9.86868e-13
-4.04619e-12
3.68064e-14
-3.70828e-12
-7.87069e-13
-3.23242e-12
-1.44567e-12
-2.6366e-12
-1.91374e-12
-1.93122e-12
-2.17853e-12
-1.12931e-12
-2.23263e-12
-2.51932e-13
-2.0675e-12
6.7494e-13
-1.67274e-12
1.62673e-12
-1.04098e-12
2.58312e-12
-1.74161e-13
3.52539e-12
9.1243e-13
4.43133e-12
2.18941e-12
5.27179e-12
3.61449e-12
6.01028e-12
5.13475e-12
6.60473e-12
6.68988e-12
7.01052e-12
8.217e-12
7.1849e-12
9.65617e-12
7.0931e-12
1.09548e-11
6.71528e-12
1.20698e-11
6.05153e-12
1.29676e-11
5.12284e-12
1.36234e-11
3.96795e-12
1.40228e-11
2.63832e-12
1.41623e-11
1.19407e-12
1.40518e-11
-2.98258e-13
1.37122e-11
-1.76725e-12
1.31734e-11
-3.13967e-12
1.24701e-11
-4.34567e-12
1.16401e-11
-5.32486e-12
1.07236e-11
-6.03108e-12
9.76281e-12
-6.43447e-12
8.79969e-12
-6.52199e-12
7.87049e-12
-6.29848e-12
6.99968e-12
-5.78965e-12
6.19579e-12
-5.04599e-12
5.45149e-12
-4.14402e-12
4.74762e-12
-3.18098e-12
4.0586e-12
-2.26139e-12
3.35636e-12
-1.478e-12
2.61215e-12
-8.9288e-13
1.79877e-12
-5.2494e-13
8.97309e-13
-3.48233e-13
-8.96794e-14
-3.01028e-13
-1.12193e-12
-3.02036e-13
-2.11029e-12
-2.67787e-13
-2.92021e-12
-1.25617e-13
-3.39432e-12
1.79404e-13
-3.38945e-12
6.78631e-13
-2.81617e-12
1.36597e-12
-1.66776e-12
2.17264e-12
-3.09608e-14
2.94524e-12
1.92223e-12
3.45836e-12
3.96094e-12
3.48574e-12
5.8376e-12
2.90973e-12
7.3379e-12
1.79484e-12
8.32105e-12
3.56283e-13
8.73771e-12
-1.1246e-12
8.63163e-12
-2.27715e-12
8.1416e-12
-2.60345e-12
7.50308e-12
-2.00074e-12
7.02871e-12
-1.55922e-12
7.0284e-12
-1.69068e-12
7.5646e-12
-1.40054e-12
8.03669e-12
5.64879e-12
8.23512e-13
3.12011e-12
3.08799e-12
4.1041e-12
5.28055e-12
3.22769e-12
7.32225e-12
2.40952e-12
7.67213e-12
1.60055e-12
6.59562e-12
8.86272e-13
4.39047e-12
3.19153e-13
1.54466e-12
-2.30121e-14
-1.2314e-12
-1.13995e-13
-3.41306e-12
-3.6777e-14
-4.77006e-12
7.66687e-14
-5.24475e-12
1.29571e-13
-4.88689e-12
9.76908e-14
-3.8537e-12
2.27562e-14
-2.37073e-12
-2.14642e-14
-6.5785e-13
2.54578e-14
1.1087e-12
1.79035e-13
2.78e-12
4.12269e-13
4.2087e-12
6.85385e-13
5.25508e-12
9.75122e-13
5.82219e-12
1.28029e-12
5.88801e-12
1.60362e-12
5.50683e-12
1.92921e-12
4.77753e-12
2.21571e-12
3.80178e-12
2.41013e-12
2.66126e-12
2.46999e-12
1.42348e-12
2.37708e-12
1.5839e-13
2.13679e-12
-1.05936e-12
1.77005e-12
-2.16725e-12
1.30791e-12
-3.13065e-12
7.9002e-13
-3.93719e-12
2.60643e-13
-4.57403e-12
-2.41226e-13
-5.01211e-12
-6.92099e-13
-5.2145e-12
-1.08539e-12
-5.16063e-12
-1.42195e-12
-4.8625e-12
-1.69786e-12
-4.35835e-12
-1.89996e-12
-3.69097e-12
-2.01163e-12
-2.89012e-12
-2.02183e-12
-1.97122e-12
-1.92868e-12
-9.46417e-13
-1.73477e-12
1.64626e-13
-1.4396e-12
1.33259e-12
-1.03628e-12
2.52343e-12
-5.15104e-13
3.70332e-12
1.28707e-13
4.83906e-12
8.88191e-13
5.89512e-12
1.74151e-12
6.83132e-12
2.65229e-12
7.60366e-12
3.57198e-12
8.1675e-12
4.44373e-12
8.48123e-12
5.20822e-12
8.50958e-12
5.81135e-12
8.22743e-12
6.21201e-12
7.62465e-12
6.38758e-12
6.71084e-12
6.33555e-12
5.51728e-12
6.07204e-12
4.09462e-12
5.62906e-12
2.50732e-12
5.05193e-12
8.27347e-13
4.39644e-12
-8.69909e-13
3.72443e-12
-2.50768e-12
3.09707e-12
-4.00955e-12
2.567e-12
-5.30317e-12
2.17172e-12
-6.32642e-12
1.93049e-12
-7.03409e-12
1.8445e-12
-7.40252e-12
1.89857e-12
-7.43083e-12
2.06217e-12
-7.13988e-12
2.28936e-12
-6.57107e-12
2.5196e-12
-5.78645e-12
2.68232e-12
-4.86876e-12
2.70644e-12
-3.91767e-12
2.53296e-12
-3.0383e-12
2.1261e-12
-2.32157e-12
1.47853e-12
-1.82065e-12
6.10015e-13
-1.53237e-12
-4.37035e-13
-1.39275e-12
-1.59926e-12
-1.29174e-12
-2.7884e-12
-1.1041e-12
-3.88536e-12
-7.2524e-13
-4.74138e-12
-9.79836e-14
-5.19574e-12
7.78639e-13
-5.11064e-12
1.85402e-12
-4.41327e-12
3.02965e-12
-3.12729e-12
4.15266e-12
-1.37998e-12
5.01142e-12
6.19167e-13
5.36363e-12
2.62126e-12
5.01471e-12
4.38837e-12
3.91819e-12
5.73226e-12
2.2272e-12
6.52714e-12
2.44103e-13
6.706e-12
-1.66908e-12
6.27912e-12
-3.06547e-12
5.38851e-12
-3.37554e-12
4.32673e-12
-2.45423e-12
3.44234e-12
-1.61376e-12
3.01465e-12
-1.54877e-12
3.13893e-12
-1.28294e-12
3.46167e-12
2.48991e-12
3.09971e-13
4.18051e-12
2.35886e-12
5.66357e-12
4.82244e-12
4.68518e-12
6.87199e-12
3.38408e-12
7.27263e-12
1.78154e-12
6.23683e-12
1.26192e-13
4.1535e-12
-1.31209e-12
1.49004e-12
-2.31284e-12
-1.14824e-12
-2.77709e-12
-3.29867e-12
-2.75718e-12
-4.71238e-12
-2.38822e-12
-5.26879e-12
-1.81671e-12
-4.95441e-12
-1.17073e-12
-3.89394e-12
-5.4453e-13
-2.32439e-12
1.19203e-14
-5.08344e-13
4.82747e-13
1.33638e-12
8.57414e-13
3.04711e-12
1.10961e-12
4.49116e-12
1.20252e-12
5.55e-12
1.11224e-12
6.13145e-12
8.4606e-13
6.19664e-12
4.40281e-13
5.77568e-12
-5.84592e-14
4.95555e-12
-6.11962e-13
3.84707e-12
-1.19581e-12
2.55517e-12
-1.79171e-12
1.17118e-12
-2.37776e-12
-2.182e-13
-2.9258e-12
-1.52767e-12
-3.40471e-12
-2.68705e-12
-3.78319e-12
-3.6587e-12
-4.03001e-12
-4.43632e-12
-4.11732e-12
-5.02173e-12
-4.03096e-12
-5.40106e-12
-3.78295e-12
-5.54371e-12
-3.41448e-12
-5.42466e-12
-2.98381e-12
-5.04781e-12
-2.54536e-12
-4.44891e-12
-2.13397e-12
-3.67655e-12
-1.76321e-12
-2.76939e-12
-1.4343e-12
-1.74727e-12
-1.14548e-12
-6.19639e-13
-8.94061e-13
5.99726e-13
-6.72129e-13
1.88403e-12
-4.62859e-13
3.19444e-12
-2.42898e-13
4.48578e-12
9.46687e-15
5.71031e-12
3.05033e-13
6.81817e-12
6.37799e-13
7.75716e-12
9.83801e-13
8.47524e-12
1.30337e-12
8.9257e-12
1.54551e-12
9.0725e-12
1.65425e-12
8.89366e-12
1.5774e-12
8.38266e-12
1.27672e-12
7.54959e-12
7.36947e-13
6.42278e-12
-2.93066e-14
5.04945e-12
-9.81781e-13
3.49349e-12
-2.05685e-12
1.82957e-12
-3.17361e-12
1.35329e-13
-4.24061e-12
-1.51489e-12
-5.1634e-12
-3.05311e-12
-5.85401e-12
-4.41813e-12
-6.24202e-12
-5.55591e-12
-6.28492e-12
-6.42254e-12
-5.97475e-12
-6.98946e-12
-5.33899e-12
-7.24869e-12
-4.43618e-12
-7.215e-12
-3.34911e-12
-6.92372e-12
-2.17808e-12
-6.42584e-12
-1.03487e-12
-5.7832e-12
-3.53868e-14
-5.06578e-12
7.11552e-13
-4.34962e-12
1.11953e-12
-3.71124e-12
1.14043e-12
-3.21445e-12
7.74507e-13
-2.88952e-12
6.99058e-14
-2.71184e-12
-8.88399e-13
-2.59214e-12
-1.99371e-12
-2.38968e-12
-3.12863e-12
-1.95079e-12
-4.16794e-12
-1.16087e-12
-4.97809e-12
1.24932e-14
-5.42427e-12
1.50459e-12
-5.39335e-12
3.16896e-12
-4.82951e-12
4.8052e-12
-3.76648e-12
6.1798e-12
-2.33587e-12
7.04206e-12
-7.41071e-13
7.15847e-12
7.97436e-13
6.38001e-12
2.10026e-12
4.72027e-12
3.05786e-12
2.39436e-12
3.60848e-12
-2.12308e-13
3.69198e-12
-2.60893e-12
3.25588e-12
-4.21348e-12
2.35243e-12
-4.40987e-12
1.21227e-12
-3.09418e-12
1.41e-13
-1.74277e-12
-6.27952e-13
-1.31109e-12
-9.46841e-13
-1.02162e-12
-8.72232e-13
-5.50954e-13
-1.51338e-13
5.05886e-12
1.49563e-12
7.02005e-12
3.83136e-12
6.00702e-12
5.55392e-12
4.28643e-12
5.86618e-12
1.9613e-12
4.96487e-12
-5.74205e-13
3.23592e-12
-2.83615e-12
1.0527e-12
-4.45856e-12
-1.12621e-12
-5.27895e-12
-2.93225e-12
-5.33258e-12
-4.14181e-12
-4.76001e-12
-4.62227e-12
-3.741e-12
-4.3272e-12
-2.4801e-12
-3.33712e-12
-1.18779e-12
-1.85528e-12
-3.89491e-14
-1.38205e-13
8.56359e-13
1.58179e-12
1.44466e-12
3.13189e-12
1.69976e-12
4.39147e-12
1.60365e-12
5.27219e-12
1.15074e-12
5.7109e-12
3.64222e-13
5.68029e-12
-6.94591e-13
5.20338e-12
-1.93353e-12
4.35368e-12
-3.24803e-12
3.23487e-12
-4.53825e-12
1.95425e-12
-5.71719e-12
6.0924e-13
-6.71268e-12
-7.09443e-13
-7.46914e-12
-1.91516e-12
-7.94991e-12
-2.93801e-12
-8.13606e-12
-3.74517e-12
-8.02065e-12
-4.34547e-12
-7.60523e-12
-4.76689e-12
-6.90605e-12
-5.02355e-12
-5.96764e-12
-5.10066e-12
-4.87099e-12
-4.96924e-12
-3.72457e-12
-4.61463e-12
-2.63943e-12
-4.05236e-12
-1.70233e-12
-3.3192e-12
-9.62083e-13
-2.45065e-12
-4.32969e-13
-1.4654e-12
-1.07146e-13
-3.67865e-13
3.51912e-14
8.36645e-13
2.27639e-14
2.12755e-12
-1.06307e-13
3.46457e-12
-3.06901e-13
4.79219e-12
-5.34834e-13
6.04657e-12
-7.57455e-13
7.16037e-12
-9.61816e-13
8.06602e-12
-1.15744e-12
8.70038e-12
-1.37408e-12
9.01208e-12
-1.65654e-12
8.96914e-12
-2.05759e-12
8.56371e-12
-2.62894e-12
7.81227e-12
-3.41028e-12
6.75272e-12
-4.41809e-12
5.44097e-12
-5.63765e-12
3.94757e-12
-7.02061e-12
2.35362e-12
-8.48882e-12
7.44109e-13
-9.94226e-12
-8.00739e-13
-1.12686e-11
-2.21362e-12
-1.23535e-11
-3.44459e-12
-1.30915e-11
-4.46067e-12
-1.33983e-11
-5.24252e-12
-1.32237e-11
-5.78167e-12
-1.25605e-11
-6.08072e-12
-1.14489e-11
-6.15611e-12
-9.9713e-12
-6.04031e-12
-8.24214e-12
-5.78016e-12
-6.39523e-12
-5.43043e-12
-4.57196e-12
-5.04518e-12
-2.91149e-12
-4.6711e-12
-1.54049e-12
-4.34529e-12
-5.59934e-13
-4.09563e-12
-2.94058e-14
-3.93816e-12
4.60925e-14
-3.86644e-12
-2.80497e-13
-3.83397e-12
-9.09184e-13
-3.74029e-12
-1.71532e-12
-3.43652e-12
-2.57342e-12
-2.76122e-12
-3.37172e-12
-1.6e-12
-4.01374e-12
5.58872e-14
-4.41474e-12
2.08329e-12
-4.50596e-12
4.24678e-12
-4.25419e-12
6.25016e-12
-3.68791e-12
7.79082e-12
-2.90983e-12
8.60169e-12
-2.07638e-12
8.48733e-12
-1.34361e-12
7.36213e-12
-8.0479e-13
5.28336e-12
-4.64128e-13
2.4736e-12
-2.80324e-13
-6.59635e-13
-2.56175e-13
-3.51301e-12
-4.75074e-13
-5.33525e-12
-1.00779e-12
-5.4479e-12
-1.79333e-12
-3.80983e-12
-2.69117e-12
-1.97465e-12
-3.5815e-12
-1.1042e-12
-4.27234e-12
-7.46548e-13
-4.50003e-12
-3.14079e-12
-4.77879e-13
5.48042e-12
5.87436e-13
7.72871e-12
2.3705e-12
6.69481e-12
3.42647e-12
4.65689e-12
3.49719e-12
1.80193e-12
2.81222e-12
-1.38599e-12
1.66229e-12
-4.26725e-12
2.40662e-13
-6.35802e-12
-1.18674e-12
-7.44546e-12
-2.36681e-12
-7.55836e-12
-3.1273e-12
-6.84819e-12
-3.3643e-12
-5.51635e-12
-3.03611e-12
-3.81031e-12
-2.18756e-12
-2.01452e-12
-9.58746e-13
-3.99295e-13
4.49626e-13
8.36505e-13
1.83349e-12
1.58573e-12
3.02947e-12
1.81338e-12
3.92959e-12
1.5252e-12
4.47374e-12
7.49829e-13
4.63666e-12
-4.60045e-13
4.42256e-12
-2.01899e-12
3.86815e-12
-3.80665e-12
3.04298e-12
-5.67779e-12
2.0374e-12
-7.47969e-12
9.42531e-13
-9.06903e-12
-1.61499e-13
-1.03255e-11
-1.20237e-12
-1.11631e-11
-2.10991e-12
-1.15383e-11
-2.82582e-12
-1.1449e-11
-3.32684e-12
-1.0923e-11
-3.63814e-12
-1.00042e-11
-3.81675e-12
-8.74712e-12
-3.91261e-12
-7.22612e-12
-3.93722e-12
-5.54782e-12
-3.86363e-12
-3.85054e-12
-3.65355e-12
-2.28356e-12
-3.28562e-12
-9.7523e-13
-2.76272e-12
-7.63397e-15
-2.09808e-12
5.90155e-13
-1.29797e-12
8.31935e-13
-3.57681e-13
7.58505e-13
7.26606e-13
4.25903e-13
1.94097e-12
-1.0042e-13
3.24421e-12
-7.50123e-13
4.56978e-12
-1.45572e-12
5.83492e-12
-2.16334e-12
6.95052e-12
-2.84225e-12
7.82919e-12
-3.48905e-12
8.39297e-12
-4.12546e-12
8.58262e-12
-4.79197e-12
8.36736e-12
-5.53945e-12
7.75141e-12
-6.41976e-12
6.77428e-12
-7.47505e-12
5.50489e-12
-8.72636e-12
4.03244e-12
-1.0164e-11
2.45716e-12
-1.17427e-11
8.8201e-13
-1.33837e-11
-5.95804e-13
-1.49829e-11
-1.89414e-12
-1.64221e-11
-2.95499e-12
-1.75809e-11
-3.75013e-12
-1.83483e-11
-4.28077e-12
-1.86346e-11
-4.57125e-12
-1.83833e-11
-4.65996e-12
-1.75821e-11
-4.59192e-12
-1.6269e-11
-4.4156e-12
-1.45304e-11
-4.18288e-12
-1.24901e-11
-3.94838e-12
-1.02936e-11
-3.76463e-12
-8.09098e-12
-3.67283e-12
-6.02406e-12
-3.69331e-12
-4.21716e-12
-3.82106e-12
-2.76893e-12
-4.02899e-12
-1.74198e-12
-4.27533e-12
-1.15157e-12
-4.50699e-12
-9.58911e-13
-4.65295e-12
-1.07705e-12
-4.61158e-12
-1.39193e-12
-4.247e-12
-1.79211e-12
-3.41272e-12
-2.19352e-12
-2.00678e-12
-2.54743e-12
-3.80033e-14
-2.8312e-12
2.33353e-12
-3.03428e-12
4.81072e-12
-3.15464e-12
7.0252e-12
-3.21025e-12
8.62373e-12
-3.252e-12
9.34132e-12
-3.3567e-12
9.04281e-12
-3.58882e-12
7.72478e-12