/*--------------------------------*- C++ -*----------------------------------*\
| =========                 |                                                 |
| \\      /  F ield         | OpenFOAM: The Open Source CFD Toolbox           |
|  \\    /   O peration     | Version:  2406                                  |
|   \\  /    A nd           | Website:  www.openfoam.com                      |
|    \\/     M anipulation  |                                                 |
\*---------------------------------------------------------------------------*/
FoamFile
{
    version     2.0;
    format      ascii;
    arch        "LSB;label=32;scalar=64";
    class       volVectorField;
    location    "5";
    object      U;
}
// * * * * * * * * * * * * * * * * * * * * * * * * * * * * * * * * * * * * * //

dimensions      [0 1 -1 0 0 0 0];

internalField   nonuniform List<vector> 
10000
(
(3.78887e-09 7.87276e-10 0)
(8.6566e-09 3.12918e-09 0)
(1.20721e-08 6.92276e-09 0)
(1.85854e-08 7.60815e-09 0)
(1.98535e-08 7.79615e-09 0)
(1.93814e-08 8.10197e-09 0)
(1.77265e-08 7.33622e-09 0)
(1.49055e-08 5.49592e-09 0)
(1.30976e-08 3.09001e-09 0)
(1.22289e-08 8.00072e-10 0)
(1.04531e-08 -5.98051e-10 0)
(6.68261e-09 -6.77246e-10 0)
(1.45564e-09 4.02476e-10 0)
(-4.0026e-09 2.11913e-09 0)
(-9.01376e-09 3.98528e-09 0)
(-1.3866e-08 5.77545e-09 0)
(-1.92443e-08 7.49984e-09 0)
(-2.53051e-08 9.23346e-09 0)
(-3.12437e-08 1.0967e-08 0)
(-3.56915e-08 1.25761e-08 0)
(-3.75391e-08 1.39038e-08 0)
(-3.65075e-08 1.48649e-08 0)
(-3.31177e-08 1.54902e-08 0)
(-2.82389e-08 1.58864e-08 0)
(-2.2632e-08 1.61583e-08 0)
(-1.67731e-08 1.63603e-08 0)
(-1.09459e-08 1.65032e-08 0)
(-5.39342e-09 1.65955e-08 0)
(-3.35681e-10 1.66671e-08 0)
(4.16736e-09 1.67494e-08 0)
(8.34835e-09 1.68269e-08 0)
(1.26799e-08 1.68079e-08 0)
(1.76156e-08 1.65475e-08 0)
(2.32984e-08 1.59126e-08 0)
(2.94486e-08 1.48438e-08 0)
(3.54922e-08 1.33738e-08 0)
(4.07931e-08 1.15965e-08 0)
(4.48027e-08 9.61823e-09 0)
(4.70526e-08 7.52842e-09 0)
(4.70772e-08 5.40469e-09 0)
(4.43963e-08 3.33775e-09 0)
(3.86115e-08 1.45157e-09 0)
(2.95601e-08 -9.7512e-11 0)
(1.74273e-08 -1.1406e-09 0)
(2.75628e-09 -1.52222e-09 0)
(-1.36314e-08 -1.12008e-09 0)
(-3.07566e-08 1.45373e-10 0)
(-4.7596e-08 2.30818e-09 0)
(-6.31671e-08 5.3546e-09 0)
(-7.65861e-08 9.218e-09 0)
(-8.71074e-08 1.37727e-08 0)
(-9.4155e-08 1.88326e-08 0)
(-9.73455e-08 2.41608e-08 0)
(-9.65014e-08 2.949e-08 0)
(-9.16458e-08 3.45514e-08 0)
(-8.29788e-08 3.91001e-08 0)
(-7.08433e-08 4.2935e-08 0)
(-5.56999e-08 4.59083e-08 0)
(-3.81225e-08 4.79313e-08 0)
(-1.88153e-08 4.89781e-08 0)
(1.37024e-09 4.90872e-08 0)
(2.14423e-08 4.83561e-08 0)
(4.03153e-08 4.69258e-08 0)
(5.68907e-08 4.49563e-08 0)
(7.01557e-08 4.26001e-08 0)
(7.92811e-08 3.9982e-08 0)
(8.37114e-08 3.71909e-08 0)
(8.3243e-08 3.42822e-08 0)
(7.80856e-08 3.1285e-08 0)
(6.889e-08 2.82118e-08 0)
(5.67186e-08 2.50687e-08 0)
(4.29461e-08 2.18687e-08 0)
(2.90953e-08 1.86471e-08 0)
(1.66355e-08 1.54747e-08 0)
(6.78484e-09 1.24602e-08 0)
(3.46779e-10 9.73882e-09 0)
(-2.39368e-09 7.446e-09 0)
(-1.70844e-09 5.68803e-09 0)
(1.60754e-09 4.51849e-09 0)
(6.34706e-09 3.92879e-09 0)
(1.10825e-08 3.84957e-09 0)
(1.44223e-08 4.15963e-09 0)
(1.52921e-08 4.69809e-09 0)
(1.31655e-08 5.29027e-09 0)
(8.16951e-09 5.7932e-09 0)
(1.00731e-09 6.16221e-09 0)
(-7.28873e-09 6.50212e-09 0)
(-1.56967e-08 7.06031e-09 0)
(-2.34885e-08 8.12285e-09 0)
(-3.03257e-08 9.85879e-09 0)
(-3.61116e-08 1.22098e-08 0)
(-4.07256e-08 1.49392e-08 0)
(-4.38685e-08 1.77997e-08 0)
(-4.51995e-08 2.06237e-08 0)
(-4.45427e-08 2.31388e-08 0)
(-4.16166e-08 2.47304e-08 0)
(-3.52137e-08 2.48328e-08 0)
(-2.38668e-08 2.41574e-08 0)
(-1.01954e-08 2.31625e-08 0)
(7.17058e-10 1.42532e-08 0)
(7.5715e-09 3.48282e-09 0)
(1.75082e-08 8.58435e-09 0)
(1.88046e-08 1.71391e-08 0)
(2.44146e-08 2.06494e-08 0)
(2.69293e-08 2.31252e-08 0)
(2.59698e-08 2.41933e-08 0)
(2.26542e-08 2.32804e-08 0)
(1.76098e-08 2.03797e-08 0)
(1.41634e-08 1.54076e-08 0)
(1.30405e-08 9.52531e-09 0)
(1.18474e-08 4.78059e-09 0)
(8.39337e-09 2.60925e-09 0)
(2.60252e-09 3.04678e-09 0)
(-4.18885e-09 5.15549e-09 0)
(-1.08801e-08 7.97021e-09 0)
(-1.74754e-08 1.11668e-08 0)
(-2.46619e-08 1.50741e-08 0)
(-3.27175e-08 2.0172e-08 0)
(-4.0812e-08 2.65362e-08 0)
(-4.7282e-08 3.36641e-08 0)
(-5.05711e-08 4.07439e-08 0)
(-5.00429e-08 4.70868e-08 0)
(-4.61253e-08 5.23778e-08 0)
(-3.9857e-08 5.66284e-08 0)
(-3.22937e-08 5.99659e-08 0)
(-2.41802e-08 6.24783e-08 0)
(-1.59696e-08 6.42151e-08 0)
(-7.99855e-09 6.52784e-08 0)
(-5.68262e-10 6.58575e-08 0)
(6.1614e-09 6.6132e-08 0)
(1.23362e-08 6.61049e-08 0)
(1.84166e-08 6.55142e-08 0)
(2.4944e-08 6.39168e-08 0)
(3.21982e-08 6.09018e-08 0)
(3.99884e-08 5.62844e-08 0)
(4.77057e-08 5.01575e-08 0)
(5.45497e-08 4.27969e-08 0)
(5.97344e-08 3.45251e-08 0)
(6.25544e-08 2.56435e-08 0)
(6.23531e-08 1.64629e-08 0)
(5.85199e-08 7.37989e-09 0)
(5.05877e-08 -1.07983e-09 0)
(3.83921e-08 -8.2871e-09 0)
(2.21954e-08 -1.35887e-08 0)
(2.70557e-09 -1.63964e-08 0)
(-1.9009e-08 -1.62524e-08 0)
(-4.16623e-08 -1.28625e-08 0)
(-6.38989e-08 -6.10823e-09 0)
(-8.44169e-08 3.94701e-09 0)
(-1.02058e-07 1.70499e-08 0)
(-1.15864e-07 3.27515e-08 0)
(-1.2511e-07 5.04163e-08 0)
(-1.29317e-07 6.92577e-08 0)
(-1.28251e-07 8.83997e-08 0)
(-1.21917e-07 1.06952e-07 0)
(-1.10536e-07 1.24079e-07 0)
(-9.45157e-08 1.39045e-07 0)
(-7.44286e-08 1.51244e-07 0)
(-5.10087e-08 1.60216e-07 0)
(-2.51696e-08 1.65671e-07 0)
(1.96945e-09 1.67508e-07 0)
(2.90823e-08 1.65827e-07 0)
(5.46842e-08 1.60915e-07 0)
(7.72361e-08 1.53206e-07 0)
(9.52888e-08 1.43221e-07 0)
(1.0764e-07 1.31529e-07 0)
(1.13478e-07 1.18711e-07 0)
(1.12507e-07 1.05345e-07 0)
(1.05026e-07 9.19878e-08 0)
(9.19638e-08 7.91443e-08 0)
(7.48317e-08 6.72409e-08 0)
(5.55871e-08 5.66029e-08 0)
(3.64003e-08 4.74507e-08 0)
(1.93622e-08 3.99104e-08 0)
(6.18431e-09 3.40232e-08 0)
(-2.05032e-09 2.97412e-08 0)
(-5.03919e-09 2.69129e-08 0)
(-3.29331e-09 2.52729e-08 0)
(1.94884e-09 2.44593e-08 0)
(8.91859e-09 2.40646e-08 0)
(1.56053e-08 2.37077e-08 0)
(2.01133e-08 2.3098e-08 0)
(2.10331e-08 2.20796e-08 0)
(1.77518e-08 2.06549e-08 0)
(1.05904e-08 1.9016e-08 0)
(6.87433e-10 1.75721e-08 0)
(-1.04011e-08 1.69403e-08 0)
(-2.12485e-08 1.78123e-08 0)
(-3.1014e-08 2.0699e-08 0)
(-3.95095e-08 2.56481e-08 0)
(-4.68213e-08 3.21819e-08 0)
(-5.27597e-08 3.95701e-08 0)
(-5.67296e-08 4.72785e-08 0)
(-5.82251e-08 5.50856e-08 0)
(-5.72888e-08 6.25716e-08 0)
(-5.36516e-08 6.85759e-08 0)
(-4.54608e-08 7.20997e-08 0)
(-3.14936e-08 7.42702e-08 0)
(-1.77484e-08 7.42478e-08 0)
(-2.74061e-10 4.86469e-08 0)
(1.02858e-08 7.34158e-09 0)
(2.57657e-08 9.23893e-09 0)
(2.69157e-08 1.71089e-08 0)
(2.79215e-08 2.31905e-08 0)
(2.77732e-08 2.82495e-08 0)
(2.47208e-08 3.23278e-08 0)
(1.91104e-08 3.51957e-08 0)
(1.14969e-08 3.56032e-08 0)
(6.23051e-09 3.24762e-08 0)
(5.24313e-09 2.66505e-08 0)
(6.13335e-09 2.03353e-08 0)
(5.55435e-09 1.53806e-08 0)
(2.26445e-09 1.23499e-08 0)
(-2.78014e-09 1.08425e-08 0)
(-8.08315e-09 1.04008e-08 0)
(-1.30504e-08 1.11837e-08 0)
(-1.81523e-08 1.39664e-08 0)
(-2.40251e-08 1.95511e-08 0)
(-3.04941e-08 2.81106e-08 0)
(-3.6387e-08 3.8967e-08 0)
(-4.01958e-08 5.0919e-08 0)
(-4.09559e-08 6.27906e-08 0)
(-3.86656e-08 7.37999e-08 0)
(-3.40639e-08 8.35723e-08 0)
(-2.80774e-08 9.19388e-08 0)
(-2.13868e-08 9.87631e-08 0)
(-1.43512e-08 1.03935e-07 0)
(-7.20975e-09 1.07463e-07 0)
(-2.79475e-10 1.09509e-07 0)
(6.07186e-09 1.10277e-07 0)
(1.16541e-08 1.09815e-07 0)
(1.66437e-08 1.07912e-07 0)
(2.1511e-08 1.04174e-07 0)
(2.67017e-08 9.82401e-08 0)
(3.23102e-08 8.99789e-08 0)
(3.79789e-08 7.95437e-08 0)
(4.30531e-08 6.72905e-08 0)
(4.68225e-08 5.36628e-08 0)
(4.86684e-08 3.91421e-08 0)
(4.80786e-08 2.42782e-08 0)
(4.46215e-08 9.74254e-09 0)
(3.7978e-08 -3.66012e-09 0)
(2.80443e-08 -1.50437e-08 0)
(1.50348e-08 -2.35307e-08 0)
(-4.84241e-10 -2.83418e-08 0)
(-1.76516e-08 -2.88623e-08 0)
(-3.54292e-08 -2.46845e-08 0)
(-5.27341e-08 -1.56318e-08 0)
(-6.85516e-08 -1.77492e-09 0)
(-8.20125e-08 1.65586e-08 0)
(-9.2431e-08 3.87847e-08 0)
(-9.93086e-08 6.40793e-08 0)
(-1.0232e-07 9.14187e-08 0)
(-1.01297e-07 1.19644e-07 0)
(-9.62238e-08 1.47539e-07 0)
(-8.72297e-08 1.73907e-07 0)
(-7.45848e-08 1.97629e-07 0)
(-5.86882e-08 2.17706e-07 0)
(-4.00658e-08 2.33292e-07 0)
(-1.93876e-08 2.43732e-07 0)
(2.49831e-09 2.48614e-07 0)
(2.45423e-08 2.47806e-07 0)
(4.55126e-08 2.4148e-07 0)
(6.40785e-08 2.30097e-07 0)
(7.8948e-08 2.14376e-07 0)
(8.90297e-08 1.95242e-07 0)
(9.35826e-08 1.73783e-07 0)
(9.23317e-08 1.51192e-07 0)
(8.55393e-08 1.28699e-07 0)
(7.40271e-08 1.07481e-07 0)
(5.91352e-08 8.85557e-08 0)
(4.26029e-08 7.26894e-08 0)
(2.63623e-08 6.03345e-08 0)
(1.22647e-08 5.1608e-08 0)
(1.7903e-09 4.63066e-08 0)
(-4.19476e-09 4.39449e-08 0)
(-5.57297e-09 4.38066e-08 0)
(-2.97795e-09 4.50161e-08 0)
(2.33161e-09 4.66363e-08 0)
(8.69011e-09 4.77959e-08 0)
(1.4308e-08 4.78235e-08 0)
(1.75852e-08 4.63589e-08 0)
(1.74378e-08 4.34078e-08 0)
(1.35644e-08 3.93435e-08 0)
(6.56652e-09 3.486e-08 0)
(-2.21886e-09 3.08966e-08 0)
(-1.11946e-08 2.84908e-08 0)
(-1.91663e-08 2.85441e-08 0)
(-2.58057e-08 3.15022e-08 0)
(-3.15603e-08 3.71287e-08 0)
(-3.69205e-08 4.45646e-08 0)
(-4.16517e-08 5.27979e-08 0)
(-4.48407e-08 6.1259e-08 0)
(-4.60313e-08 7.00391e-08 0)
(-4.59686e-08 7.93599e-08 0)
(-4.50241e-08 8.86591e-08 0)
(-4.04852e-08 9.67124e-08 0)
(-2.92942e-08 1.03926e-07 0)
(-1.61624e-08 1.08173e-07 0)
(2.7363e-12 7.72172e-08 0)
(9.91373e-09 1.37894e-08 0)
(2.79724e-08 1.48047e-08 0)
(3.2237e-08 1.79305e-08 0)
(3.21323e-08 2.26177e-08 0)
(3.10885e-08 2.9762e-08 0)
(2.69167e-08 3.79307e-08 0)
(1.94905e-08 4.58252e-08 0)
(8.83187e-09 5.12781e-08 0)
(1.77469e-10 5.21052e-08 0)
(-2.81638e-09 4.79984e-08 0)
(-1.75511e-09 4.05374e-08 0)
(-4.89213e-10 3.18902e-08 0)
(-1.31792e-09 2.37294e-08 0)
(-4.01313e-09 1.69485e-08 0)
(-7.11736e-09 1.19979e-08 0)
(-9.61027e-09 9.41661e-09 0)
(-1.16489e-08 1.00632e-08 0)
(-1.41036e-08 1.48316e-08 0)
(-1.75345e-08 2.40724e-08 0)
(-2.15398e-08 3.72268e-08 0)
(-2.49545e-08 5.29616e-08 0)
(-2.66113e-08 6.96878e-08 0)
(-2.60045e-08 8.60668e-08 0)
(-2.34085e-08 1.01216e-07 0)
(-1.95013e-08 1.14599e-07 0)
(-1.48788e-08 1.25816e-07 0)
(-9.83435e-09 1.34511e-07 0)
(-4.49503e-09 1.40434e-07 0)
(9.06169e-10 1.43548e-07 0)
(5.93654e-09 1.44022e-07 0)
(1.01651e-08 1.42082e-07 0)
(1.3471e-08 1.37834e-07 0)
(1.6151e-08 1.31209e-07 0)
(1.87036e-08 1.22075e-07 0)
(2.14613e-08 1.10413e-07 0)
(2.43634e-08 9.64283e-08 0)
(2.70069e-08 8.05418e-08 0)
(2.8871e-08 6.33156e-08 0)
(2.95074e-08 4.53923e-08 0)
(2.85909e-08 2.74882e-08 0)
(2.58781e-08 1.04132e-08 0)
(2.11898e-08 -4.93294e-09 0)
(1.44642e-08 -1.76094e-08 0)
(5.84128e-09 -2.67125e-08 0)
(-4.29386e-09 -3.14534e-08 0)
(-1.53449e-08 -3.12182e-08 0)
(-2.65961e-08 -2.56069e-08 0)
(-3.73207e-08 -1.44575e-08 0)
(-4.68709e-08 2.14054e-09 0)
(-5.47341e-08 2.38431e-08 0)
(-6.0551e-08 5.00537e-08 0)
(-6.40995e-08 7.9934e-08 0)
(-6.52593e-08 1.12425e-07 0)
(-6.39783e-08 1.46289e-07 0)
(-6.02574e-08 1.80168e-07 0)
(-5.41564e-08 2.12661e-07 0)
(-4.58073e-08 2.42391e-07 0)
(-3.54227e-08 2.68064e-07 0)
(-2.33004e-08 2.88515e-07 0)
(-9.83466e-09 3.02764e-07 0)
(4.45619e-09 3.10079e-07 0)
(1.88991e-08 3.10052e-07 0)
(3.26618e-08 3.02669e-07 0)
(4.48025e-08 2.88348e-07 0)
(5.43772e-08 2.67928e-07 0)
(6.05817e-08 2.42634e-07 0)
(6.28862e-08 2.14002e-07 0)
(6.11316e-08 1.83785e-07 0)
(5.55747e-08 1.5383e-07 0)
(4.68849e-08 1.25926e-07 0)
(3.6097e-08 1.01631e-07 0)
(2.45153e-08 8.20956e-08 0)
(1.35599e-08 6.79401e-08 0)
(4.56035e-09 5.91957e-08 0)
(-1.47526e-09 5.53353e-08 0)
(-4.05614e-09 5.53731e-08 0)
(-3.31434e-09 5.80134e-08 0)
(2.13563e-11 6.18199e-08 0)
(4.77212e-09 6.53987e-08 0)
(9.54186e-09 6.75807e-08 0)
(1.29752e-08 6.75928e-08 0)
(1.40163e-08 6.51795e-08 0)
(1.21361e-08 6.06499e-08 0)
(7.51219e-09 5.48167e-08 0)
(1.05717e-09 4.88527e-08 0)
(-5.79974e-09 4.40625e-08 0)
(-1.16572e-08 4.16224e-08 0)
(-1.58105e-08 4.22827e-08 0)
(-1.86615e-08 4.61379e-08 0)
(-2.13805e-08 5.25466e-08 0)
(-2.48798e-08 6.03702e-08 0)
(-2.88218e-08 6.84654e-08 0)
(-3.18404e-08 7.62617e-08 0)
(-3.3057e-08 8.40912e-08 0)
(-3.32433e-08 9.30874e-08 0)
(-3.3378e-08 1.04393e-07 0)
(-3.16022e-08 1.17706e-07 0)
(-2.4411e-08 1.31569e-07 0)
(-1.38855e-08 1.39793e-07 0)
(-1.01102e-09 1.00048e-07 0)
(9.66111e-09 1.5591e-08 0)
(2.89873e-08 1.85709e-08 0)
(3.6282e-08 1.89342e-08 0)
(3.86131e-08 2.2675e-08 0)
(3.92417e-08 3.14755e-08 0)
(3.44985e-08 4.29157e-08 0)
(2.47294e-08 5.43674e-08 0)
(1.00995e-08 6.33097e-08 0)
(-3.4297e-09 6.71909e-08 0)
(-1.06639e-08 6.4807e-08 0)
(-1.19121e-08 5.68938e-08 0)
(-1.06928e-08 4.55612e-08 0)
(-9.7765e-09 3.33162e-08 0)
(-9.69491e-09 2.22555e-08 0)
(-9.52051e-09 1.37575e-08 0)
(-8.3475e-09 8.68384e-09 0)
(-6.25861e-09 7.76912e-09 0)
(-4.28362e-09 1.17249e-08 0)
(-3.56223e-09 2.09415e-08 0)
(-4.47206e-09 3.50747e-08 0)
(-6.39388e-09 5.29355e-08 0)
(-8.202e-09 7.28007e-08 0)
(-8.99957e-09 9.29314e-08 0)
(-8.54556e-09 1.11953e-07 0)
(-7.15435e-09 1.28921e-07 0)
(-5.27555e-09 1.43161e-07 0)
(-3.14811e-09 1.54102e-07 0)
(-7.90205e-10 1.6127e-07 0)
(1.74763e-09 1.64419e-07 0)
(4.17617e-09 1.63633e-07 0)
(6.05285e-09 1.59269e-07 0)
(7.09477e-09 1.51771e-07 0)
(7.41676e-09 1.41506e-07 0)
(7.46018e-09 1.28732e-07 0)
(7.67371e-09 1.13712e-07 0)
(8.222e-09 9.68272e-08 0)
(8.93741e-09 7.86292e-08 0)
(9.49014e-09 5.97936e-08 0)
(9.58632e-09 4.10587e-08 0)
(9.04355e-09 2.3194e-08 0)
(7.74991e-09 7.00196e-09 0)
(5.61307e-09 -6.68627e-09 0)
(2.57689e-09 -1.70468e-08 0)
(-1.30999e-09 -2.33254e-08 0)
(-5.84237e-09 -2.49002e-08 0)
(-1.06709e-08 -2.13255e-08 0)
(-1.53718e-08 -1.23552e-08 0)
(-1.95351e-08 2.04695e-09 0)
(-2.28371e-08 2.17047e-08 0)
(-2.50817e-08 4.62314e-08 0)
(-2.62075e-08 7.50334e-08 0)
(-2.62624e-08 1.07312e-07 0)
(-2.53545e-08 1.42066e-07 0)
(-2.35979e-08 1.78104e-07 0)
(-2.1079e-08 2.14082e-07 0)
(-1.78519e-08 2.48561e-07 0)
(-1.39587e-08 2.80086e-07 0)
(-9.45265e-09 3.07254e-07 0)
(-4.4131e-09 3.2878e-07 0)
(1.0452e-09 3.43561e-07 0)
(6.75518e-09 3.50745e-07 0)
(1.24699e-08 3.49819e-07 0)
(1.78406e-08 3.40703e-07 0)
(2.24273e-08 3.23811e-07 0)
(2.57579e-08 3.00071e-07 0)
(2.74252e-08 2.70883e-07 0)
(2.71874e-08 2.38032e-07 0)
(2.50363e-08 2.03557e-07 0)
(2.1214e-08 1.69598e-07 0)
(1.61849e-08 1.38212e-07 0)
(1.05804e-08 1.11169e-07 0)
(5.12852e-09 8.97491e-08 0)
(5.68052e-10 7.4582e-08 0)
(-2.46185e-09 6.55713e-08 0)
(-3.54923e-09 6.19351e-08 0)
(-2.62779e-09 6.23589e-08 0)
(-3.62224e-11 6.5225e-08 0)
(3.51586e-09 6.88721e-08 0)
(7.08775e-09 7.18368e-08 0)
(9.70923e-09 7.30551e-08 0)
(1.05977e-08 7.20006e-08 0)
(9.33297e-09 6.87553e-08 0)
(5.98895e-09 6.39811e-08 0)
(1.18806e-09 5.87979e-08 0)
(-3.95481e-09 5.45491e-08 0)
(-8.12618e-09 5.25122e-08 0)
(-1.03448e-08 5.35772e-08 0)
(-1.05839e-08 5.80044e-08 0)
(-9.99483e-09 6.53087e-08 0)
(-1.03607e-08 7.43962e-08 0)
(-1.28321e-08 8.38921e-08 0)
(-1.69253e-08 9.25902e-08 0)
(-2.08101e-08 9.98047e-08 0)
(-2.294e-08 1.05734e-07 0)
(-2.328e-08 1.11902e-07 0)
(-2.29276e-08 1.20962e-07 0)
(-2.22303e-08 1.34446e-07 0)
(-1.92517e-08 1.50198e-07 0)
(-1.2782e-08 1.58979e-07 0)
(-3.49053e-09 1.12138e-07 0)
(9.48325e-09 1.61416e-08 0)
(2.8996e-08 1.97667e-08 0)
(3.99746e-08 1.83617e-08 0)
(4.69008e-08 2.12349e-08 0)
(5.0814e-08 2.97732e-08 0)
(4.61948e-08 4.16297e-08 0)
(3.40168e-08 5.37361e-08 0)
(1.51779e-08 6.36916e-08 0)
(-3.89144e-09 6.90939e-08 0)
(-1.6802e-08 6.82439e-08 0)
(-2.23543e-08 6.10642e-08 0)
(-2.30152e-08 4.92397e-08 0)
(-2.14098e-08 3.55239e-08 0)
(-1.86907e-08 2.26904e-08 0)
(-1.47999e-08 1.27214e-08 0)
(-9.41409e-09 6.66998e-09 0)
(-2.79378e-09 5.05511e-09 0)
(3.95943e-09 8.28307e-09 0)
(9.37241e-09 1.66609e-08 0)
(1.24244e-08 3.00671e-08 0)
(1.30683e-08 4.76467e-08 0)
(1.20974e-08 6.78591e-08 0)
(1.05349e-08 8.88624e-08 0)
(9.04275e-09 1.08976e-07 0)
(7.73049e-09 1.26931e-07 0)
(6.39518e-09 1.41844e-07 0)
(4.89901e-09 1.53048e-07 0)
(3.33817e-09 1.60001e-07 0)
(1.89276e-09 1.62368e-07 0)
(5.68091e-10 1.60151e-07 0)
(-8.68264e-10 1.53734e-07 0)
(-2.66719e-09 1.43746e-07 0)
(-4.81303e-09 1.30867e-07 0)
(-6.95738e-09 1.15704e-07 0)
(-8.63431e-09 9.88129e-08 0)
(-9.5528e-09 8.07805e-08 0)
(-9.72006e-09 6.22794e-08 0)
(-9.33857e-09 4.4043e-08 0)
(-8.62092e-09 2.68073e-08 0)
(-7.69232e-09 1.12771e-08 0)
(-6.6197e-09 -1.87061e-09 0)
(-5.48015e-09 -1.19764e-08 0)
(-4.37382e-09 -1.84178e-08 0)
(-3.36988e-09 -2.06572e-08 0)
(-2.44543e-09 -1.82946e-08 0)
(-1.47573e-09 -1.11009e-08 0)
(-2.82933e-10 9.71871e-10 0)
(1.29052e-09 1.77941e-08 0)
(3.32048e-09 3.90658e-08 0)
(5.76758e-09 6.43263e-08 0)
(8.47301e-09 9.29644e-08 0)
(1.1183e-08 1.24225e-07 0)
(1.36001e-08 1.57209e-07 0)
(1.54503e-08 1.90873e-07 0)
(1.65409e-08 2.2404e-07 0)
(1.67869e-08 2.55442e-07 0)
(1.62004e-08 2.8378e-07 0)
(1.48604e-08 3.07805e-07 0)
(1.2885e-08 3.26385e-07 0)
(1.04178e-08 3.38566e-07 0)
(7.61842e-09 3.43629e-07 0)
(4.64501e-09 3.41163e-07 0)
(1.6249e-09 3.31136e-07 0)
(-1.36805e-09 3.13968e-07 0)
(-4.30856e-09 2.90551e-07 0)
(-7.18093e-09 2.62215e-07 0)
(-9.92468e-09 2.3064e-07 0)
(-1.23974e-08 1.97719e-07 0)
(-1.43801e-08 1.65403e-07 0)
(-1.56232e-08 1.35541e-07 0)
(-1.59113e-08 1.09697e-07 0)
(-1.51141e-08 8.89857e-08 0)
(-1.32124e-08 7.39163e-08 0)
(-1.03029e-08 6.43188e-08 0)
(-6.60117e-09 5.9375e-08 0)
(-2.44892e-09 5.7776e-08 0)
(1.68604e-09 5.79844e-08 0)
(5.24791e-09 5.85326e-08 0)
(7.67918e-09 5.82952e-08 0)
(8.55131e-09 5.66668e-08 0)
(7.68855e-09 5.36371e-08 0)
(5.2617e-09 4.97482e-08 0)
(1.8145e-09 4.59747e-08 0)
(-1.76351e-09 4.35158e-08 0)
(-4.38617e-09 4.35456e-08 0)
(-5.07579e-09 4.69131e-08 0)
(-3.46901e-09 5.3889e-08 0)
(-2.73123e-10 6.40065e-08 0)
(2.69128e-09 7.61439e-08 0)
(3.26137e-09 8.88061e-08 0)
(2.15845e-10 1.00552e-07 0)
(-5.79878e-09 1.10265e-07 0)
(-1.26548e-08 1.17251e-07 0)
(-1.79563e-08 1.21414e-07 0)
(-1.99944e-08 1.2407e-07 0)
(-1.87644e-08 1.28555e-07 0)
(-1.71532e-08 1.38132e-07 0)
(-1.66164e-08 1.51621e-07 0)
(-1.38756e-08 1.58876e-07 0)
(-6.93199e-09 1.10705e-07 0)
(8.15615e-09 1.71636e-08 0)
(2.74535e-08 2.11816e-08 0)
(4.29975e-08 1.78651e-08 0)
(5.55252e-08 1.9263e-08 0)
(6.29194e-08 2.55414e-08 0)
(5.85277e-08 3.48913e-08 0)
(4.41145e-08 4.45771e-08 0)
(2.15482e-08 5.28028e-08 0)
(-2.54434e-09 5.77874e-08 0)
(-2.11695e-08 5.78065e-08 0)
(-3.17604e-08 5.21566e-08 0)
(-3.53662e-08 4.18067e-08 0)
(-3.39285e-08 2.91375e-08 0)
(-2.89352e-08 1.69577e-08 0)
(-2.1289e-08 7.48421e-09 0)
(-1.15808e-08 1.87674e-09 0)
(-5.08542e-10 4.85751e-10 0)
(1.07613e-08 3.38128e-09 0)
(2.06639e-08 1.06513e-08 0)
(2.77778e-08 2.22552e-08 0)
(3.14326e-08 3.76798e-08 0)
(3.18997e-08 5.57575e-08 0)
(3.00591e-08 7.48429e-08 0)
(2.68223e-08 9.32223e-08 0)
(2.27288e-08 1.09487e-07 0)
(1.79394e-08 1.22662e-07 0)
(1.25234e-08 1.32117e-07 0)
(6.71729e-09 1.3742e-07 0)
(9.1094e-10 1.3832e-07 0)
(-4.58325e-09 1.34836e-07 0)
(-9.69714e-09 1.27331e-07 0)
(-1.45137e-08 1.16453e-07 0)
(-1.90079e-08 1.0298e-07 0)
(-2.28954e-08 8.76698e-08 0)
(-2.57425e-08 7.12281e-08 0)
(-2.72251e-08 5.43443e-08 0)
(-2.7294e-08 3.77259e-08 0)
(-2.61241e-08 2.20715e-08 0)
(-2.39381e-08 8.01254e-09 0)
(-2.08813e-08 -3.91576e-09 0)
(-1.703e-08 -1.32531e-08 0)
(-1.24731e-08 -1.95746e-08 0)
(-7.36025e-09 -2.24815e-08 0)
(-1.86924e-09 -2.16341e-08 0)
(3.85975e-09 -1.68049e-08 0)
(9.75768e-09 -7.91652e-09 0)
(1.58e-08 4.94591e-09 0)
(2.19458e-08 2.1542e-08 0)
(2.80835e-08 4.14881e-08 0)
(3.40034e-08 6.42725e-08 0)
(3.93974e-08 8.92752e-08 0)
(4.38812e-08 1.1579e-07 0)
(4.70391e-08 1.4304e-07 0)
(4.84905e-08 1.70185e-07 0)
(4.79625e-08 1.9632e-07 0)
(4.53405e-08 2.20497e-07 0)
(4.06792e-08 2.4176e-07 0)
(3.41764e-08 2.59211e-07 0)
(2.61331e-08 2.72071e-07 0)
(1.69252e-08 2.79733e-07 0)
(6.98921e-09 2.81794e-07 0)
(-3.19017e-09 2.78084e-07 0)
(-1.31068e-08 2.68708e-07 0)
(-2.22745e-08 2.54083e-07 0)
(-3.02658e-08 2.34958e-07 0)
(-3.67285e-08 2.12388e-07 0)
(-4.13793e-08 1.87657e-07 0)
(-4.3993e-08 1.62161e-07 0)
(-4.44133e-08 1.37279e-07 0)
(-4.25973e-08 1.14252e-07 0)
(-3.86773e-08 9.40833e-08 0)
(-3.30032e-08 7.74395e-08 0)
(-2.61332e-08 6.45704e-08 0)
(-1.8765e-08 5.52547e-08 0)
(-1.16259e-08 4.8816e-08 0)
(-5.36523e-09 4.42412e-08 0)
(-4.71894e-10 4.04009e-08 0)
(2.76739e-09 3.63328e-08 0)
(4.28889e-09 3.14986e-08 0)
(4.25366e-09 2.5941e-08 0)
(3.04678e-09 2.02794e-08 0)
(1.25337e-09 1.5565e-08 0)
(-3.7285e-10 1.30278e-08 0)
(-9.91486e-10 1.38039e-08 0)
(1.76859e-10 1.86614e-08 0)
(3.54488e-09 2.7785e-08 0)
(8.77158e-09 4.0617e-08 0)
(1.44649e-08 5.58787e-08 0)
(1.83994e-08 7.17944e-08 0)
(1.83806e-08 8.65636e-08 0)
(1.34575e-08 9.8809e-08 0)
(4.49633e-09 1.07801e-07 0)
(-6.2811e-09 1.13296e-07 0)
(-1.59922e-08 1.15464e-07 0)
(-2.11331e-08 1.1549e-07 0)
(-1.97523e-08 1.16467e-07 0)
(-1.63388e-08 1.22149e-07 0)
(-1.62242e-08 1.32475e-07 0)
(-1.56407e-08 1.38417e-07 0)
(-1.00226e-08 9.60991e-08 0)
(5.59463e-09 1.99057e-08 0)
(2.41604e-08 2.49734e-08 0)
(4.41125e-08 1.9384e-08 0)
(6.23038e-08 1.79037e-08 0)
(7.26917e-08 1.99131e-08 0)
(6.84694e-08 2.43617e-08 0)
(5.2272e-08 2.93899e-08 0)
(2.70805e-08 3.40632e-08 0)
(-5.54174e-10 3.7423e-08 0)
(-2.3637e-08 3.80421e-08 0)
(-3.87175e-08 3.48214e-08 0)
(-4.54697e-08 2.78946e-08 0)
(-4.48586e-08 1.87468e-08 0)
(-3.83137e-08 9.57721e-09 0)
(-2.74879e-08 2.36971e-09 0)
(-1.39416e-08 -1.72751e-09 0)
(9.91468e-10 -2.43247e-09 0)
(1.59888e-08 1.01638e-10 0)
(2.95236e-08 5.7109e-09 0)
(4.0043e-08 1.43146e-08 0)
(4.64485e-08 2.56728e-08 0)
(4.84794e-08 3.91066e-08 0)
(4.66835e-08 5.34475e-08 0)
(4.20143e-08 6.72852e-08 0)
(3.53522e-08 7.93312e-08 0)
(2.72756e-08 8.8669e-08 0)
(1.81685e-08 9.47754e-08 0)
(8.4639e-09 9.74044e-08 0)
(-1.26942e-09 9.64916e-08 0)
(-1.04803e-08 9.2164e-08 0)
(-1.88368e-08 8.47867e-08 0)
(-2.62322e-08 7.49432e-08 0)
(-3.25802e-08 6.33231e-08 0)
(-3.76237e-08 5.06017e-08 0)
(-4.09641e-08 3.7397e-08 0)
(-4.22838e-08 2.43029e-08 0)
(-4.15413e-08 1.19197e-08 0)
(-3.89633e-08 8.23855e-10 0)
(-3.48688e-08 -8.50401e-09 0)
(-2.94992e-08 -1.57234e-08 0)
(-2.29848e-08 -2.06094e-08 0)
(-1.54304e-08 -2.29853e-08 0)
(-7.00395e-09 -2.26744e-08 0)
(2.05243e-09 -1.95088e-08 0)
(1.14788e-08 -1.33806e-08 0)
(2.10496e-08 -4.29738e-09 0)
(3.05743e-08 7.59025e-09 0)
(3.98536e-08 2.19882e-08 0)
(4.86326e-08 3.84725e-08 0)
(5.65817e-08 5.651e-08 0)
(6.33045e-08 7.54869e-08 0)
(6.83627e-08 9.47497e-08 0)
(7.13124e-08 1.13647e-07 0)
(7.17578e-08 1.31557e-07 0)
(6.94185e-08 1.479e-07 0)
(6.41922e-08 1.62136e-07 0)
(5.61865e-08 1.73778e-07 0)
(4.57061e-08 1.82416e-07 0)
(3.32084e-08 1.87758e-07 0)
(1.92557e-08 1.89656e-07 0)
(4.4836e-09 1.8811e-07 0)
(-1.04152e-08 1.83256e-07 0)
(-2.47124e-08 1.75361e-07 0)
(-3.76853e-08 1.64816e-07 0)
(-4.86758e-08 1.52146e-07 0)
(-5.71473e-08 1.37999e-07 0)
(-6.27186e-08 1.23096e-07 0)
(-6.51754e-08 1.08158e-07 0)
(-6.44745e-08 9.38113e-08 0)
(-6.07645e-08 8.05291e-08 0)
(-5.44227e-08 6.85952e-08 0)
(-4.60862e-08 5.81057e-08 0)
(-3.66351e-08 4.89777e-08 0)
(-2.70987e-08 4.09518e-08 0)
(-1.84881e-08 3.36046e-08 0)
(-1.15975e-08 2.64004e-08 0)
(-6.84156e-09 1.88187e-08 0)
(-4.17943e-09 1.05478e-08 0)
(-3.15625e-09 1.6946e-09 0)
(-3.03211e-09 -7.09137e-09 0)
(-2.96276e-09 -1.46483e-08 0)
(-2.15197e-09 -1.95262e-08 0)
(4.24977e-11 -2.03256e-08 0)
(4.06234e-09 -1.60674e-08 0)
(1.00506e-08 -6.46187e-09 0)
(1.76646e-08 7.93732e-09 0)
(2.57981e-08 2.57517e-08 0)
(3.25128e-08 4.49402e-08 0)
(3.54333e-08 6.31905e-08 0)
(3.27313e-08 7.84158e-08 0)
(2.41139e-08 8.924e-08 0)
(1.10573e-08 9.51722e-08 0)
(-3.94698e-09 9.65391e-08 0)
(-1.76715e-08 9.43396e-08 0)
(-2.54396e-08 9.04373e-08 0)
(-2.36259e-08 8.78285e-08 0)
(-1.76323e-08 8.98745e-08 0)
(-1.60979e-08 9.70507e-08 0)
(-1.60876e-08 1.02211e-07 0)
(-1.15326e-08 7.13098e-08 0)
(2.36037e-09 2.65767e-08 0)
(1.88547e-08 3.43508e-08 0)
(4.18575e-08 2.65155e-08 0)
(6.44984e-08 2.07354e-08 0)
(7.69065e-08 1.63735e-08 0)
(7.29219e-08 1.3552e-08 0)
(5.59769e-08 1.18634e-08 0)
(2.99672e-08 1.14537e-08 0)
(1.11921e-09 1.21914e-08 0)
(-2.41061e-08 1.30498e-08 0)
(-4.19538e-08 1.27485e-08 0)
(-5.11102e-08 1.06426e-08 0)
(-5.15691e-08 7.07305e-09 0)
(-4.43813e-08 3.11927e-09 0)
(-3.15296e-08 4.06685e-11 0)
(-1.53147e-08 -1.29812e-09 0)
(2.27318e-09 -6.74816e-10 0)
(1.96407e-08 1.65296e-09 0)
(3.53228e-08 5.33519e-09 0)
(4.7854e-08 1.0184e-08 0)
(5.60022e-08 1.61352e-08 0)
(5.91467e-08 2.30019e-08 0)
(5.74692e-08 3.02794e-08 0)
(5.17861e-08 3.71729e-08 0)
(4.31444e-08 4.28316e-08 0)
(3.24713e-08 4.66074e-08 0)
(2.04955e-08 4.81749e-08 0)
(7.89065e-09 4.74859e-08 0)
(-4.60959e-09 4.46711e-08 0)
(-1.62958e-08 3.99927e-08 0)
(-2.66751e-08 3.38441e-08 0)
(-3.55333e-08 2.67198e-08 0)
(-4.27728e-08 1.912e-08 0)
(-4.81904e-08 1.14499e-08 0)
(-5.14333e-08 3.99854e-09 0)
(-5.21849e-08 -2.99011e-09 0)
(-5.0395e-08 -9.23694e-09 0)
(-4.63341e-08 -1.44218e-08 0)
(-4.04347e-08 -1.82569e-08 0)
(-3.30719e-08 -2.05637e-08 0)
(-2.44633e-08 -2.12813e-08 0)
(-1.473e-08 -2.04018e-08 0)
(-4.02117e-09 -1.78956e-08 0)
(7.41638e-09 -1.36896e-08 0)
(1.92582e-08 -7.71041e-09 0)
(3.11602e-08 4.44463e-11 0)
(4.27881e-08 9.45199e-09 0)
(5.38013e-08 2.02451e-08 0)
(6.38219e-08 3.20214e-08 0)
(7.24257e-08 4.42662e-08 0)
(7.91646e-08 5.63896e-08 0)
(8.36027e-08 6.77798e-08 0)
(8.5351e-08 7.7871e-08 0)
(8.41022e-08 8.62045e-08 0)
(7.9674e-08 9.24661e-08 0)
(7.20601e-08 9.6491e-08 0)
(6.14653e-08 9.82522e-08 0)
(4.83053e-08 9.78492e-08 0)
(3.31641e-08 9.55033e-08 0)
(1.6731e-08 9.15497e-08 0)
(-2.53191e-10 8.64103e-08 0)
(-1.70255e-08 8.05434e-08 0)
(-3.28168e-08 7.4386e-08 0)
(-4.68771e-08 6.83101e-08 0)
(-5.85259e-08 6.26054e-08 0)
(-6.72197e-08 5.74804e-08 0)
(-7.26108e-08 5.30587e-08 0)
(-7.45774e-08 4.93575e-08 0)
(-7.32218e-08 4.6255e-08 0)
(-6.88566e-08 4.34739e-08 0)
(-6.19987e-08 4.0607e-08 0)
(-5.33741e-08 3.71896e-08 0)
(-4.39034e-08 3.27942e-08 0)
(-3.463e-08 2.71067e-08 0)
(-2.65612e-08 1.99586e-08 0)
(-2.04452e-08 1.13273e-08 0)
(-1.65466e-08 1.34312e-09 0)
(-1.45236e-08 -9.65019e-09 0)
(-1.34747e-08 -2.09916e-08 0)
(-1.21792e-08 -3.16101e-08 0)
(-9.44419e-09 -4.00541e-08 0)
(-4.4395e-09 -4.46959e-08 0)
(3.12691e-09 -4.41112e-08 0)
(1.29926e-08 -3.74861e-08 0)
(2.44112e-08 -2.49309e-08 0)
(3.61289e-08 -7.55179e-09 0)
(4.63171e-08 1.2691e-08 0)
(5.26414e-08 3.33479e-08 0)
(5.28144e-08 5.19267e-08 0)
(4.55362e-08 6.63623e-08 0)
(3.13551e-08 7.52775e-08 0)
(1.26201e-08 7.81014e-08 0)
(-7.36108e-09 7.51596e-08 0)
(-2.46233e-08 6.79619e-08 0)
(-3.36405e-08 5.92334e-08 0)
(-3.00777e-08 5.23356e-08 0)
(-2.01896e-08 5.02176e-08 0)
(-1.53643e-08 5.36358e-08 0)
(-1.44707e-08 5.77208e-08 0)
(-1.11213e-08 4.08503e-08 0)
(-7.735e-10 3.65222e-08 0)
(1.20997e-08 4.8832e-08 0)
(3.57713e-08 3.94826e-08 0)
(6.01111e-08 2.88188e-08 0)
(7.27626e-08 1.67337e-08 0)
(6.9066e-08 4.8929e-09 0)
(5.29008e-08 -5.11407e-09 0)
(2.84975e-08 -1.18096e-08 0)
(1.35449e-09 -1.45626e-08 0)
(-2.29987e-08 -1.40358e-08 0)
(-4.10274e-08 -1.15687e-08 0)
(-5.09534e-08 -8.39777e-09 0)
(-5.20949e-08 -5.31181e-09 0)
(-4.49963e-08 -2.57961e-09 0)
(-3.15382e-08 -6.57934e-11 0)
(-1.43198e-08 2.48417e-09 0)
(4.20695e-09 5.11255e-09 0)
(2.21563e-08 7.54821e-09 0)
(3.80819e-08 9.38418e-09 0)
(5.07304e-08 1.03651e-08 0)
(5.90182e-08 1.05181e-08 0)
(6.22587e-08 1.00536e-08 0)
(6.04043e-08 9.14269e-09 0)
(5.40717e-08 7.77712e-09 0)
(4.42928e-08 5.8053e-09 0)
(3.21708e-08 3.08919e-09 0)
(1.8684e-08 -3.67662e-10 0)
(4.7122e-09 -4.40119e-09 0)
(-8.87767e-09 -8.74291e-09 0)
(-2.12857e-08 -1.3065e-08 0)
(-3.1961e-08 -1.6997e-08 0)
(-4.07014e-08 -2.01668e-08 0)
(-4.75186e-08 -2.23054e-08 0)
(-5.23708e-08 -2.33582e-08 0)
(-5.5021e-08 -2.35022e-08 0)
(-5.51584e-08 -2.3032e-08 0)
(-5.2658e-08 -2.21924e-08 0)
(-4.77287e-08 -2.108e-08 0)
(-4.08211e-08 -1.96705e-08 0)
(-3.23929e-08 -1.79151e-08 0)
(-2.27361e-08 -1.58056e-08 0)
(-1.19796e-08 -1.33584e-08 0)
(-2.22225e-10 -1.05495e-08 0)
(1.23386e-08 -7.27534e-09 0)
(2.53695e-08 -3.38217e-09 0)
(3.84431e-08 1.25361e-09 0)
(5.10908e-08 6.64357e-09 0)
(6.28241e-08 1.2642e-08 0)
(7.31308e-08 1.89422e-08 0)
(8.14842e-08 2.50993e-08 0)
(8.73832e-08 3.0572e-08 0)
(9.04083e-08 3.47832e-08 0)
(9.02661e-08 3.72042e-08 0)
(8.68128e-08 3.74457e-08 0)
(8.00648e-08 3.53314e-08 0)
(7.02129e-08 3.09297e-08 0)
(5.76361e-08 2.4543e-08 0)
(4.28959e-08 1.66697e-08 0)
(2.66946e-08 7.95898e-09 0)
(9.80336e-09 -8.36792e-10 0)
(-7.01135e-09 -8.92317e-09 0)
(-2.30359e-08 -1.55456e-08 0)
(-3.76242e-08 -2.00859e-08 0)
(-5.01981e-08 -2.21487e-08 0)
(-6.02628e-08 -2.16102e-08 0)
(-6.74493e-08 -1.86188e-08 0)
(-7.15705e-08 -1.3563e-08 0)
(-7.26609e-08 -7.03024e-09 0)
(-7.09765e-08 2.25961e-10 0)
(-6.69563e-08 7.31976e-09 0)
(-6.11698e-08 1.32936e-08 0)
(-5.42789e-08 1.7226e-08 0)
(-4.70177e-08 1.83777e-08 0)
(-4.01598e-08 1.63306e-08 0)
(-3.4428e-08 1.10663e-08 0)
(-3.03192e-08 2.94957e-09 0)
(-2.78829e-08 -7.35422e-09 0)
(-2.6547e-08 -1.89702e-08 0)
(-2.51284e-08 -3.08463e-08 0)
(-2.20936e-08 -4.17363e-08 0)
(-1.6039e-08 -5.01962e-08 0)
(-6.19045e-09 -5.47165e-08 0)
(7.28415e-09 -5.40157e-08 0)
(2.32967e-08 -4.74485e-08 0)
(4.00729e-08 -3.53202e-08 0)
(5.54229e-08 -1.89708e-08 0)
(6.68961e-08 -5.11789e-10 0)
(7.20205e-08 1.76556e-08 0)
(6.87958e-08 3.34025e-08 0)
(5.64885e-08 4.51849e-08 0)
(3.62457e-08 5.20159e-08 0)
(1.11198e-08 5.32097e-08 0)
(-1.45551e-08 4.8564e-08 0)
(-3.54331e-08 3.91214e-08 0)
(-4.49798e-08 2.7638e-08 0)
(-3.87616e-08 1.75054e-08 0)
(-2.40568e-08 1.13542e-08 0)
(-1.44834e-08 1.03698e-08 0)
(-1.15368e-08 1.24385e-08 0)
(-9.29646e-09 9.4355e-09 0)
(-3.00859e-09 4.65321e-08 0)
(5.13437e-09 6.40148e-08 0)
(2.64369e-08 5.40136e-08 0)
(4.85425e-08 3.87838e-08 0)
(5.89457e-08 1.89761e-08 0)
(5.53798e-08 -2.16391e-09 0)
(4.17359e-08 -2.0828e-08 0)
(2.16641e-08 -3.40668e-08 0)
(-6.36201e-10 -4.05601e-08 0)
(-2.09045e-08 -4.07339e-08 0)
(-3.61846e-08 -3.59584e-08 0)
(-4.4735e-08 -2.78823e-08 0)
(-4.56347e-08 -1.82035e-08 0)
(-3.90295e-08 -8.48616e-09 0)
(-2.63844e-08 1.28945e-10 0)
(-1.0093e-08 7.01813e-09 0)
(7.33158e-09 1.18796e-08 0)
(2.38505e-08 1.44544e-08 0)
(3.80192e-08 1.4454e-08 0)
(4.88109e-08 1.17051e-08 0)
(5.54647e-08 6.34574e-09 0)
(5.75083e-08 -1.13092e-09 0)
(5.49093e-08 -1.0007e-08 0)