/*--------------------------------*- C++ -*----------------------------------*\
| =========                 |                                                 |
| \\      /  F ield         | OpenFOAM: The Open Source CFD Toolbox           |
|  \\    /   O peration     | Version:  2406                                  |
|   \\  /    A nd           | Website:  www.openfoam.com                      |
|    \\/     M anipulation  |                                                 |
\*---------------------------------------------------------------------------*/
FoamFile
{
    version     2.0;
    format      ascii;
    arch        "LSB;label=32;scalar=64";
    class       volScalarField;
    location    "0.8";
    object      epsilon;
}
// * * * * * * * * * * * * * * * * * * * * * * * * * * * * * * * * * * * * * //

dimensions      [0 2 -3 0 0 0 0];

internalField   nonuniform List<scalar> 
2268
(
3.11056
4.22461
4.22461
4.22461
4.22461
4.22461
4.22461
4.22461
4.22461
4.22461
4.22461
4.22461
4.22461
0.0828401
0.0181222
0.0284029
0.0358032
0.0399911
0.0411378
0.0389307
0.0326496
0.0213353
0.00491861
1.99652
3.53904
3.87395
3.99094
4.04704
4.07915
4.09939
4.11284
4.12192
4.12796
4.13166
4.13343
4.13343
0.0920081
0.0178921
0.0194267
0.0224253
0.0242785
0.0247282
0.023588
0.0205683
0.0153989
0.00886154
1.99652
3.12319
3.57196
3.77087
3.87483
3.93634
3.9757
4.00204
4.01993
4.03183
4.03915
4.04265
4.04265
0.097097
0.0214193
0.0200807
0.0218469
0.0231328
0.0234352
0.022567
0.0203663
0.0168225
0.0144909
1.99652
2.85875
3.32579
3.572
3.71211
3.79847
3.85492
3.89313
3.91926
3.93673
3.9475
3.95264
3.95264
0.103753
0.0249244
0.0218728
0.0229197
0.0238987
0.0241498
0.0234828
0.0218248
0.0193463
0.0199492
1.99652
2.68257
3.12893
3.39683
3.5614
3.66728
3.73821
3.78692
3.82053
3.84313
3.8571
3.86379
3.86379
0.110111
0.0281499
0.0238708
0.0243909
0.0251511
0.0253914
0.024932
0.0238002
0.0223842
0.0257085
1.99652
2.55993
2.97193
3.24473
3.4238
3.5439
3.62646
3.68409
3.72426
3.75145
3.76833
3.77643
3.77643
0.116072
0.0311
0.0258198
0.0259051
0.0264871
0.0267382
0.0265033
0.0259482
0.025883
0.0329833
1.99652
2.47111
2.84601
3.11357
3.29937
3.4289
3.52027
3.58515
3.63089
3.66207
3.68153
3.69088
3.69088
0.121717
0.0338028
0.0276085
0.0272984
0.0277193
0.0279893
0.0279823
0.028042
0.0298333
0.0456188
1.99652
2.40455
2.74408
3.00067
3.1875
3.32243
3.42
3.49049
3.54077
3.57532
3.59698
3.60742
3.60742
0.127115
0.0362633
0.0291613
0.0284648
0.0287293
0.0290138
0.0292094
0.0298067
0.0337
0.078966
0.00583017
0.0279032
0.0442252
0.0551247
0.0622175
0.0667487
0.0694881
0.070875
0.071147
0.070417
0.0687161
0.0660164
0.0622433
0.0572802
0.0509627
0.0430559
0.0331996
0.0208
0.00539566
0.00983596
0.0188314
0.0260789
0.0310959
0.0344308
0.0365888
0.0379069
0.0385893
0.0387509
0.0384467
0.0376898
0.0364607
0.034713
0.0323751
0.0293484
0.0255017
0.0206672
0.014697
0.00816548
0.0163199
0.0199354
0.0248538
0.0284735
0.0309661
0.0326141
0.0336341
0.0341693
0.0343048
0.0340821
0.0335089
0.0325659
0.03121
0.0293758
0.0269767
0.0239083
0.0200745
0.0155514
0.0125436
0.0228354
0.0225548
0.0259805
0.0287635
0.0307822
0.0321577
0.0330231
0.0334808
0.0335964
0.0334022
0.0329025
0.0320766
0.030882
0.029256
0.027118
0.0243812
0.021
0.0172116
0.0165405
0.0298491
0.0258036
0.0277935
0.0298447
0.0314735
0.0326332
0.0333784
0.0337743
0.0338687
0.0336855
0.033225
0.0324655
0.0313647
0.0298617
0.027882
0.0253537
0.0222717
0.018997
0.0201554
0.0387336
0.0294919
0.0297927
0.0311169
0.0323815
0.0333435
0.0339788
0.0343168
0.0343878
0.0342073
0.0337716
0.0330577
0.0320242
0.0306126
0.0287549
0.0263943
0.023561
0.0207197
0.0234833
0.0537451
0.0334693
0.0316827
0.0322988
0.0332229
0.0339985
0.0345287
0.0348098
0.0348555
0.034673
0.0342548
0.0335769
0.0325989
0.0312662
0.0295186
0.0273153
0.024721
0.0222994
0.0266095
0.0904972
0.0370535
0.0331785
0.0332144
0.0338408
0.0344444
0.0348745
0.0350997
0.0351191
0.0349317
0.0345267
0.0338794
0.0329514
0.0316928
0.0300529
0.028009
0.025662
0.023683
0.0295908
1.99652
2.32441
2.61366
2.8485
3.03072
3.169
3.27269
3.34955
3.40536
3.44417
3.4687
3.48057
3.48057
0.135157
0.039678
0.0311254
0.0298325
0.0298567
0.0301481
0.030576
0.0315601
0.0346609
0.0458796
1.99652
2.25444
2.49121
2.69467
2.86184
2.99523
3.0994
3.17909
3.23832
3.2802
3.30696
3.32
3.32
0.14465
0.0437482
0.0336069
0.0316795
0.0314389
0.0316866
0.0321991
0.0331666
0.0351929
0.0394541
1.99652
2.20583
2.40242
2.57749
2.7271
2.85097
2.95086
3.0293
3.0888
3.13152
3.1591
3.17262
3.17262
0.15286
0.0473022
0.0358665
0.0334368
0.0329746
0.0331454
0.0336345
0.0344706
0.0358652
0.0380829
1.99652
2.17008
2.33538
2.48605
2.61836
2.73093
2.824
2.89864
2.95624
2.99814
3.02544
3.03889
3.03889
0.16001
0.050393
0.037847
0.0349988
0.0343444
0.0344262
0.0348581
0.0355782
0.0366563
0.038194
1.99652
2.14268
2.28313
2.41317
2.52957
2.63061
2.71575
2.7852
2.83955
2.87952
2.90576
2.91876
2.91876
0.166245
0.0530835
0.039559
0.0363489
0.0355246
0.0355179
0.0358888
0.0365265
0.0374493
0.0387319
1.99652
2.12103
2.24141
2.35407
2.4563
2.54636
2.62336
2.68701
2.73739
2.77477
2.79948
2.81176
2.81176
0.17167
0.0554229
0.0410276
0.0374988
0.0365232
0.0364341
0.0367492
0.0373292
0.0381705
0.0393412
1.99652
2.10357
2.2075
2.3055
2.39531
2.47531
2.54447
2.60223
2.64836
2.68284
2.70575
2.71717
2.71717
0.176369
0.0574507
0.0422814
0.0384702
0.0373602
0.0371963
0.0374623
0.0379995
0.0387918
0.0399025
1.99652
2.08927
2.17958
2.2652
2.34424
2.41522
2.4771
2.5292
2.5711
2.6026
2.62362
2.63413
2.63413
0.18042
0.0592027
0.0433485
0.039288
0.0380587
0.037828
0.0380508
0.0385539
0.0393123
0.0403837
1.99652
2.07745
2.15641
2.23156
2.30131
2.36433
2.41963
2.46646
2.50435
2.53296
2.55212
2.56172
2.56172
0.183899
0.0607139
0.044257
0.0399771
0.0386425
0.0383523
0.0385368
0.0390111
0.039743
0.0407849
1.99652
2.06761
2.13707
2.20339
2.26517
2.32125
2.3707
2.41278
2.44696
2.47288
2.49027
2.499
2.499
0.186885
0.062021
0.0450358
0.0405629
0.0391349
0.0387911
0.0389408
0.0393896
0.0400992
0.0411169
1.99652
2.05941
2.12093
2.17979
2.23478
2.28488
2.32921
2.36708
2.39794
2.4214
2.43718
2.44511
2.44511
0.189457
0.0631642
0.0457155
0.0410711
0.0395583
0.0391647
0.0392816
0.0397064
0.0403958
0.0413928
1.99652
2.05259
2.10749
2.16009
2.20935
2.25434
2.29426
2.32846
2.3564
2.37768
2.39203
2.39924
2.39924
0.191701
0.0641905
0.0463302
0.0415289
0.0399352
0.0394922
0.0395759
0.0399764
0.0406462
0.0416243
1.99652
2.04695
2.09637
2.14377
2.18823
2.22892
2.2651
2.29616
2.32158
2.34098
2.35407
2.36066
2.36066
0.193719
0.065158
0.0469203
0.0419657
0.040288
0.0397913
0.0398382
0.0402123
0.0408616
0.0418211
1.99652
2.04235
2.08728
2.13042
2.17093
2.20806
2.24112
2.26955
2.29286
2.31066
2.32269
2.32875
2.32875
0.19564
0.0661455
0.0475354
0.0424137
0.040638
0.0400772
0.0400805
0.040424
0.0410506
0.0419911
1.99652
2.03867
2.08001
2.11972
2.15705
2.19129
2.22183
2.24811
2.26969
2.28619
2.29734
2.30296
2.30296
0.197663
0.0672682
0.0482368
0.0429045
0.0410024
0.0403606
0.0403107
0.0406185
0.0412197
0.0421402
1.99652
2.03582
2.07438
2.11143
2.14628
2.17828
2.20684
2.23144
2.25165
2.26712
2.27757
2.28285
2.28285
0.200136
0.0686992
0.0490881
0.0434573
0.0413856
0.0406428
0.0405307
0.0407984
0.0413725
0.0422724
1.99652
2.03374
2.07026
2.10536
2.1384
2.16875
2.19585
2.21921
2.23841
2.25311
2.26305
2.26807
2.26807
0.203774
0.0706571
0.0501028
0.0440448
0.0417636
0.0409095
0.0407337
0.0409622
0.04151
0.04239
1.99652
2.03238
2.06756
2.10139
2.13323
2.1625
2.18864
2.21118
2.22972
2.24391
2.25351
2.25836
2.25836
0.209925
0.0730453
0.0510465
0.0445218
0.0420626
0.0411261
0.0409047
0.0411043
0.0416313
0.0424944
1.99652
2.0317
2.06622
2.09942
2.13068
2.1594
2.18507
2.20721
2.22541
2.23935
2.24879
2.25355
2.25355
0.213553
0.0730858
0.0509496
0.0445528
0.0421612
0.0412466
0.0410261
0.0412183
0.0417351
0.0425866
1.99652
2.0317
2.06622
2.09942
2.13068
2.1594
2.18507
2.2072
2.22541
2.23935
2.24879
2.25355
0.311108
0.0958861
0.0591658
0.0481048
0.0438091
0.0419813
0.0412488
0.0410911
0.041303
0.0418222
0.0426683
0.158046
0.166721
0.173479
0.179167
0.183637
0.187207
0.190212
0.193008
0.196073
0.200235
0.206955
0.211305
0.0953507
0.0625969
0.050686
0.045395
0.0428637
0.041663
0.0411739
0.0411144
0.041365
0.0418968
0.0427428
0.0287592
0.0366196
0.0441401
0.0497858
0.0540976
0.0575002
0.0603141
0.0628217
0.0653184
0.0681161
0.0711866
0.0718124
0.0585809
0.0504777
0.0459581
0.0434264
0.0420394
0.0413398
0.0410768
0.0411201
0.0414161
0.0419654
0.0428145
0.0281655
0.0262035
0.0303454
0.0342297
0.0374747
0.0401512
0.0424016
0.0443782
0.0462217
0.0480078
0.0495505
0.0499284
0.0475
0.045077
0.0432966
0.0421274
0.0414304
0.0410822
0.0409975
0.04113
0.0414687
0.0420359
0.0428888
0.0346718
0.0264603
0.0284614
0.0311749
0.0336986
0.0358864
0.0377612
0.0393908
0.0408402
0.0421254
0.04314
0.0435858
0.0431699
0.0424652
0.0418118
0.0413282
0.0410335
0.0409152
0.0409585
0.04116
0.0415337
0.042116
0.0429717
0.0402579
0.0281352
0.0288408
0.0308036
0.0328381
0.0346832
0.0362916
0.0376816
0.0388826
0.0399013
0.0406952
0.0411729
0.0412832
0.0411815
0.0410178
0.0408813
0.0408155
0.0408407
0.0409703
0.041221
0.0416205
0.0422135
0.0430699
0.0447488
0.0298547
0.029729
0.0311998
0.0328975
0.0344963
0.0359098
0.0371286
0.0381655
0.0390284
0.0397083
0.0401844
0.0404571
0.0405855
0.0406411
0.0406803
0.040742
0.0408536
0.0410381
0.0413215
0.041738
0.0423373
0.0431915
0.0483764
0.031361
0.0306681
0.0318105
0.0332769
0.0347008
0.0359731
0.0370698
0.0379955
0.0387605
0.0393712
0.0398317
0.0401555
0.0403748
0.0405296
0.0406569
0.0407881
0.0409496
0.0411674
0.0414706
0.0418969
0.0424978
0.0433468
0.0513548
0.0326378
0.0315383
0.0324584
0.0337685
0.0350718
0.0362452
0.0372565
0.0381066
0.0388074
0.0393719
0.0398139
0.0401503
0.0404046
0.0406035
0.0407741
0.0409417
0.0411307
0.041367
0.0416808
0.0421109
0.0427096
0.0435502
0.0538853
0.033738
0.0323338
0.0331028
0.0343106
0.0355346
0.0366421
0.037596
0.0383955
0.0390533
0.039586
0.0400108
0.040346
0.0406117
0.0408289
0.0410194
0.0412048
0.0414075
0.0416526
0.0419704
0.0423997
0.0429926
0.0438214
0.0561786
0.0347449
0.0330997
0.0337661
0.0349102
0.0360859
0.0371524
0.0380693
0.0388354
0.0394643
0.0399743
0.0403844
0.0407135
0.0409801
0.0412031
0.0414011
0.0415936
0.0418015
0.0420491
0.0423661
0.0427907
0.0433744
0.0441877
0.0584791
0.0357683
0.0339153
0.0345105
0.0356177
0.0367663
0.0378085
0.0387018
0.0394452
0.0400532
0.0405456
0.0409425
0.0412632
0.0415259
0.0417478
0.0419464
0.0421396
0.0423473
0.0425929
0.0429054
0.0433221
0.0438931
0.0446864
0.0610949
0.0369553
0.0348972
0.035437
0.0365212
0.0376531
0.038678
0.0395527
0.0402767
0.0408662
0.041342
0.0417251
0.0420352
0.0422902
0.0425068
0.0427014
0.0428911
0.0430949
0.0433352
0.0436401
0.0440457
0.0446001
0.0453682
0.0644386
0.0385107
0.0362128
0.0366924
0.0377505
0.0388607
0.0398621
0.0407119
0.0414114
0.0419778
0.0424332
0.0427989
0.0430948
0.0433384
0.0435459
0.0437329
0.0439157
0.0441124
0.0443445
0.0446389
0.04503
0.0455634
0.0462999
0.0690844
0.0407284
0.0381021
0.0384837
0.0394842
0.0405432
0.0414956
0.0422998
0.0429585
0.0434898
0.0439155
0.0442567
0.0445326
0.0447599
0.0449542
0.04513
0.0453027
0.0454895
0.0457106
0.0459914
0.0463642
0.0468713
0.0475688
0.0758475
0.044035
0.0409044
0.0410906
0.0419535
0.0428948
0.0437457
0.044465
0.0450545
0.0455303
0.0459117
0.0462179
0.0464659
0.0466711
0.0468474
0.0470081
0.0471675
0.0473413
0.0475484
0.0478121
0.0481622
0.0486371
0.0492872
0.0859127
0.0490559
0.0450905
0.0448741
0.0454386
0.0461414
0.0468047
0.04738
0.0478603
0.0482535
0.0485724
0.0488308
0.049042
0.0492183
0.0493714
0.0495131
0.0496557
0.0498134
0.0500031
0.0502459
0.0505684
0.0510044
0.0515977
0.101089
0.0567294
0.051297
0.0502668
0.0502458
0.0505206
0.0508767
0.0512339
0.0515592
0.0518411
0.0520789
0.052277
0.0524426
0.0525837
0.052709
0.0528277
0.0529502
0.0530885
0.0532574
0.0534751
0.0537645
0.0541545
0.0546815
0.124421
0.0685322
0.0603446
0.057715
0.0566477
0.056242
0.056157
0.0562252
0.056357
0.0565059
0.0566494
0.0567788
0.056893
0.0569947
0.0570888
0.0571815
0.057281
0.0573968
0.0575413
0.0577293
0.05798
0.0583164
0.0587675
0.161897
0.0869165
0.073134
0.0674968
0.0647628
0.0634287
0.0628113
0.0625597
0.062489
0.0625026
0.0625515
0.0626122
0.0626748
0.0627364
0.0627983
0.0628638
0.0629384
0.0630292
0.0631457
0.0632996
0.0635054
0.0637808
0.0641468
0.229093
0.115812
0.0899805
0.0792637
0.0743625
0.0720613
0.0709738
0.0704663
0.0702392
0.0701478
0.0701213
0.0701253
0.0701438
0.0701701
0.0702024
0.0702416
0.070291
0.0703551
0.0704406
0.0705557
0.0707106
0.0709175
0.0711898
0.394326
0.157819
0.107801
0.0911139
0.0846906
0.0820015
0.0808045
0.0802477
0.0799814
0.0798528
0.0797914
0.079764
0.0797548
0.0797564
0.0797659
0.0797829
0.0798087
0.0798458
0.0798978
0.0799698
0.0800677
0.0801985
0.0803694
0.999541
0.175459
0.111418
0.0985693
0.0946803
0.0932515
0.0926535
0.0923774
0.0922401
0.0921676
0.0921275
0.0921046
0.0920916
0.0920849
0.0920828
0.0920849
0.0920912
0.0921024
0.0921197
0.0921447
0.0921794
0.0922263
0.0922878
0.101474
0.0817521
0.083999
0.11067
0.0453607
0.0463767
0.0469929
0.0471914
0.0402279
0.0412051
0.0415028
0.0411709
0.0396509
0.0404035
0.0406039
0.0403292
0.0399831
0.0406379
0.0407925
0.0405311
0.0405044
0.0411096
0.0412361
0.0409698
0.0410146
0.0415882
0.0416949
0.0414211
0.0414596
0.0420097
0.0421017
0.0418216
0.0418325
0.0423643
0.0424448
0.0421597
0.0421416
0.0426586
0.04273
0.0424409
0.0423984
0.0429032
0.042967
0.0426742
0.0426133
0.0431078
0.043165
0.0428688
0.0427953
0.0432806
0.0433317
0.0430322
0.0429512
0.0434281
0.0434734
0.0431704
0.0430865
0.0435553
0.043595
0.0432883
0.0432051
0.043666
0.0437003
0.0433899
0.0433098
0.0437633
0.0437923
0.0434784
0.0434025
0.0438493
0.0438737
0.0435565
0.0434851
0.0439261
0.0439466
0.0436267
0.0435595
0.043996
0.0440134
0.0436915
0.0436287
0.0440617
0.0440768
0.0437535
0.0436965
0.0441266
0.04414
0.0438157
0.0437672
0.0441946
0.0442067
0.0438817
0.0438461
0.0442705
0.0442812
0.0439558
0.0439391
0.0443601
0.0443692
0.0440435
0.0440538
0.0444705
0.0444778
0.0441519
0.0442003
0.0446117
0.0446169
0.0442913
0.0443924
0.0447973
0.0448001
0.0444753
0.0446492
0.0450462
0.0450465
0.0447234
0.0449975
0.0453846
0.0453824
0.0450626
0.0454738
0.0458489
0.0458441
0.0455295
0.0461275
0.0464879
0.0464808
0.0461738
0.0470245
0.047367
0.0473578
0.0470616
0.0482509
0.0485719
0.0485611
0.0482792
0.0499181
0.0502137
0.0502017
0.0499383
0.0521685
0.0524345
0.0524219
0.0521813
0.0551829
0.0554155
0.0554029
0.0551894
0.059191
0.0593865
0.0593745
0.0591924
0.0644847
0.0646399
0.0646293
0.0644823
0.071436
0.0715485
0.07154
0.0714313
0.0805194
0.0805875
0.0805818
0.0805141
0.09234
0.0923627
0.0923603
0.0923356
0.0496154
0.0373896
0.0344898
0.0340795
0.0343393
0.0347056
0.0349905
0.0351321
0.03511
0.0349123
0.0345234
0.0339185
0.0330632
0.0319172
0.0304467
0.0286598
0.0267191
0.0254904
0.0340869
0.0414455
0.0372192
0.0355583
0.0351082
0.0351381
0.035302
0.035444
0.0354952
0.0354233
0.0352076
0.0348279
0.0342591
0.0334707
0.0324318
0.0311264
0.0295939
0.0280614
0.0275966
0.0390412
0.0393651
0.0374135
0.0364161
0.0360328
0.0359601
0.0360009
0.0360429
0.0360249
0.0359117
0.0356786
0.0353026
0.0347582
0.0340176
0.0330563
0.03187
0.0305193
0.0292752
0.0293536
0.0429579
0.039123
0.0378634
0.0371568
0.0368205
0.0366948
0.0366586
0.0366312
0.0365615
0.0364155
0.0361672
0.0357921
0.0352648
0.034559
0.0336543
0.032554
0.0313327
0.0302921
0.0307629
0.046039
0.0394495
0.0384028
0.0378051
0.0374839
0.0373231
0.0372357
0.0371597
0.0370519
0.0368804
0.0366193
0.0362436
0.0357278
0.0350466
0.0341822
0.0331425
0.0320113
0.0311135
0.0318707
0.0484503
0.0399162
0.0389304
0.0383637
0.0380377
0.0378493
0.0377258
0.0376151
0.0374791
0.0372881
0.0370164
0.0366389
0.0361302
0.0354656
0.0346285
0.0336299
0.0325602
0.0317617
0.0327289
0.0503239
0.0403743
0.0394014
0.0388358
0.0384967
0.0382852
0.038135
0.0379988
0.0378418
0.0376356
0.037355
0.036975
0.0364699
0.0358154
0.0349957
0.0340238
0.0329947
0.0322644
0.0333855
0.0517663
0.0407771
0.0398031
0.0392289
0.0388748
0.0386441
0.0384734
0.0383182
0.0381452
0.037927
0.0376387
0.0372553
0.0367512
0.0361019
0.0352923
0.0343365
0.0333329
0.0326487
0.0338817
0.0528651
0.0411169
0.0401382
0.0395533
0.039185
0.0389385
0.0387519
0.038582
0.0383965
0.0381685
0.0378734
0.0374861
0.0369808
0.0363332
0.0355283
0.034581
0.0335927
0.0329387
0.0342523
0.0536925
0.0413991
0.0404151
0.0398199
0.0394392
0.0391796
0.0389802
0.0387986
0.0386031
0.0383669
0.0380655
0.0376739
0.037166
0.0365176
0.0357137
0.03477
0.0337898
0.033155
0.0345258
0.054308
0.0416327
0.0406433
0.0400388
0.0396473
0.0393767
0.0391668
0.0389758
0.0387718
0.0385286
0.0382215
0.0378252
0.0373139
0.036663
0.0358577
0.0349143
0.0339376
0.0333143
0.0347252
0.0547603
0.0418266
0.0408316
0.0402186
0.0398176
0.0395377
0.039319
0.0391199
0.0389089
0.0386594
0.0383469
0.037946
0.0374307
0.0367765
0.0359685
0.0350234
0.0340472
0.0334305
0.0348689
0.0550887
0.0419883
0.0409875
0.0403665
0.0399571
0.039669
0.0394427
0.0392367
0.0390194
0.0387644
0.0384469
0.0380415
0.0375221
0.0368641
0.0360527
0.0351049
0.0341277
0.0335142
0.0349713
0.0553242
0.042124
0.0411171
0.0404885
0.0400714
0.0397759
0.039543
0.0393309
0.0391081
0.0388481
0.038526
0.0381163
0.0375929
0.0369311
0.0361162
0.0351653
0.0341862
0.033574
0.0350434
0.0554914
0.0422388
0.0412254
0.0405895
0.0401652
0.0398631
0.0396241
0.0394065
0.0391788
0.0389143
0.038588
0.0381745
0.0376474
0.036982
0.0361636
0.0352097
0.0342284
0.0336163
0.0350939
0.0556088
0.0423368
0.0413169
0.0406738
0.0402426
0.0399343
0.0396898
0.0394673
0.0392352
0.0389666
0.0386366
0.0382195
0.037689
0.0370203
0.0361988
0.0352421
0.0342586
0.033646
0.0351288
0.0556907
0.0424216
0.041395
0.0407449
0.0403072
0.0399931
0.0397434
0.0395163
0.0392802
0.039008
0.0386745
0.0382543
0.0377207
0.0370492
0.036225
0.0352657
0.0342802
0.0336669
0.035153
0.0557477
0.0424963
0.0414632
0.0408061
0.0403621
0.0400423
0.0397877
0.0395565
0.0393166
0.0390411
0.0387046
0.0382815
0.0377453
0.0370712
0.0362445
0.0352831
0.0342958
0.0336816
0.0351698
0.0557877
0.0425637
0.0415242
0.0408604
0.0404101
0.0400849
0.0398256
0.0395904
0.0393471
0.0390685
0.0387292
0.0383036
0.0377649
0.0370885
0.0362597
0.0352963
0.0343074
0.0336924
0.0351819
0.0558165
0.0426263
0.0415808
0.0409103
0.0404539
0.0401234
0.0398597
0.0396206
0.039374
0.0390925
0.0387507
0.0383226
0.0377817
0.0371032
0.0362724
0.0353072
0.0343168
0.0337009
0.0351912
0.055839
0.0426869
0.0416358
0.0409588
0.0404963
0.0401606
0.0398925
0.0396497
0.0393999
0.0391156
0.0387712
0.0383408
0.0377977
0.0371171
0.0362843
0.0353173
0.0343254
0.0337085
0.0351995
0.055859
0.0427484
0.0416921
0.0410088
0.0405404
0.0401995
0.039927
0.0396805
0.0394275
0.0391404
0.0387935
0.0383607
0.0378152
0.0371323
0.0362974
0.0353284
0.0343348
0.0337168
0.0352084
0.0558805
0.0428143
0.0417533
0.0410639
0.0405896
0.0402436
0.0399667
0.0397166
0.0394603
0.0391703
0.0388207
0.0383852
0.0378371
0.0371515
0.0363141
0.0353426
0.0343468
0.0337274
0.0352198
0.0559082
0.0428889
0.0418237
0.0411285
0.0406485
0.0402975
0.0400163
0.0397623
0.0395027
0.0392096
0.0388569
0.0384183
0.037867
0.0371782
0.0363375
0.0353628
0.0343642
0.0337429
0.0352365
0.0559482
0.0429778
0.0419091
0.0412086
0.0407232
0.0403672
0.0400817
0.0398239
0.0395607
0.0392641
0.0389079
0.0384656
0.0379104
0.0372174
0.0363722
0.0353931
0.0343906
0.0337667
0.0352624
0.0560095
0.0430887
0.0420176
0.0413124
0.040822
0.0404613
0.0401715
0.0399097
0.0396428
0.0393423
0.0389819
0.0385351
0.0379749
0.0372763
0.0364252
0.0354401
0.034432
0.0338045
0.0353036
0.0561062
0.0432319
0.0421603
0.0414514
0.0409566
0.0405915
0.0402975
0.0400318
0.0397607
0.0394559
0.0390908
0.0386385
0.0380719
0.0373662
0.036507
0.0355135
0.0344976
0.033865
0.0353699
0.0562602
0.0434223
0.0423525
0.0416414
0.0411431
0.0407743
0.0404764
0.0402067
0.0399315
0.0396221
0.0392515
0.0387927
0.0382184
0.0375034
0.0366338
0.0356289
0.0346021
0.0339626
0.0354771
0.056506
0.0436802
0.0426156
0.0419046
0.0414042
0.0410324
0.0407313
0.040458
0.0401788
0.0398646
0.0394882
0.0390222
0.0384388
0.0377128
0.0368299
0.0358102
0.0347687
0.03412
0.0356509
0.0568985
0.0440338
0.0429792
0.0422712
0.0417707
0.0413973
0.0410939
0.0408178
0.0405351
0.0402167
0.0398348
0.0393616
0.0387688
0.0380304
0.0371322
0.0360944
0.0350344
0.0343745
0.0359327
0.0575243
0.0445215
0.0434831
0.0427821
0.0422842
0.0419113
0.0416072
0.0413297
0.0410451
0.0407239
0.0403381
0.0398593
0.0392584
0.0385087
0.037595
0.0365377
0.0354567
0.0347854
0.0363895
0.0585199
0.0451944
0.0441802
0.0434915
0.043
0.0426304
0.042328
0.0420517
0.0417677
0.0414469
0.0410609
0.0405808
0.0399767
0.0392207
0.0382965
0.0372236
0.0361244
0.0354468
0.0371288
0.0600977
0.0461205
0.0451403
0.0444704
0.04399
0.0436275
0.0433305
0.0430588
0.0427798
0.0424645
0.0420848
0.0416118
0.0410149
0.0402654
0.0393452
0.038272
0.0371696
0.0365043
0.0383202
0.0625836
0.0473877
0.046453
0.0458099
0.0453465
0.044996
0.0447089
0.0444469
0.0441789
0.0438768
0.0435136
0.043061
0.0424895
0.0417703
0.0408841
0.0398467
0.0387818
0.0381767
0.0402256
0.0664672
0.0491087
0.0482326
0.0476254
0.047186
0.0468534
0.0465819
0.0463359
0.0460864
0.0458076
0.0454744
0.0450615
0.0445423
0.0438913
0.0430919
0.0421599
0.0412191
0.0407797
0.0432389
0.0724689
0.0514268
0.0506233
0.0500622
0.0496547
0.0493466
0.0490971
0.0488742
0.048652
0.0484078
0.0481208
0.0477708
0.0473387
0.0468087
0.0461756
0.0454662
0.0448127
0.0447526
0.0479452
0.0816453
0.0545231
0.0538067
0.0533024
0.0529352
0.0526589
0.0524381
0.0522454
0.0520589
0.0518606
0.0516356
0.0513723
0.0510649
0.0507177
0.0503549
0.0500417
0.0499532
0.0506847
0.0552246
0.0956061
0.0586268
0.0580117
0.0575752
0.057257
0.0570196
0.0568339
0.0566775
0.0565335
0.0563894
0.0562379
0.056079
0.0559262
0.0558174
0.0558337
0.0561343
0.0570347
0.0593223
0.0664682
0.117056
0.0640286
0.0635284
0.0631706
0.0629101
0.0627182
0.0625726
0.0624565
0.0623582
0.0622708
0.062195
0.0621433
0.0621517
0.0623013
0.0627612
0.0638685
0.0662897
0.0714519
0.0840185
0.151355
0.0710989
0.0707263
0.0704576
0.0702629
0.0701221
0.0700198
0.0699447
0.0698898
0.0698533
0.0698418
0.0698768
0.0700116
0.0703652
0.071201
0.0731027
0.0773976
0.0872738
0.111884
0.213119
0.0803103
0.0800767
0.0799074
0.0797857
0.0797001
0.0796416
0.0796039
0.079584
0.0795829
0.0796088
0.0796837
0.0798596
0.080258
0.0811699
0.0833356
0.0888125
0.104132
0.154936
0.379073
0.0922647
0.0921821
0.0921221
0.0920798
0.0920513
0.0920339
0.0920256
0.0920259
0.0920359
0.0920598
0.092108
0.0922044
0.0924065
0.0928642
0.0940237
0.0974964
0.110901
0.192694
1.44591
)
;

boundaryField
{
    leftWall
    {
        type            epsilonWallFunction;
        blending        stepwise;
        value           nonuniform List<scalar> 
50
(
3.11056
1.99652
1.99652
1.99652
1.99652
1.99652
1.99652
1.99652
1.99652
1.99652
1.99652
1.99652
1.99652
1.99652
1.99652
1.99652
1.99652
1.99652
1.99652
1.99652
1.99652
1.99652
1.99652
1.99652
1.99652
1.99652
1.99652
1.99652
0.158046
0.0287592
0.0281655
0.0346718
0.0402579
0.0447488
0.0483764
0.0513548
0.0538853
0.0561786
0.0584791
0.0610949
0.0644386
0.0690844
0.0758475
0.0859127
0.101089
0.124421
0.161897
0.229093
0.394326
0.999541
)
;
    }
    rightWall
    {
        type            epsilonWallFunction;
        blending        stepwise;
        value           nonuniform List<scalar> 
50
(
0.00539566
0.00816548
0.0125436
0.0165405
0.0201554
0.0234833
0.0266095
0.0295908
0.0340869
0.0390412
0.0429579
0.046039
0.0484503
0.0503239
0.0517663
0.0528651
0.0536925
0.054308
0.0547603
0.0550887
0.0553242
0.0554914
0.0556088
0.0556907
0.0557477
0.0557877
0.0558165
0.055839
0.055859
0.0558805
0.0559082
0.0559482
0.0560095
0.0561062
0.0562602
0.056506
0.0568985
0.0575243
0.0585199
0.0600977
0.0625836
0.0664672
0.0724689
0.0816453
0.0956061
0.117056
0.151355
0.213119
0.379073
1.44591
)
;
    }
    lowerWall
    {
        type            epsilonWallFunction;
        blending        stepwise;
        value           nonuniform List<scalar> 
62
(
3.11056
4.22461
4.22461
4.22461
4.22461
4.22461
4.22461
4.22461
4.22461
4.22461
4.22461
4.22461
4.22461
0.0828401
0.0181222
0.0284029
0.0358032
0.0399911
0.0411378
0.0389307
0.0326496
0.0213353
0.00491861
0.00491861
0.00886154
0.0144909
0.0199492
0.0257085
0.0329833
0.0456188
0.078966
0.101474
0.0817521
0.083999
0.11067
0.00583017
0.00983596
0.0163199
0.0228354
0.0298491
0.0387336
0.0537451
0.0904972
0.00583017
0.0279032
0.0442252
0.0551247
0.0622175
0.0667487
0.0694881
0.070875
0.071147
0.070417
0.0687161
0.0660164
0.0622433
0.0572802
0.0509627
0.0430559
0.0331996
0.0208
0.00539566
)
;
    }
    atmosphere
    {
        type            inletOutlet;
        inletValue      uniform 0.1;
        value           uniform 0.1;
    }
    defaultFaces
    {
        type            empty;
    }
}


// ************************************************************************* //
