/*--------------------------------*- C++ -*----------------------------------*\
| =========                 |                                                 |
| \\      /  F ield         | OpenFOAM: The Open Source CFD Toolbox           |
|  \\    /   O peration     | Version:  2406                                  |
|   \\  /    A nd           | Website:  www.openfoam.com                      |
|    \\/     M anipulation  |                                                 |
\*---------------------------------------------------------------------------*/
FoamFile
{
    version     2.0;
    format      ascii;
    arch        "LSB;label=32;scalar=64";
    class       volScalarField;
    location    "0.8";
    object      epsilon;
}
// * * * * * * * * * * * * * * * * * * * * * * * * * * * * * * * * * * * * * //

dimensions      [0 2 -3 0 0 0 0];

internalField   nonuniform List<scalar> 
2268
(
0.00536636
0.0232586
0.0385673
0.0511184
0.0614833
0.0700576
0.0771217
0.0828851
0.0875096
0.0911198
0.0938088
0.0956383
0.0966364
0.0967911
0.096039
0.0942451
0.0911687
0.0864067
0.079305
0.068847
0.0536187
0.0322332
0.0060467
0.00947608
0.0159657
0.0224946
0.0279849
0.0325133
0.036228
0.0392565
0.0417001
0.0436388
0.0451348
0.0462343
0.0469684
0.0473518
0.0473809
0.0470294
0.0462406
0.0449155
0.0428931
0.0399221
0.0356275
0.0295133
0.0211844
0.0120458
0.0152813
0.0166098
0.0207703
0.0245412
0.0277148
0.0303292
0.0324563
0.0341644
0.0355113
0.0365435
0.0372959
0.0377925
0.0380452
0.0380531
0.0377997
0.0372495
0.0363425
0.0349862
0.0330474
0.030348
0.0266923
0.0221158
0.0208814
0.0206313
0.0181883
0.0209657
0.0238208
0.0263095
0.0283864
0.0300834
0.0314465
0.0325194
0.0333392
0.0339347
0.0343259
0.0345237
0.034529
0.0343316
0.0339091
0.0332253
0.0322309
0.0308688
0.0290941
0.0269371
0.0248434
0.0298054
0.0254199
0.0199336
0.0216916
0.0239054
0.0259306
0.0276539
0.0290742
0.0302192
0.0311216
0.031811
0.0323116
0.0326408
0.0328089
0.0328186
0.0326648
0.0323354
0.0318132
0.0310833
0.030151
0.029089
0.0281632
0.0283499
0.0392137
0.0297136
0.0216497
0.0225915
0.0243055
0.0259755
0.0274325
0.028648
0.029634
0.0304137
0.0310107
0.0314452
0.0317326
0.0318829
0.0319003
0.0317845
0.031532
0.0311418
0.0306275
0.0300478
0.0295859
0.0297823
0.0324682
0.0506876
0.0335863
0.0232714
0.0235337
0.0248383
0.0262196
0.0274619
0.028514
0.0293747
0.0300588
0.0305847
0.0309692
0.0312261
0.031365
0.031392
0.0313104
0.0311245
0.0308465
0.030513
0.030226
0.0302638
0.0314631
0.0370984
0.0697329
0.0370963
0.024778
0.0244607
0.025421
0.0265602
0.0276229
0.0285392
0.0292964
0.0299023
0.0303705
0.0307152
0.0309485
0.0310801
0.0311172
0.0310667
0.0309391
0.0307568
0.0305736
0.0305208
0.030936
0.0328609
0.0413807
0.119704
0.00658234
0.0351598
0.0573577
0.0722978
0.0819311
0.0879556
0.0914681
0.0931109
0.0932374
0.0920225
0.0895246
0.0857196
0.0805179
0.0737682
0.0652522
0.0546626
0.0415568
0.0252888
0.00586628
0.0116701
0.0222858
0.0310143
0.0370578
0.0410513
0.0436028
0.0451232
0.0458627
0.0459632
0.0454952
0.0444798
0.0429008
0.040711
0.0378335
0.0341597
0.0295441
0.0238045
0.0167978
0.00931364
0.0199261
0.0226494
0.0275635
0.0312286
0.0337738
0.0354611
0.0364948
0.0370116
0.0370939
0.0367835
0.0360907
0.0350005
0.0334762
0.0314602
0.0288758
0.025632
0.0216555
0.0170809
0.0147271
0.0283245
0.0249838
0.027409
0.0296399
0.0313516
0.0325567
0.0333221
0.0337124
0.0337728
0.0335269
0.0329781
0.0321117
0.0308969
0.029288
0.0272294
0.024669
0.0216146
0.0184283
0.0197438
0.0372711
0.0281275
0.0282968
0.0293674
0.0304422
0.0312878
0.0318543
0.0321476
0.0321833
0.0319705
0.0315068
0.0307774
0.0297558
0.0284061
0.0266895
0.0245858
0.0221697
0.0199952
0.0242474
0.0483998
0.0318396
0.0295979
0.0296337
0.0301767
0.0307265
0.0311285
0.031339
0.0313487
0.0311542
0.0307481
0.0301153
0.029233
0.0280731
0.0266117
0.0248552
0.0229337
0.0215649
0.0282876
0.067125
0.0359479
0.0309844
0.0301168
0.0302181
0.0305207
0.0307825
0.0309201
0.0309036
0.0307194
0.0303556
0.0297966
0.0290227
0.028013
0.0267559
0.0252807
0.0237631
0.0230627
0.03193
0.114082
0.0396302
0.0321633
0.0306419
0.0304034
0.0305046
0.0306476
0.0307211
0.0306797
0.0305011
0.0301699
0.0296702
0.028985
0.0280994
0.0270125
0.0257726
0.0245943
0.0244621
0.035229
0.0421304
0.0269498
0.0258442
0.0263444
0.0271603
0.0279835
0.0287187
0.0293387
0.0298415
0.0302344
0.0305276
0.0307314
0.0308552
0.030908
0.0309011
0.0308523
0.0307957
0.0308021
0.0310232
0.0318044
0.0340097
0.0401722
0.0593736
0.047688
0.0293705
0.0274486
0.0274875
0.0279809
0.0285642
0.0291177
0.0295999
0.0299995
0.0303178
0.0305609
0.030737
0.0308549
0.030925
0.0309611
0.0309848
0.0310334
0.0311747
0.0315343
0.0323489
0.0340686
0.0375376
0.0441605
0.0522486
0.0313398
0.0287759
0.0284648
0.0287161
0.029119
0.029535
0.0299124
0.0302334
0.0304948
0.0306997
0.0308545
0.0309673
0.0310484
0.0311116
0.0311779
0.0312798
0.0314701
0.0318337
0.0325021
0.0336631
0.0355257
0.0381138
0.0559839
0.032932
0.0298559
0.0292749
0.0293422
0.0296082
0.0299193
0.0302163
0.0304765
0.0306935
0.0308682
0.0310054
0.0311122
0.031198
0.0312751
0.0313612
0.0314813
0.0316717
0.0319826
0.0324772
0.0332185
0.034224
0.0353604
0.0590288
0.0342108
0.0307243
0.0299335
0.0298602
0.0300219
0.0302529
0.030488
0.030701
0.030883
0.0310334
0.0311554
0.0312551
0.0313404
0.0314216
0.0315123
0.0316303
0.0317984
0.0320437
0.0323925
0.0328582
0.0334157
0.0339646
0.0614946
0.0352305
0.0314156
0.0304616
0.0302805
0.0303628
0.0305327
0.0307202
0.0308966
0.031051
0.0311814
0.0312901
0.0313818
0.0314631
0.031542
0.0316285
0.0317346
0.0318738
0.0320595
0.0323007
0.0325944
0.0329142
0.0332005
0.0634756
0.0360368
0.0319608
0.0308799
0.0306166
0.0306386
0.030762
0.0309132
0.0310611
0.0311936
0.0313077
0.0314047
0.0314882
0.0315633
0.0316364
0.0317145
0.0318054
0.0319167
0.0320546
0.0322207
0.0324085
0.0325986
0.0327576
0.0650529
0.0366688
0.0323866
0.031208
0.0308822
0.0308586
0.0309469
0.0310704
0.0311963
0.0313116
0.0314123
0.031499
0.0315745
0.0316428
0.0317085
0.0317767
0.0318524
0.0319399
0.0320416
0.0321567
0.0322792
0.0323961
0.0324891
0.0662964
0.0371595
0.0327162
0.0314627
0.0310898
0.0310321
0.0310941
0.0311965
0.0313056
0.0314074
0.0314973
0.0315752
0.0316432
0.0317045
0.0317626
0.0318211
0.0318834
0.0319516
0.0320269
0.0321076
0.0321891
0.0322635
0.0323203
0.0672665
0.0375367
0.0329688
0.0316587
0.0312506
0.0311676
0.03121
0.0312967
0.0313929
0.0314841
0.0315653
0.0316357
0.0316971
0.031752
0.031803
0.0318528
0.0319037
0.0319571
0.0320132
0.0320707
0.0321262
0.032175
0.032211
0.0680153
0.0378236
0.0331605
0.0318081
0.031374
0.0312725
0.0313004
0.0313754
0.031462
0.031545
0.0316192
0.0316836
0.0317393
0.0317884
0.0318331
0.0318756
0.0319173
0.0319593
0.0320017
0.0320433
0.0320821
0.032115
0.0321386
0.068587
0.0380397
0.0333047
0.0319209
0.031468
0.031353
0.0313704
0.0314369
0.0315162
0.031593
0.0316617
0.0317211
0.0317721
0.0318163
0.0318558
0.0318921
0.0319267
0.0319602
0.0319927
0.0320234
0.0320512
0.0320741
0.03209
0.0690186
0.0382007
0.0334121
0.0320055
0.0315389
0.0314143
0.0314243
0.0314845
0.0315585
0.0316307
0.0316952
0.0317506
0.0317976
0.0318379
0.031873
0.0319045
0.0319335
0.0319606
0.031986
0.0320093
0.0320297
0.032046
0.032057
0.069341
0.0383194
0.0334913
0.0320682
0.0315921
0.0314608
0.0314654
0.0315213
0.0315914
0.0316601
0.0317214
0.0317737
0.0318177
0.0318548
0.0318864
0.0319141
0.0319388
0.0319612
0.0319815
0.0319995
0.0320149
0.0320269
0.0320348
0.0695792
0.0384061
0.0335492
0.0321144
0.0316316
0.0314957
0.0314967
0.0315494
0.0316168
0.031683
0.0317419
0.0317919
0.0318335
0.031868
0.031897
0.0319218
0.0319432
0.0319621
0.0319788
0.0319932
0.0320051
0.0320142
0.03202
0.0697533
0.0384687
0.0335912
0.0321482
0.0316608
0.0315218
0.0315204
0.031571
0.0316365
0.0317009
0.031758
0.0318062
0.031846
0.0318787
0.0319056
0.0319281
0.0319471
0.0319635
0.0319775
0.0319893
0.0319989
0.032006
0.0320104
0.0698794
0.0385136
0.0336213
0.0321727
0.0316823
0.0315411
0.0315381
0.0315874
0.0316516
0.0317147
0.0317706
0.0318175
0.031856
0.0318872
0.0319126
0.0319334
0.0319507
0.0319652
0.0319773
0.0319873
0.0319952
0.032001
0.0320045
0.0699697
0.0385455
0.0336427
0.0321903
0.0316979
0.0315554
0.0315514
0.0315998
0.0316631
0.0317254
0.0317804
0.0318265
0.031864
0.0318942
0.0319184
0.031938
0.031954
0.0319672
0.031978
0.0319867
0.0319935
0.0319983
0.0320012
0.0700339
0.0385679
0.0336579
0.0322029
0.0317092
0.0315659
0.0315613
0.0316091
0.031672
0.0317337
0.0317881
0.0318336
0.0318704
0.0318998
0.0319233
0.031942
0.0319571
0.0319693
0.0319792
0.031987
0.031993
0.0319972
0.0319996
0.0700791
0.0385835
0.0336685
0.0322118
0.0317173
0.0315736
0.0315686
0.0316161
0.0316787
0.0317401
0.0317942
0.0318392
0.0318755
0.0319044
0.0319273
0.0319455
0.0319599
0.0319715
0.0319807
0.0319879
0.0319934
0.0319971
0.0319993
0.0701106
0.0385943
0.0336759
0.0322181
0.0317231
0.0315792
0.031574
0.0316214
0.0316837
0.031745
0.0317988
0.0318436
0.0318796
0.0319082
0.0319307
0.0319485
0.0319625
0.0319736
0.0319823
0.0319891
0.0319942
0.0319977
0.0319996
0.0701324
0.0386017
0.033681
0.0322225
0.0317273
0.0315832
0.031578
0.0316253
0.0316876
0.0317487
0.0318024
0.031847
0.0318829
0.0319113
0.0319335
0.031951
0.0319647
0.0319755
0.031984
0.0319905
0.0319953
0.0319986
0.0320004
0.0701474
0.0386068
0.0336845
0.0322256
0.0317302
0.0315861
0.0315808
0.0316281
0.0316904
0.0317515
0.0318052
0.0318497
0.0318855
0.0319137
0.0319358
0.0319531
0.0319667
0.0319772
0.0319855
0.0319919
0.0319965
0.0319997
0.0320014
0.0701576
0.0386102
0.0336869
0.0322277
0.0317322
0.0315881
0.0315829
0.0316302
0.0316925
0.0317537
0.0318073
0.0318518
0.0318875
0.0319157
0.0319377
0.0319549
0.0319683
0.0319788
0.0319869
0.0319932
0.0319977
0.0320008
0.0320025
0.0701645
0.0386125
0.0336885
0.0322291
0.0317337
0.0315896
0.0315844
0.0316318
0.0316941
0.0317553
0.0318089
0.0318534
0.0318891
0.0319172
0.0319392
0.0319563
0.0319697
0.0319801
0.0319882
0.0319943
0.0319988
0.0320019
0.0320035
0.0701691
0.038614
0.0336896
0.0322301
0.0317346
0.0315906
0.0315855
0.0316329
0.0316953
0.0317564
0.0318101
0.0318546
0.0318903
0.0319185
0.0319404
0.0319575
0.0319708
0.0319812
0.0319892
0.0319953
0.0319998
0.0320028
0.0320045
0.0701722
0.0386151
0.0336904
0.0322308
0.0317353
0.0315913
0.0315862
0.0316337
0.0316961
0.0317573
0.031811
0.0318555
0.0318913
0.0319194
0.0319414
0.0319584
0.0319717
0.0319821
0.0319901
0.0319962
0.0320006
0.0320036
0.0320053
0.0701743
0.0386157
0.0336908
0.0322313
0.0317358
0.0315918
0.0315868
0.0316342
0.0316967
0.031758
0.0318117
0.0318562
0.031892
0.0319201
0.0319421
0.0319592
0.0319725
0.0319828
0.0319908
0.0319969
0.0320013
0.0320043
0.0320059
0.0701756
0.0386162
0.0336912
0.0322316
0.0317361
0.0315921
0.0315871
0.0316346
0.0316971
0.0317584
0.0318122
0.0318567
0.0318925
0.0319207
0.0319426
0.0319597
0.031973
0.0319834
0.0319914
0.0319974
0.0320019
0.0320049
0.0320065
0.0701765
0.0386165
0.0336914
0.0322318
0.0317363
0.0315924
0.0315874
0.0316349
0.0316974
0.0317587
0.0318125
0.0318571
0.0318929
0.0319211
0.031943
0.0319601
0.0319734
0.0319838
0.0319918
0.0319979
0.0320023
0.0320053
0.0320069
0.0701771
0.0386167
0.0336915
0.0322319
0.0317365
0.0315925
0.0315876
0.0316351
0.0316977
0.031759
0.0318128
0.0318574
0.0318932
0.0319214
0.0319434
0.0319605
0.0319738
0.0319841
0.0319921
0.0319982
0.0320027
0.0320056
0.0320073
0.0701775
0.0386168
0.0336916
0.032232
0.0317366
0.0315926
0.0315877
0.0316353
0.0316978
0.0317591
0.031813
0.0318576
0.0318934
0.0319216
0.0319436
0.0319607
0.031974
0.0319844
0.0319924
0.0319985
0.0320029
0.0320059
0.0320075
0.0701777
0.0386169
0.0336917
0.0322321
0.0317366
0.0315927
0.0315878
0.0316353
0.0316979
0.0317593
0.0318131
0.0318577
0.0318935
0.0319217
0.0319438
0.0319609
0.0319742
0.0319846
0.0319926
0.0319987
0.0320031
0.0320061
0.0320077
0.0701779
0.0386169
0.0336917
0.0322321
0.0317367
0.0315928
0.0315878
0.0316354
0.031698
0.0317593
0.0318132
0.0318578
0.0318936
0.0319218
0.0319439
0.031961
0.0319743
0.0319847
0.0319927
0.0319988
0.0320033
0.0320062
0.0320079
0.070178
0.0386169
0.0336917
0.0322321
0.0317367
0.0315928
0.0315879
0.0316355
0.031698
0.0317594
0.0318132
0.0318579
0.0318937
0.0319219
0.031944
0.0319611
0.0319744
0.0319848
0.0319928
0.0319989
0.0320033
0.0320063
0.0320079
0.070178
0.038617
0.0336917
0.0322321
0.0317367
0.0315928
0.0315879
0.0316355
0.0316981
0.0317594
0.0318133
0.0318579
0.0318938
0.031922
0.031944
0.0319611
0.0319745
0.0319848
0.0319929
0.031999
0.0320034
0.0320064
0.032008
0.0701781
0.038617
0.0336917
0.0322321
0.0317367
0.0315928
0.0315879
0.0316355
0.0316981
0.0317595
0.0318133
0.031858
0.0318938
0.031922
0.031944
0.0319612
0.0319745
0.0319849
0.0319929
0.031999
0.0320035
0.0320064
0.0320081
0.0701781
0.038617
0.0336918
0.0322321
0.0317367
0.0315928
0.0315879
0.0316355
0.0316981
0.0317595
0.0318133
0.031858
0.0318938
0.031922
0.0319441
0.0319612
0.0319745
0.0319849
0.0319929
0.031999
0.0320035
0.0320065
0.0320081
0.0701781
0.038617
0.0336918
0.0322322
0.0317367
0.0315928
0.0315879
0.0316355
0.0316981
0.0317595
0.0318134
0.031858
0.0318938
0.0319221
0.0319441
0.0319612
0.0319746
0.0319849
0.0319929
0.031999
0.0320035
0.0320065
0.0320081
0.0701781
0.038617
0.0336918
0.0322322
0.0317367
0.0315928
0.0315879
0.0316355
0.0316981
0.0317595
0.0318134
0.031858
0.0318938
0.0319221
0.0319441
0.0319612
0.0319746
0.0319849
0.031993
0.0319991
0.0320035
0.0320065
0.0320081
0.0701781
0.038617
0.0336918
0.0322322
0.0317368
0.0315928
0.0315879
0.0316355
0.0316981
0.0317595
0.0318134
0.031858
0.0318938
0.0319221
0.0319441
0.0319612
0.0319746
0.0319849
0.031993
0.0319991
0.0320035
0.0320065
0.0320081
0.0701781
0.038617
0.0336918
0.0322322
0.0317368
0.0315928
0.0315879
0.0316355
0.0316981
0.0317595
0.0318134
0.031858
0.0318938
0.0319221
0.0319441
0.0319612
0.0319746
0.0319849
0.031993
0.0319991
0.0320035
0.0320065
0.0320081
0.14769
0.115518
0.115207
0.146026
0.0523611
0.0529667
0.0529308
0.0522764
0.0399146
0.0404341
0.0404257
0.0398923
0.0359679
0.036172
0.0361682
0.0359569
0.0342201
0.0343061
0.0343038
0.0342132
0.0333232
0.0333637
0.033362
0.033318
0.0328221
0.0328429
0.0328414
0.0328177
0.0325252
0.0325366
0.0325353
0.0325213
0.0323416
0.032348
0.0323468
0.032338
0.032224
0.0322277
0.0322267
0.0322208
0.0321468
0.032149
0.032148
0.0321439
0.0320953
0.0320966
0.0320957
0.0320926
0.0320605
0.0320613
0.0320605
0.0320581
0.0320372
0.0320376
0.0320368
0.0320349
0.0320216
0.0320218
0.0320211
0.0320195
0.0320115
0.0320116
0.0320109
0.0320095
0.0320053
0.0320053
0.0320046
0.0320034
0.0320018
0.0320017
0.0320011
0.032
0.0320001
0.032
0.0319994
0.0319983
0.0319996
0.0319995
0.0319989
0.0319979
0.0319999
0.0319998
0.0319992
0.0319982
0.0320007
0.0320005
0.032
0.031999
0.0320017
0.0320015
0.0320009
0.032
0.0320027
0.0320025
0.032002
0.0320011
0.0320037
0.0320035
0.032003
0.0320021
0.0320047
0.0320045
0.0320039
0.032003
0.0320055
0.0320053
0.0320047
0.0320038
0.0320061
0.0320059
0.0320054
0.0320045
0.0320067
0.0320065
0.0320059
0.0320051
0.0320071
0.0320069
0.0320064
0.0320055
0.0320075
0.0320073
0.0320067
0.0320058
0.0320077
0.0320075
0.032007
0.0320061
0.0320079
0.0320077
0.0320072
0.0320063
0.032008
0.0320079
0.0320073
0.0320064
0.0320081
0.0320079
0.0320074
0.0320065
0.0320082
0.032008
0.0320075
0.0320066
0.0320082
0.0320081
0.0320075
0.0320066
0.0320083
0.0320081
0.0320075
0.0320066
0.0320083
0.0320081
0.0320075
0.0320066
0.0320083
0.0320081
0.0320075
0.0320066
0.0320083
0.0320081
0.0320075
0.0320066
0.0320082
0.032008
0.0320075
0.0320066
0.0576609
0.0389046
0.0332419
0.0313728
0.0307799
0.0306372
0.0306269
0.0306141
0.0305368
0.0303631
0.0300728
0.0296501
0.0290816
0.0283605
0.0275003
0.0265742
0.0258487
0.0264859
0.0399561
0.043642
0.0368337
0.0334772
0.0319239
0.0312384
0.0309492
0.0308204
0.0307317
0.03062
0.0304496
0.0301984
0.0298511
0.0293985
0.0288417
0.0282081
0.0275948
0.0273217
0.0287493
0.0451678
0.0379445
0.0351577
0.0332649
0.0321562
0.0315532
0.031234
0.031054
0.0309253
0.0307947
0.0306296
0.030409
0.0301192
0.0297545
0.029322
0.0288588
0.0284798
0.028548
0.0305922
0.0494393
0.0352931
0.0340271
0.0329612
0.0322174
0.0317442
0.0314525
0.031264
0.0311215
0.0309853
0.0308287
0.0306338
0.0303893
0.0300925
0.0297549
0.0294209
0.0292196
0.0295494
0.0320821
0.0529348
0.0339314
0.0333038
0.0326913
0.032203
0.0318513
0.0316074
0.0314328
0.031293
0.0311605
0.0310153
0.0308429
0.0306348
0.0303907
0.0301259
0.0298904
0.0298244
0.0303562
0.0332785
0.0557831
0.0331805
0.0328456
0.0324831
0.0321626
0.0319076
0.0317129
0.0315612
0.0314328
0.0313098
0.0311774
0.0310249
0.0308462
0.0306435
0.0304345
0.030274
0.0303113
0.0309996
0.0342322
0.0580898
0.0327435
0.0325532
0.0323313
0.0321187
0.0319351
0.0317831
0.0316559
0.0315425
0.0314314
0.0313123
0.0311773
0.0310226
0.030852
0.0306859
0.0305824
0.0306985
0.0315077
0.0349865
0.0599442
0.0324781
0.0323639
0.0322232
0.0320797
0.031947
0.0318294
0.0317246
0.0316266
0.031528
0.0314216
0.0313018
0.0311664
0.031021
0.0308876
0.0308273
0.031003
0.0319053
0.0355781
0.0614223
0.0323111
0.0322392
0.032147
0.0320479
0.0319509
0.0318599
0.0317742
0.0316904
0.0316035
0.0315086
0.0314016
0.0312818
0.0311559
0.0310474
0.0310196
0.0312403
0.0322136
0.0360379
0.0625895
0.0322031
0.0321558
0.0320932
0.0320232
0.0319513
0.0318802
0.03181
0.0317384
0.031662
0.0315771
0.0314808
0.0313734
0.0312626
0.0311728
0.0311692
0.0314236
0.0324505
0.036392
0.0635024
0.0321317
0.0320992
0.0320554
0.0320046
0.0319502
0.0318941
0.0318361
0.0317746
0.0317071
0.0316306
0.0315431
0.0314455
0.0313461
0.0312703
0.0312847
0.0315639
0.032631
0.036662
0.0642089
0.0320838
0.0320607
0.0320289
0.031991
0.0319491
0.0319039
0.0318554
0.0318021
0.0317419
0.0316723
0.0315917
0.0315017
0.031411
0.0313456
0.031373
0.0316704
0.0327672
0.036866
0.0647502
0.0320515
0.0320343
0.0320106
0.0319815
0.0319483
0.0319113
0.0318701
0.0318232
0.0317688
0.0317047
0.0316296
0.0315454
0.0314611
0.0314033
0.0314401
0.0317506
0.0328691
0.0370185
0.0651606
0.0320297
0.0320166
0.0319982
0.0319752
0.0319483
0.0319172
0.0318815
0.0318396
0.0317897
0.0317299
0.0316591
0.0315793
0.0314997
0.0314472
0.0314908
0.0318105
0.0329447
0.0371314
0.0654684
0.0320153
0.0320048
0.0319901
0.0319714
0.0319489
0.0319222
0.0318906
0.0318525
0.0318061
0.0317496
0.031682
0.0316054
0.0315292
0.0314806
0.0315288
0.031855
0.0330002
0.0372143
0.065697
0.032006
0.0319974
0.0319852
0.0319695
0.0319501
0.0319267
0.031898
0.0318628
0.0318191
0.031765
0.0316998
0.0316255
0.0315517
0.0315057
0.0315571
0.0318877
0.0330408
0.0372746
0.0658651
0.0320004
0.031993
0.0319825
0.0319689
0.0319519
0.0319307
0.0319043
0.0318711
0.0318294
0.0317771
0.0317136
0.0316409
0.0315688
0.0315246
0.0315781
0.0319117
0.0330701
0.037318
0.0659875
0.0319972
0.0319907
0.0319815
0.0319694
0.0319539
0.0319343
0.0319095
0.0318779
0.0318376
0.0317866
0.0317243
0.0316527
0.0315817
0.0315386
0.0315935
0.0319291
0.0330912
0.037349
0.0660757
0.0319958
0.0319899
0.0319816
0.0319704
0.0319561
0.0319377
0.031914
0.0318835
0.0318441
0.0317941
0.0317326
0.0316618
0.0315914
0.0315491
0.0316048
0.0319416
0.0331061
0.0373709
0.0661388
0.0319956
0.0319901
0.0319823
0.0319719
0.0319583
0.0319407
0.0319179
0.0318881
0.0318494
0.0318
0.031739
0.0316687
0.0315988
0.0315568
0.031613
0.0319506
0.0331168
0.0373864
0.0661835
0.031996
0.0319908
0.0319834
0.0319735
0.0319605
0.0319434
0.0319211
0.0318918
0.0318536
0.0318046
0.0317439
0.0316739
0.0316042
0.0315625
0.031619
0.031957
0.0331242
0.0373971
0.0662149
0.0319969
0.0319919
0.0319847
0.0319751
0.0319624
0.0319458
0.0319238
0.0318948
0.0318569
0.0318081
0.0317477
0.0316778
0.0316082
0.0315666
0.0316232
0.0319615
0.0331294
0.0374045
0.0662368
0.0319979
0.031993
0.0319861
0.0319767
0.0319642
0.0319478
0.031926
0.0318973
0.0318595
0.0318109
0.0317506
0.0316807
0.0316112
0.0315696
0.0316263
0.0319647
0.033133
0.0374096
0.0662519
0.031999
0.0319942
0.0319874
0.0319781
0.0319658
0.0319495
0.0319279
0.0318993
0.0318616
0.0318131
0.0317528
0.0316829
0.0316134
0.0315718
0.0316285
0.0319669
0.0331355
0.0374131
0.0662623
0.032
0.0319953
0.0319885
0.0319793
0.0319671
0.0319509
0.0319294
0.0319008
0.0318632
0.0318147
0.0317544
0.0316846
0.031615
0.0315734
0.03163
0.0319685
0.0331372
0.0374155
0.0662693
0.032001
0.0319962
0.0319895
0.0319804
0.0319682
0.0319521
0.0319306
0.031902
0.0318645
0.0318159
0.0317556
0.0316858
0.0316162
0.0315745
0.0316311
0.0319696
0.0331383
0.0374171
0.0662741
0.0320018
0.0319971
0.0319904
0.0319813
0.0319691
0.031953
0.0319315
0.031903
0.0318654
0.0318169
0.0317565
0.0316866
0.031617
0.0315753
0.0316318
0.0319703
0.0331391
0.0374181
0.0662773
0.0320024
0.0319978
0.0319911
0.031982
0.0319698
0.0319537
0.0319322
0.0319037
0.0318661
0.0318176
0.0317572
0.0316873
0.0316176
0.0315759
0.0316323
0.0319708
0.0331396
0.0374188
0.0662795
0.032003
0.0319983
0.0319916
0.0319825
0.0319704
0.0319543
0.0319328
0.0319043
0.0318666
0.0318181
0.0317577
0.0316877
0.0316181
0.0315762
0.0316327
0.0319711
0.03314
0.0374193
0.0662809
0.0320034
0.0319987
0.0319921
0.031983
0.0319708
0.0319547
0.0319332
0.0319047
0.031867
0.0318184
0.031758
0.0316881
0.0316183
0.0315765
0.031633
0.0319714
0.0331402
0.0374196
0.0662818
0.0320038
0.0319991
0.0319924
0.0319833
0.0319712
0.031955
0.0319335
0.031905
0.0318673
0.0318187
0.0317583
0.0316883
0.0316186
0.0315767
0.0316331
0.0319715
0.0331403
0.0374198
0.0662824
0.032004
0.0319993
0.0319926
0.0319835
0.0319714
0.0319553
0.0319338
0.0319052
0.0318675
0.0318189
0.0317585
0.0316885
0.0316187
0.0315768
0.0316332
0.0319716
0.0331404
0.0374199
0.0662828
0.0320042
0.0319995
0.0319928
0.0319837
0.0319716
0.0319554
0.0319339
0.0319053
0.0318677
0.031819
0.0317586
0.0316886
0.0316188
0.0315769
0.0316333
0.0319717
0.0331405
0.03742
0.0662831
0.0320044
0.0319997
0.031993
0.0319839
0.0319717
0.0319556
0.031934
0.0319055
0.0318678
0.0318191
0.0317587
0.0316886
0.0316189
0.031577
0.0316334
0.0319717
0.0331405
0.0374201
0.0662832
0.0320045
0.0319998
0.0319931
0.031984
0.0319718
0.0319556
0.0319341
0.0319055
0.0318679
0.0318192
0.0317587
0.0316887
0.0316189
0.031577
0.0316334
0.0319718
0.0331406
0.0374201
0.0662833
0.0320045
0.0319998
0.0319931
0.031984
0.0319719
0.0319557
0.0319342
0.0319056
0.0318679
0.0318193
0.0317588
0.0316887
0.0316189
0.031577
0.0316334
0.0319718
0.0331406
0.0374201
0.0662834
0.0320046
0.0319999
0.0319932
0.0319841
0.0319719
0.0319557
0.0319342
0.0319056
0.0318679
0.0318193
0.0317588
0.0316888
0.031619
0.0315771
0.0316334
0.0319718
0.0331406
0.0374201
0.0662835
0.0320046
0.0319999
0.0319932
0.0319841
0.0319719
0.0319558
0.0319343
0.0319056
0.031868
0.0318193
0.0317588
0.0316888
0.031619
0.0315771
0.0316334
0.0319718
0.0331406
0.0374201
0.0662835
0.0320046
0.0319999
0.0319932
0.0319841
0.031972
0.0319558
0.0319343
0.0319057
0.031868
0.0318193
0.0317588
0.0316888
0.031619
0.0315771
0.0316334
0.0319718
0.0331406
0.0374201
0.0662835
0.0320046
0.0319999
0.0319932
0.0319841
0.031972
0.0319558
0.0319343
0.0319057
0.031868
0.0318193
0.0317588
0.0316888
0.031619
0.0315771
0.0316334
0.0319718
0.0331406
0.0374201
0.0662835
0.0320046
0.0319999
0.0319932
0.0319841
0.031972
0.0319558
0.0319343
0.0319057
0.031868
0.0318193
0.0317588
0.0316888
0.031619
0.0315771
0.0316334
0.0319718
0.0331406
0.0374201
0.0662835
0.0320046
0.0319999
0.0319932
0.0319841
0.031972
0.0319558
0.0319343
0.0319057
0.031868
0.0318193
0.0317588
0.0316888
0.031619
0.0315771
0.0316334
0.0319718
0.0331406
0.0374201
0.0662835
)
;

boundaryField
{
    leftWall
    {
        type            epsilonWallFunction;
        blending        stepwise;
        value           nonuniform List<scalar> 
50
(
0.00536636
0.00947608
0.0152813
0.0206313
0.0254199
0.0297136
0.0335863
0.0370963
0.0421304
0.047688
0.0522486
0.0559839
0.0590288
0.0614946
0.0634756
0.0650529
0.0662964
0.0672665
0.0680153
0.068587
0.0690186
0.069341
0.0695792
0.0697533
0.0698794
0.0699697
0.0700339
0.0700791
0.0701106
0.0701324
0.0701474
0.0701576
0.0701645
0.0701691
0.0701722
0.0701743
0.0701756
0.0701765
0.0701771
0.0701775
0.0701777
0.0701779
0.070178
0.070178
0.0701781
0.0701781
0.0701781
0.0701781
0.0701781
0.0701781
)
;
    }
    rightWall
    {
        type            epsilonWallFunction;
        blending        stepwise;
        value           nonuniform List<scalar> 
50
(
0.00586628
0.00931364
0.0147271
0.0197438
0.0242474
0.0282876
0.03193
0.035229
0.0399561
0.0451678
0.0494393
0.0529348
0.0557831
0.0580898
0.0599442
0.0614223
0.0625895
0.0635024
0.0642089
0.0647502
0.0651606
0.0654684
0.065697
0.0658651
0.0659875
0.0660757
0.0661388
0.0661835
0.0662149
0.0662368
0.0662519
0.0662623
0.0662693
0.0662741
0.0662773
0.0662795
0.0662809
0.0662818
0.0662824
0.0662828
0.0662831
0.0662832
0.0662833
0.0662834
0.0662835
0.0662835
0.0662835
0.0662835
0.0662835
0.0662835
)
;
    }
    lowerWall
    {
        type            epsilonWallFunction;
        blending        stepwise;
        value           nonuniform List<scalar> 
62
(
0.00536636
0.0232586
0.0385673
0.0511184
0.0614833
0.0700576
0.0771217
0.0828851
0.0875096
0.0911198
0.0938088
0.0956383
0.0966364
0.0967911
0.096039
0.0942451
0.0911687
0.0864067
0.079305
0.068847
0.0536187
0.0322332
0.0060467
0.0060467
0.0120458
0.0208814
0.0298054
0.0392137
0.0506876
0.0697329
0.119704
0.14769
0.115518
0.115207
0.146026
0.00658234
0.0116701
0.0199261
0.0283245
0.0372711
0.0483998
0.067125
0.114082
0.00658234
0.0351598
0.0573577
0.0722978
0.0819311
0.0879556
0.0914681
0.0931109
0.0932374
0.0920225
0.0895246
0.0857196
0.0805179
0.0737682
0.0652522
0.0546626
0.0415568
0.0252888
0.00586628
)
;
    }
    atmosphere
    {
        type            inletOutlet;
        inletValue      uniform 0.1;
        value           nonuniform List<scalar> 
46
(
0.0701781
0.038617
0.0336918
0.0322322
0.0317368
0.0315928
0.0315879
0.0316355
0.0316981
0.0317595
0.0318134
0.031858
0.0318938
0.0319221
0.0319441
0.0319612
0.0319746
0.0319849
0.031993
0.0319991
0.0320035
0.0320065
0.0320081
0.0320082
0.032008
0.0320075
0.0320066
0.0320046
0.0319999
0.0319932
0.0319841
0.031972
0.0319558
0.0319343
0.0319057
0.031868
0.0318193
0.0317588
0.0316888
0.031619
0.0315771
0.0316334
0.0319718
0.0331406
0.0374201
0.0662835
)
;
    }
    defaultFaces
    {
        type            empty;
    }
}


// ************************************************************************* //
