/*--------------------------------*- C++ -*----------------------------------*\
| =========                 |                                                 |
| \\      /  F ield         | OpenFOAM: The Open Source CFD Toolbox           |
|  \\    /   O peration     | Version:  2406                                  |
|   \\  /    A nd           | Website:  www.openfoam.com                      |
|    \\/     M anipulation  |                                                 |
\*---------------------------------------------------------------------------*/
FoamFile
{
    version     2.0;
    format      ascii;
    arch        "LSB;label=32;scalar=64";
    class       volScalarField;
    location    "0.8";
    object      k;
}
// * * * * * * * * * * * * * * * * * * * * * * * * * * * * * * * * * * * * * //

dimensions      [0 2 -2 0 0 0 0];

internalField   nonuniform List<scalar> 
2268
(
0.00138391
0.00301255
0.00422612
0.0051047
0.00577866
0.00630951
0.0067321
0.00706855
0.0073339
0.00753869
0.00769027
0.00779341
0.00785047
0.00786122
0.00782228
0.0077259
0.0075577
0.00729258
0.0068872
0.00626677
0.00530299
0.00377418
0.00123205
0.0027216
0.00691116
0.00946497
0.0113383
0.0127828
0.0139224
0.0148298
0.015552
0.0161213
0.0165605
0.0168855
0.0171067
0.0172293
0.0172529
0.0171704
0.0169654
0.0166078
0.0160456
0.0151896
0.0138884
0.0118852
0.008744
0.00321922
0.00374852
0.00913789
0.0122722
0.014577
0.0163642
0.0177793
0.0189088
0.0198094
0.0205205
0.0210701
0.0214778
0.0217567
0.0219132
0.0219471
0.0218501
0.0216028
0.0211698
0.0204902
0.0194606
0.0179048
0.0155176
0.0117323
0.00465306
0.00458378
0.0108288
0.0143316
0.0168983
0.0188961
0.0204836
0.0217543
0.0227698
0.0235733
0.0241959
0.0246594
0.0249785
0.0251605
0.0252057
0.0251057
0.0248404
0.0243733
0.0236415
0.0225392
0.0208833
0.0183408
0.014208
0.00590514
0.00527223
0.0122324
0.0160204
0.018777
0.020926
0.0226388
0.0240134
0.0251147
0.0259884
0.0266674
0.0271751
0.0275272
0.0277321
0.0277907
0.0276952
0.0274264
0.0269488
0.0262022
0.0250849
0.0234178
0.0208527
0.0165407
0.00709622
0.00585413
0.0134374
0.0174681
0.0203772
0.0226449
0.0244561
0.0259133
0.0270839
0.028015
0.0287411
0.0292865
0.0296681
0.0298951
0.0299695
0.0298844
0.0296224
0.0291512
0.0284158
0.0273236
0.0257095
0.0232296
0.0189189
0.00842727
0.00635596
0.01449
0.0187364
0.021776
0.0241426
0.0260353
0.0275615
0.0287904
0.0297708
0.0305379
0.0311173
0.0315264
0.0317756
0.0318678
0.0317979
0.031551
0.0310988
0.0303936
0.029356
0.0278435
0.0255488
0.0215014
0.0104334
0.00679498
0.0154192
0.0198612
0.0230167
0.0254693
0.0274322
0.0290179
0.0302978
0.0313217
0.0321258
0.0327365
0.033172
0.0334437
0.0335558
0.0335051
0.0332796
0.0328559
0.0321948
0.031232
0.0298549
0.0278263
0.0243956
0.0149715
0.00130308
0.00399857
0.00554496
0.00647148
0.00703416
0.00737388
0.00756724
0.00765529
0.00765936
0.00758923
0.00744728
0.00723028
0.00692989
0.00653189
0.0060138
0.00533907
0.00444251
0.00318578
0.00150014
0.00337893
0.00919632
0.0123821
0.0143121
0.0154947
0.0162131
0.0166234
0.0168103
0.0168182
0.0166675
0.0163631
0.0158977
0.0152531
0.0143988
0.0132866
0.0118394
0.00992428
0.0072698
0.00288465
0.00483515
0.0122712
0.0161006
0.0183999
0.0198145
0.0206781
0.0211718
0.0213941
0.021397
0.0212043
0.0208212
0.0202387
0.0194341
0.0183698
0.0169872
0.0151942
0.0128334
0.00957171
0.00392175
0.00611981
0.0147943
0.0189515
0.0213948
0.0228996
0.0238225
0.0243502
0.0245834
0.0245753
0.0243503
0.0239129
0.0232525
0.0223437
0.0211449
0.0195919
0.0175848
0.014952
0.0113076
0.00477365
0.00735537
0.0171561
0.0214573
0.0239133
0.0254261
0.0263587
0.0268912
0.0271199
0.0270955
0.0268407
0.0263589
0.0256377
0.0246499
0.0233509
0.0216733
0.0195116
0.0166823
0.0127449
0.00547904
0.00876243
0.0195427
0.0237994
0.0261647
0.0276272
0.0285347
0.0290513
0.0292639
0.0292182
0.028934
0.0284126
0.0276401
0.0265873
0.0252079
0.0234316
0.0211485
0.0181624
0.0139783
0.00607605
0.0109074
0.0220941
0.026055
0.0282397
0.0296083
0.0304652
0.0309503
0.0311378
0.0310664
0.0307521
0.0301939
0.0293757
0.0282671
0.0268198
0.0249613
0.0225771
0.0194579
0.0150557
0.00659094
0.0155484
0.0248868
0.0282436
0.0301791
0.031424
0.0322122
0.0326542
0.0328094
0.0327087
0.0323634
0.0317698
0.0309098
0.0297514
0.0282448
0.0263152
0.0238435
0.0206066
0.0160072
0.00704124
0.00740215
0.0167113
0.0214327
0.0247529
0.0273255
0.0293856
0.0310537
0.0324046
0.0334899
0.0343471
0.0350037
0.0354793
0.0357869
0.0359328
0.0359171
0.0357328
0.0353646
0.0347871
0.0339605
0.0328208
0.0312516
0.0289885
0.0252262
0.00804732
0.0180971
0.023134
0.0266431
0.029352
0.0315213
0.0332818
0.0347131
0.0358694
0.0367899
0.0375037
0.0380321
0.0383903
0.0385879
0.0386295
0.0385148
0.038239
0.037793
0.0371637
0.036334
0.0352821
0.0339768
0.0323741
0.00856021
0.0192044
0.0245044
0.0281755
0.0310027
0.033267
0.0351082
0.0366103
0.0378301
0.0388085
0.0395762
0.0401562
0.0405659
0.0408178
0.0409207
0.04088
0.0406991
0.0403803
0.0399275
0.0393486
0.0386614
0.0379029
0.0371516
0.008971
0.0200947
0.025614
0.0294245
0.0323556
0.0347042
0.0366176
0.0381837
0.0394616
0.0404939
0.0413127
0.0419428
0.0424035
0.04271
0.0428742
0.0429059
0.042814
0.0426083
0.042301
0.0419105
0.041465
0.0410078
0.0406047
0.0093007
0.020812
0.0265138
0.030444
0.0334664
0.0358904
0.0378691
0.0394936
0.0408251
0.0419078
0.0427752
0.0434535
0.0439636
0.0443228
0.0445455
0.0446446
0.0446326
0.0445229
0.0443315
0.0440792
0.0437931
0.0435088
0.0432696
0.00956492
0.0213891
0.0272427
0.0312752
0.0343778
0.0368692
0.038907
0.040585
0.0419662
0.043096
0.0440091
0.0447329
0.0452899
0.0456988
0.0459759
0.0461361
0.0461937
0.0461639
0.0460636
0.0459128
0.0457348
0.0455565
0.0454062
0.00977583
0.021852
0.0278313
0.0319511
0.0351237
0.037675
0.0397662
0.0414932
0.0429201
0.0440936
0.0450494
0.0458159
0.0464167
0.0468716
0.0471982
0.0474124
0.0475299
0.0475661
0.0475377
0.0474627
0.0473606
0.0472517
0.0471554
0.00994321
0.0222213
0.0283044
0.0324984
0.0357318
0.0383363
0.0404755
0.0422468
0.0437156
0.0449293
0.0459246
0.0467306
0.0473717
0.0478685
0.0482395
0.0485012
0.0486697
0.0487603
0.048789
0.0487718
0.0487249
0.0486642
0.0486035
0.0100751
0.0225142
0.0286826
0.0329391
0.0362252
0.0388764
0.0410583
0.0428696
0.0443764
0.0456269
0.0466583
0.0475004
0.0481781
0.0487128
0.0491232
0.0494263
0.0496381
0.0497738
0.0498482
0.0498758
0.0498703
0.0498445
0.0498089
0.0101781
0.0227447
0.0289828
0.033292
0.0366232
0.0393152
0.041535
0.043382
0.044923
0.0462067
0.0472707
0.0481455
0.0488562
0.0494245
0.0498696
0.0502086
0.0504572
0.0506303
0.0507417
0.0508046
0.050831
0.0508313
0.0508141
0.0102579
0.0229247
0.0292194
0.0335725
0.0369422
0.0396695
0.0419224
0.043801
0.0453725
0.0466859
0.0477792
0.0486831
0.0494232
0.0500214
0.0504968
0.0508666
0.0511465
0.0513506
0.0514923
0.0515834
0.0516347
0.0516551
0.0516517
0.0103191
0.023064
0.0294044
0.0337938
0.037196
0.0399536
0.0422353
0.0441416
0.0457399
0.0470796
0.0481989
0.0491287
0.0498947
0.0505189
0.0510207
0.051417
0.0517233
0.0519533
0.0521197
0.0522336
0.0523047
0.0523409
0.0523481
0.0103656
0.0231709
0.0295479
0.0339671
0.0373965
0.0401798
0.0424862
0.0444165
0.0460382
0.047401
0.048543
0.0494955
0.0502841
0.050931
0.0514555
0.0518745
0.052203
0.0524547
0.0526414
0.0527738
0.0528608
0.0529094
0.052925
0.0104005
0.0232522
0.0296581
0.0341016
0.0375536
0.0403585
0.042686
0.0446368
0.0462787
0.0476614
0.0488232
0.0497953
0.0506036
0.05127
0.0518139
0.0522521
0.0525994
0.0528691
0.0530726
0.0532201
0.0533198
0.0533785
0.0534007
0.0104265
0.0233133
0.029742
0.0342052
0.0376757
0.0404986
0.0428437
0.0448119
0.0464711
0.0478708
0.0490496
0.0500386
0.0508637
0.0515468
0.0521073
0.0525617
0.0529247
0.0532093
0.0534267
0.0535865
0.0536966
0.0537632
0.0537906
0.0104457
0.023359
0.0298054
0.0342842
0.0377697
0.0406075
0.0429673
0.0449501
0.0466238
0.048038
0.0492312
0.0502345
0.0510738
0.0517711
0.0523455
0.0528135
0.0531896
0.0534866
0.0537153
0.0538852
0.0540037
0.0540767
0.0541083
0.0104597
0.0233927
0.0298528
0.034344
0.0378416
0.0406914
0.0430633
0.0450582
0.046744
0.0481703
0.0493756
0.0503909
0.0512422
0.0519514
0.0525374
0.0530167
0.0534037
0.0537108
0.0539489
0.0541269
0.0542522
0.0543305
0.0543654
0.0104698
0.0234174
0.029888
0.0343888
0.037896
0.0407556
0.0431373
0.0451421
0.0468378
0.0482741
0.0494895
0.0505148
0.0513761
0.0520951
0.0526907
0.0531794
0.0535753
0.0538908
0.0541365
0.0543211
0.0544519
0.0545343
0.054572
0.010477
0.0234353
0.0299139
0.0344222
0.0379369
0.0408042
0.0431938
0.0452066
0.0469104
0.048355
0.0495785
0.0506121
0.0514815
0.0522086
0.0528122
0.0533085
0.0537117
0.054034
0.0542859
0.0544759
0.0546111
0.0546968
0.0547366
0.0104822
0.0234482
0.0299327
0.0344467
0.0379674
0.0408407
0.0432365
0.0452558
0.0469662
0.0484173
0.0496475
0.0506878
0.0515639
0.0522976
0.0529076
0.0534102
0.0538193
0.0541471
0.0544038
0.0545981
0.0547369
0.0548253
0.0548667
0.0104858
0.0234574
0.0299463
0.0344647
0.0379899
0.0408679
0.0432686
0.0452929
0.0470086
0.048465
0.0497006
0.0507463
0.0516277
0.0523667
0.0529819
0.0534895
0.0539033
0.0542355
0.0544962
0.054694
0.0548355
0.054926
0.0549688
0.0104883
0.0234639
0.0299561
0.0344777
0.0380063
0.040888
0.0432925
0.0453208
0.0470405
0.0485012
0.049741
0.050791
0.0516767
0.0524199
0.0530393
0.0535508
0.0539684
0.0543041
0.054568
0.0547684
0.0549122
0.0550043
0.0550481
0.0104901
0.0234685
0.0299631
0.0344871
0.0380183
0.0409027
0.0433102
0.0453415
0.0470644
0.0485283
0.0497715
0.0508249
0.051714
0.0524606
0.0530832
0.0535978
0.0540184
0.0543569
0.0546232
0.0548258
0.0549712
0.0550647
0.0551093
0.0104913
0.0234717
0.029968
0.0344938
0.0380269
0.0409134
0.0433231
0.0453568
0.0470822
0.0485486
0.0497944
0.0508504
0.0517421
0.0524913
0.0531164
0.0536336
0.0540565
0.0543971
0.0546653
0.0548695
0.0550164
0.0551108
0.055156
0.0104921
0.0234739
0.0299714
0.0344985
0.038033
0.0409211
0.0433325
0.045368
0.0470952
0.0485636
0.0498114
0.0508694
0.0517631
0.0525143
0.0531415
0.0536605
0.0540852
0.0544274
0.0546972
0.0549027
0.0550505
0.0551457
0.0551915
0.0104927
0.0234754
0.0299738
0.0345018
0.0380374
0.0409266
0.0433393
0.0453761
0.0471047
0.0485746
0.0498239
0.0508834
0.0517787
0.0525315
0.0531601
0.0536806
0.0541067
0.0544502
0.054721
0.0549275
0.0550762
0.055172
0.0552181
0.0104931
0.0234764
0.0299754
0.0345042
0.0380405
0.0409305
0.0433441
0.0453819
0.0471116
0.0485825
0.049833
0.0508937
0.0517902
0.0525441
0.0531739
0.0536955
0.0541226
0.0544671
0.0547388
0.054946
0.0550953
0.0551915
0.0552379
0.0104933
0.0234771
0.0299766
0.0345058
0.0380426
0.0409333
0.0433475
0.045386
0.0471165
0.0485883
0.0498396
0.0509012
0.0517986
0.0525534
0.053184
0.0537064
0.0541344
0.0544795
0.0547519
0.0549597
0.0551094
0.0552059
0.0552525
0.0104935
0.0234776
0.0299773
0.0345069
0.0380441
0.0409352
0.0433499
0.045389
0.04712
0.0485924
0.0498443
0.0509066
0.0518046
0.0525601
0.0531913
0.0537144
0.0541429
0.0544886
0.0547615
0.0549696
0.0551197
0.0552165
0.0552632
0.0104936
0.0234779
0.0299779
0.0345076
0.0380451
0.0409366
0.0433516
0.0453911
0.0471225
0.0485953
0.0498477
0.0509104
0.0518089
0.0525649
0.0531966
0.0537201
0.0541491
0.0544952
0.0547684
0.0549769
0.0551272
0.0552241
0.055271
0.0104937
0.0234781
0.0299782
0.0345081
0.0380459
0.0409375
0.0433528
0.0453925
0.0471243
0.0485974
0.0498501
0.0509131
0.051812
0.0525683
0.0532004
0.0537243
0.0541535
0.0544999
0.0547734
0.0549821
0.0551326
0.0552297
0.0552766
0.0104937
0.0234783
0.0299784
0.0345085
0.0380463
0.0409381
0.0433536
0.0453935
0.0471255
0.0485988
0.0498518
0.0509151
0.0518142
0.0525707
0.0532031
0.0537272
0.0541567
0.0545033
0.0547769
0.0549858
0.0551364
0.0552336
0.0552806
0.0104937
0.0234784
0.0299786
0.0345087
0.0380467
0.0409385
0.0433541
0.0453942
0.0471263
0.0485998
0.049853
0.0509164
0.0518157
0.0525725
0.053205
0.0537293
0.0541589
0.0545057
0.0547795
0.0549884
0.0551391
0.0552364
0.0552834
0.0104938
0.0234784
0.0299787
0.0345089
0.0380469
0.0409388
0.0433545
0.0453947
0.0471269
0.0486005
0.0498538
0.0509174
0.0518168
0.0525736
0.0532063
0.0537307
0.0541605
0.0545073
0.0547812
0.0549903
0.0551411
0.0552384
0.0552854
0.0104938
0.0234785
0.0299788
0.034509
0.038047
0.040939
0.0433548
0.045395
0.0471273
0.048601
0.0498543
0.050918
0.0518175
0.0525745
0.0532072
0.0537317
0.0541616
0.0545085
0.0547825
0.0549916
0.0551424
0.0552397
0.0552868
0.0104938
0.0234785
0.0299788
0.034509
0.0380471
0.0409392
0.0433549
0.0453952
0.0471275
0.0486013
0.0498547
0.0509184
0.051818
0.052575
0.0532079
0.0537324
0.0541623
0.0545093
0.0547833
0.0549925
0.0551433
0.0552407
0.0552878
0.0104938
0.0234785
0.0299788
0.0345091
0.0380472
0.0409392
0.0433551
0.0453953
0.0471277
0.0486015
0.049855
0.0509187
0.0518184
0.0525754
0.0532083
0.0537329
0.0541628
0.0545099
0.0547839
0.0549931
0.0551439
0.0552413
0.0552884
0.0104938
0.0234785
0.0299789
0.0345091
0.0380472
0.0409393
0.0433551
0.0453954
0.0471278
0.0486017
0.0498551
0.0509189
0.0518186
0.0525757
0.0532086
0.0537332
0.0541632
0.0545102
0.0547843
0.0549935
0.0551443
0.0552417
0.0552888
0.0104938
0.0234785
0.0299789
0.0345091
0.0380472
0.0409393
0.0433552
0.0453955
0.0471279
0.0486018
0.0498552
0.0509191
0.0518188
0.0525759
0.0532088
0.0537334
0.0541634
0.0545105
0.0547845
0.0549937
0.0551446
0.055242
0.0552891
0.0104938
0.0234785
0.0299789
0.0345091
0.0380473
0.0409394
0.0433552
0.0453955
0.047128
0.0486018
0.0498553
0.0509192
0.0518189
0.052576
0.0532089
0.0537335
0.0541635
0.0545106
0.0547847
0.0549939
0.0551448
0.0552422
0.0552893
0.0104938
0.0234785
0.0299789
0.0345092
0.0380473
0.0409394
0.0433552
0.0453956
0.047128
0.0486019
0.0498553
0.0509192
0.0518189
0.052576
0.053209
0.0537336
0.0541636
0.0545107
0.0547848
0.054994
0.0551449
0.0552423
0.0552894
0.0104938
0.0234785
0.0299789
0.0345092
0.0380473
0.0409394
0.0433552
0.0453956
0.047128
0.0486019
0.0498554
0.0509192
0.0518189
0.0525761
0.053209
0.0537336
0.0541637
0.0545107
0.0547848
0.0549941
0.0551449
0.0552423
0.0552894
0.0173013
0.0146927
0.0146656
0.0171688
0.0310057
0.0304458
0.0304276
0.0309514
0.0367358
0.0365727
0.0365576
0.0366909
0.0404152
0.0403426
0.0403275
0.04037
0.0431605
0.0431167
0.0431011
0.0431138
0.0453347
0.0453033
0.0452871
0.0452861
0.047105
0.0470803
0.0470635
0.0470545
0.0485665
0.0485458
0.0485283
0.048514
0.0497809
0.0497628
0.0497448
0.0497266
0.0507924
0.0507762
0.0507575
0.0507364
0.0516348
0.0516198
0.0516006
0.0515771
0.0523348
0.0523207
0.052301
0.0522756
0.0529144
0.0529009
0.0528808
0.0528538
0.0533921
0.0533792
0.0533586
0.0533303
0.0537837
0.0537711
0.0537502
0.0537209
0.0541027
0.0540904
0.0540692
0.0540389
0.0543608
0.0543487
0.0543272
0.0542962
0.0545681
0.0545561
0.0545344
0.0545028
0.0547334
0.0547214
0.0546995
0.0546675
0.054864
0.0548522
0.0548301
0.0547976
0.0549664
0.0549546
0.0549324
0.0548996
0.0550461
0.0550343
0.055012
0.0549789
0.0551075
0.0550957
0.0550733
0.05504
0.0551544
0.0551427
0.0551202
0.0550867
0.0551899
0.0551782
0.0551557
0.0551221
0.0552166
0.0552049
0.0551823
0.0551487
0.0552365
0.0552248
0.0552022
0.0551684
0.0552512
0.0552395
0.0552168
0.055183
0.0552619
0.0552502
0.0552276
0.0551937
0.0552697
0.055258
0.0552353
0.0552015
0.0552754
0.0552637
0.055241
0.0552071
0.0552794
0.0552677
0.055245
0.0552111
0.0552822
0.0552705
0.0552478
0.0552139
0.0552842
0.0552725
0.0552498
0.0552159
0.0552856
0.0552739
0.0552512
0.0552172
0.0552866
0.0552749
0.0552521
0.0552182
0.0552872
0.0552755
0.0552528
0.0552188
0.0552876
0.0552759
0.0552532
0.0552192
0.0552879
0.0552762
0.0552535
0.0552195
0.0552881
0.0552764
0.0552536
0.0552197
0.0552881
0.0552764
0.0552537
0.0552197
0.0552882
0.0552765
0.0552537
0.0552198
0.0254386
0.0292589
0.0315149
0.0330229
0.0340499
0.0347128
0.0350746
0.035171
0.0350197
0.0346246
0.033977
0.033056
0.0318268
0.0302372
0.0282089
0.0256151
0.0222117
0.0173306
0.00766367
0.0323769
0.0340497
0.0353685
0.0363792
0.0371123
0.0375889
0.0378239
0.0378261
0.0375973
0.0371312
0.0364125
0.0354159
0.034103
0.0324182
0.0302781
0.0275456
0.0239513
0.0187506
0.00832446
0.0370913
0.0378647
0.0386219
0.0392659
0.0397509
0.0400541
0.0401629
0.040068
0.0397588
0.0392206
0.0384325
0.0373647
0.0359757
0.0342061
0.0319675
0.0291138
0.0253546
0.0198858
0.00884933
0.0405234
0.0409096
0.0413406
0.0417294
0.0420194
0.0421735
0.0421663
0.041978
0.0415898
0.040981
0.0401257
0.0389905
0.0375307
0.0356837
0.0333566
0.0303953
0.0264929
0.0207991
0.00926951
0.0431783
0.0433749
0.0436104
0.0438231
0.0439637
0.0439941
0.0438848
0.0436105
0.0431477
0.0424713
0.0415519
0.040353
0.0388272
0.036909
0.0345017
0.0314447
0.0274181
0.0215357
0.0096067
0.0453079
0.0453986
0.0455098
0.0455986
0.0456251
0.0455546
0.0453573
0.045006
0.0444745
0.0437347
0.042755
0.0414964
0.0399093
0.0379256
0.0354455
0.0323035
0.0281695
0.0221293
0.00987702
0.0470514
0.0470759
0.0471033
0.0471022
0.0470407
0.0468881
0.0466159
0.0461966
0.0456028
0.0448048
0.0437691
0.0424551
0.0408113
0.0387678
0.0362221
0.0330048
0.0287783
0.0226063
0.010093
0.0484944
0.048474
0.0484417
0.0483736
0.0482431
0.0480235
0.0476879
0.0472093
0.0465597
0.0457089
0.0446219
0.043257
0.0415613
0.0394634
0.0368589
0.0335754
0.0292695
0.0229879
0.0102646
0.0496952
0.0496423
0.0495658
0.0494462
0.0492611
0.0489864
0.0485971
0.048067
0.0473682
0.0464698
0.0453363
0.0439252
0.0421824
0.0400356
0.0373788
0.0340376
0.0296639
0.0232915
0.0104
0.0506961
0.0506188
0.0505085
0.0503485
0.0501194
0.0497993
0.0493647
0.0487901
0.0480479
0.0471072
0.0459321
0.0444794
0.0426945
0.040504
0.0378011
0.0344097
0.0299786
0.0235314
0.0105061
0.0515299
0.0514337
0.0512968
0.0511048
0.0508399
0.0504822
0.0500092
0.0493963
0.0486164
0.0476384
0.0464263
0.0449366
0.0431142
0.0408852
0.0381421
0.0347075
0.0302279
0.0237195
0.0105885
0.0522229
0.0521117
0.0519537
0.0517357
0.0514416
0.0510526
0.0505472
0.0499016
0.0490889
0.0480783
0.0468337
0.0453115
0.0434561
0.0411935
0.0384156
0.0349442
0.0304241
0.0238659
0.0106519
0.0527967
0.0526735
0.0524985
0.0522594
0.0519413
0.0515261
0.0509934
0.0503199
0.049479
0.0484402
0.0471674
0.0456167
0.0437328
0.0414411
0.0386333
0.0351308
0.0305772
0.0239788
0.0107002
0.0532696
0.0531367
0.0529478
0.0526916
0.0523536
0.0519167
0.051361
0.0506638
0.0497989
0.0487358
0.0474386
0.0458635
0.043955
0.0416385
0.0388054
0.0352769
0.0306957
0.0240651
0.0107368
0.0536571
0.0535163
0.0533162
0.0530459
0.0526915
0.0522366
0.0516617
0.0509446
0.0500592
0.0489755
0.0476575
0.0460616
0.0441321
0.0417946
0.0389403
0.0353903
0.0307866
0.0241305
0.0107641
0.0539728
0.0538255
0.0536162
0.0533343
0.0529665
0.0524967
0.0519058
0.0511719
0.0502694
0.0491682
0.0478327
0.0462192
0.0442721
0.041917
0.0390452
0.0354775
0.0308558
0.0241796
0.0107843
0.0542281
0.0540756
0.0538588
0.0535674
0.0531886
0.0527064
0.0521024
0.0513546
0.0504377
0.049322
0.0479718
0.0463436
0.0443819
0.0420123
0.0391261
0.0355441
0.030908
0.0242161
0.0107992
0.054433
0.0542763
0.0540534
0.0537544
0.0533665
0.0528743
0.0522593
0.0515001
0.0505714
0.0494436
0.0480813
0.046441
0.0444673
0.0420858
0.0391879
0.0355945
0.030947
0.0242431
0.01081
0.0545963
0.0544361
0.0542083
0.0539031
0.0535079
0.0530075
0.0523836
0.051615
0.0506767
0.049539
0.0481668
0.0465166
0.0445331
0.042142
0.0392348
0.0356323
0.0309759
0.0242628
0.0108178
0.0547254
0.0545624
0.0543307
0.0540204
0.0536194
0.0531123
0.0524813
0.0517051
0.0507588
0.0496132
0.0482329
0.0465747
0.0445834
0.0421846
0.03927
0.0356604
0.0309972
0.0242771
0.0108233
0.0548266
0.0546613
0.0544264
0.0541122
0.0537064
0.053194
0.0525572
0.0517749
0.0508224
0.0496703
0.0482836
0.046619
0.0446215
0.0422167
0.0392963
0.0356811
0.0310127
0.0242874
0.0108273
0.0549052
0.0547382
0.0545008
0.0541834
0.0537738
0.0532572
0.0526158
0.0518287
0.0508711
0.049714
0.0483222
0.0466525
0.0446501
0.0422406
0.0393156
0.0356963
0.0310239
0.0242947
0.01083
0.0549657
0.0547974
0.054558
0.0542381
0.0538256
0.0533057
0.0526607
0.0518697
0.0509082
0.049747
0.0483512
0.0466777
0.0446714
0.0422582
0.0393298
0.0357073
0.0310319
0.0242999
0.010832
0.055012
0.0548425
0.0546016
0.0542798
0.053865
0.0533425
0.0526947
0.0519007
0.0509361
0.0497718
0.0483729
0.0466963
0.0446871
0.0422711
0.0393402
0.0357152
0.0310376
0.0243035
0.0108333
0.055047
0.0548767
0.0546346
0.0543113
0.0538947
0.0533702
0.0527202
0.0519239
0.050957
0.0497903
0.048389
0.0467101
0.0446986
0.0422805
0.0393476
0.0357209
0.0310416
0.0243061
0.0108342
0.0550733
0.0549024
0.0546594
0.0543348
0.0539169
0.0533909
0.0527392
0.0519412
0.0509724
0.0498039
0.0484008
0.0467201
0.044707
0.0422873
0.0393529
0.0357249
0.0310445
0.0243078
0.0108349
0.0550929
0.0549215
0.0546777
0.0543524
0.0539334
0.0534062
0.0527532
0.0519539
0.0509838
0.0498139
0.0484094
0.0467274
0.044713
0.0422922
0.0393567
0.0357277
0.0310464
0.024309
0.0108353
0.0551074
0.0549356
0.0546913
0.0543653
0.0539455
0.0534174
0.0527635
0.0519632
0.050992
0.0498211
0.0484156
0.0467326
0.0447173
0.0422956
0.0393594
0.0357296
0.0310478
0.0243099
0.0108356
0.0551179
0.0549459
0.0547012
0.0543747
0.0539543
0.0534256
0.052771
0.0519699
0.050998
0.0498263
0.0484201
0.0467363
0.0447203
0.042298
0.0393612
0.035731
0.0310487
0.0243104
0.0108358
0.0551256
0.0549533
0.0547084
0.0543815
0.0539607
0.0534315
0.0527764
0.0519748
0.0510023
0.04983
0.0484232
0.046739
0.0447225
0.0422997
0.0393625
0.0357319
0.0310493
0.0243108
0.0108359
0.0551311
0.0549587
0.0547135
0.0543864
0.0539653
0.0534357
0.0527802
0.0519782
0.0510053
0.0498326
0.0484255
0.0467408
0.044724
0.0423009
0.0393634
0.0357326
0.0310498
0.024311
0.010836
0.0551351
0.0549625
0.0547172
0.0543899
0.0539685
0.0534387
0.052783
0.0519806
0.0510074
0.0498345
0.048427
0.0467421
0.044725
0.0423017
0.039364
0.035733
0.0310501
0.0243112
0.010836
0.0551379
0.0549652
0.0547198
0.0543923
0.0539708
0.0534408
0.0527849
0.0519823
0.0510089
0.0498358
0.0484281
0.046743
0.0447257
0.0423023
0.0393644
0.0357333
0.0310503
0.0243113
0.0108361
0.0551398
0.0549672
0.0547217
0.0543941
0.0539725
0.0534423
0.0527862
0.0519835
0.05101
0.0498367
0.0484288
0.0467436
0.0447262
0.0423026
0.0393647
0.0357335
0.0310504
0.0243114
0.0108361
0.0551412
0.0549685
0.0547229
0.0543952
0.0539736
0.0534433
0.0527871
0.0519844
0.0510107
0.0498373
0.0484294
0.0467441
0.0447266
0.0423029
0.0393649
0.0357336
0.0310505
0.0243114
0.0108361
0.0551421
0.0549694
0.0547238
0.0543961
0.0539743
0.053444
0.0527878
0.0519849
0.0510112
0.0498377
0.0484297
0.0467443
0.0447268
0.0423031
0.039365
0.0357337
0.0310505
0.0243115
0.0108361
0.0551428
0.05497
0.0547244
0.0543966
0.0539749
0.0534445
0.0527882
0.0519853
0.0510115
0.049838
0.0484299
0.0467445
0.0447269
0.0423032
0.0393651
0.0357338
0.0310506
0.0243115
0.0108361
0.0551432
0.0549704
0.0547248
0.054397
0.0539752
0.0534448
0.0527885
0.0519856
0.0510117
0.0498382
0.0484301
0.0467446
0.044727
0.0423033
0.0393651
0.0357338
0.0310506
0.0243115
0.0108361
0.0551435
0.0549707
0.054725
0.0543973
0.0539754
0.0534451
0.0527887
0.0519857
0.0510119
0.0498383
0.0484302
0.0467447
0.0447271
0.0423033
0.0393652
0.0357338
0.0310506
0.0243115
0.0108361
0.0551436
0.0549708
0.0547252
0.0543974
0.0539756
0.0534452
0.0527888
0.0519858
0.051012
0.0498384
0.0484303
0.0467448
0.0447271
0.0423033
0.0393652
0.0357339
0.0310506
0.0243115
0.0108361
0.0551437
0.0549709
0.0547253
0.0543975
0.0539757
0.0534453
0.0527889
0.0519859
0.051012
0.0498384
0.0484303
0.0467448
0.0447272
0.0423033
0.0393652
0.0357339
0.0310506
0.0243115
0.0108361
0.0551437
0.054971
0.0547253
0.0543975
0.0539757
0.0534453
0.0527889
0.0519859
0.0510121
0.0498384
0.0484303
0.0467448
0.0447272
0.0423034
0.0393652
0.0357339
0.0310506
0.0243115
0.0108361
)
;

boundaryField
{
    leftWall
    {
        type            kqRWallFunction;
        value           nonuniform List<scalar> 
50
(
0.00138391
0.0027216
0.00374852
0.00458378
0.00527223
0.00585413
0.00635596
0.00679498
0.00740215
0.00804732
0.00856021
0.008971
0.0093007
0.00956492
0.00977583
0.00994321
0.0100751
0.0101781
0.0102579
0.0103191
0.0103656
0.0104005
0.0104265
0.0104457
0.0104597
0.0104698
0.010477
0.0104822
0.0104858
0.0104883
0.0104901
0.0104913
0.0104921
0.0104927
0.0104931
0.0104933
0.0104935
0.0104936
0.0104937
0.0104937
0.0104937
0.0104938
0.0104938
0.0104938
0.0104938
0.0104938
0.0104938
0.0104938
0.0104938
0.0104938
)
;
    }
    rightWall
    {
        type            kqRWallFunction;
        value           nonuniform List<scalar> 
50
(
0.00150014
0.00288465
0.00392175
0.00477365
0.00547904
0.00607605
0.00659094
0.00704124
0.00766367
0.00832446
0.00884933
0.00926951
0.0096067
0.00987702
0.010093
0.0102646
0.0104
0.0105061
0.0105885
0.0106519
0.0107002
0.0107368
0.0107641
0.0107843
0.0107992
0.01081
0.0108178
0.0108233
0.0108273
0.01083
0.010832
0.0108333
0.0108342
0.0108349
0.0108353
0.0108356
0.0108358
0.0108359
0.010836
0.010836
0.0108361
0.0108361
0.0108361
0.0108361
0.0108361
0.0108361
0.0108361
0.0108361
0.0108361
0.0108361
)
;
    }
    lowerWall
    {
        type            kqRWallFunction;
        value           nonuniform List<scalar> 
62
(
0.00138391
0.00301255
0.00422612
0.0051047
0.00577866
0.00630951
0.0067321
0.00706855
0.0073339
0.00753869
0.00769027
0.00779341
0.00785047
0.00786122
0.00782228
0.0077259
0.0075577
0.00729258
0.0068872
0.00626677
0.00530299
0.00377418
0.00123205
0.00123205
0.00321922
0.00465306
0.00590514
0.00709622
0.00842727
0.0104334
0.0149715
0.0173013
0.0146927
0.0146656
0.0171688
0.00130308
0.00337893
0.00483515
0.00611981
0.00735537
0.00876243
0.0109074
0.0155484
0.00130308
0.00399857
0.00554496
0.00647148
0.00703416
0.00737388
0.00756724
0.00765529
0.00765936
0.00758923
0.00744728
0.00723028
0.00692989
0.00653189
0.0060138
0.00533907
0.00444251
0.00318578
0.00150014
)
;
    }
    atmosphere
    {
        type            inletOutlet;
        inletValue      uniform 0.1;
        value           nonuniform List<scalar> 
46
(
0.0104938
0.0234785
0.0299789
0.0345092
0.0380473
0.0409394
0.0433552
0.0453956
0.047128
0.0486019
0.0498554
0.0509192
0.0518189
0.0525761
0.053209
0.0537336
0.0541637
0.0545107
0.0547848
0.0549941
0.0551449
0.0552423
0.0552894
0.0552882
0.0552765
0.0552537
0.0552198
0.0551437
0.054971
0.0547253
0.0543975
0.0539757
0.0534453
0.0527889
0.0519859
0.0510121
0.0498384
0.0484303
0.0467448
0.0447272
0.0423034
0.0393652
0.0357339
0.0310506
0.0243115
0.0108361
)
;
    }
    defaultFaces
    {
        type            empty;
    }
}


// ************************************************************************* //
