/*--------------------------------*- C++ -*----------------------------------*\
| =========                 |                                                 |
| \\      /  F ield         | OpenFOAM: The Open Source CFD Toolbox           |
|  \\    /   O peration     | Version:  2406                                  |
|   \\  /    A nd           | Website:  www.openfoam.com                      |
|    \\/     M anipulation  |                                                 |
\*---------------------------------------------------------------------------*/
FoamFile
{
    version     2.0;
    format      ascii;
    arch        "LSB;label=32;scalar=64";
    class       volScalarField;
    location    "0.8";
    object      k;
}
// * * * * * * * * * * * * * * * * * * * * * * * * * * * * * * * * * * * * * //

dimensions      [0 2 -2 0 0 0 0];

internalField   nonuniform List<scalar> 
2268
(
0.1
0.1
0.1
0.1
0.1
0.1
0.1
0.1
0.1
0.1
0.1
0.1
0.1
0.00725628
0.0025172
0.0034072
0.00398619
0.00429738
0.00438326
0.00422777
0.0037611
0.00283197
0.00106413
0.1
0.1
0.1
0.1
0.1
0.1
0.1
0.1
0.1
0.1
0.1
0.1
0.1
0.00577425
0.00571567
0.00772905
0.00895982
0.00963601
0.0098252
0.00949012
0.00848727
0.00651717
0.00259481
0.1
0.1
0.1
0.1
0.1
0.1
0.1
0.1
0.1
0.1
0.1
0.1
0.1
0.00630489
0.0076603
0.0101213
0.0116392
0.0124906
0.0127435
0.0123494
0.0111336
0.00871013
0.00360532
0.1
0.1
0.1
0.1
0.1
0.1
0.1
0.1
0.1
0.1
0.1
0.1
0.1
0.00707787
0.00918402
0.0119363
0.0136433
0.0146195
0.0149351
0.0145363
0.0132267
0.0105277
0.00446558
0.1
0.1
0.1
0.1
0.1
0.1
0.1
0.1
0.1
0.1
0.1
0.1
0.1
0.00785026
0.010475
0.0134671
0.0153294
0.0164152
0.0168033
0.0164415
0.0151192
0.0122555
0.00529259
0.1
0.1
0.1
0.1
0.1
0.1
0.1
0.1
0.1
0.1
0.1
0.1
0.1
0.00860642
0.0116159
0.0148185
0.0168208
0.018012
0.0184857
0.0181993
0.0169424
0.0140483
0.0062546
0.1
0.1
0.1
0.1
0.1
0.1
0.1
0.1
0.1
0.1
0.1
0.1
0.1
0.0093515
0.012653
0.0160415
0.0181732
0.0194691
0.0200414
0.0198658
0.0187564
0.016037
0.00777234
0.1
0.1
0.1
0.1
0.1
0.1
0.1
0.1
0.1
0.1
0.1
0.1
0.1
0.0100911
0.0136125
0.0171629
0.0194141
0.0208139
0.0214951
0.021459
0.020572
0.0183105
0.011216
0.00119632
0.00340896
0.00463722
0.00537189
0.00582335
0.0061022
0.00626707
0.00634883
0.00636324
0.00631734
0.00621242
0.00604545
0.00580944
0.00549283
0.00507759
0.00453427
0.00380922
0.00278542
0.00141433
0.00299898
0.00786147
0.010466
0.0120459
0.0130245
0.0136313
0.0139902
0.0141678
0.0141983
0.0140972
0.013867
0.0135011
0.0129834
0.0122881
0.011375
0.0101794
0.0085881
0.00636642
0.00263237
0.00420972
0.0105223
0.0137264
0.0156616
0.0168657
0.017615
0.0180583
0.0182758
0.018309
0.0181767
0.0178818
0.0174155
0.0167574
0.0158746
0.0147164
0.0132024
0.0111954
0.00840669
0.00350999
0.00527221
0.0127334
0.0162937
0.0184109
0.0197311
0.0205562
0.0210443
0.0212809
0.0213103
0.0211522
0.0208095
0.0202713
0.0195143
0.0185007
0.0171728
0.0154405
0.0131507
0.00996898
0.00422566
0.00630797
0.0148231
0.0185917
0.0207849
0.0221555
0.0230165
0.023526
0.0237688
0.0237891
0.0236063
0.0232222
0.0226245
0.0217871
0.0206685
0.0192057
0.0173011
0.0147878
0.0112851
0.00482517
0.00750934
0.0169458
0.0207634
0.0229437
0.0243147
0.0251823
0.0256956
0.0259347
0.0259415
0.0257336
0.0253115
0.0246611
0.0237543
0.0225463
0.0209699
0.0189211
0.0162196
0.0124381
0.00534653
0.00934644
0.0192126
0.0228644
0.0249505
0.0262819
0.0271332
0.0276367
0.0278642
0.0278534
0.0276197
0.0271616
0.0264634
0.0254947
0.0242084
0.0225337
0.0203609
0.017497
0.0134691
0.00581458
0.0132308
0.021677
0.0249001
0.0268269
0.0280893
0.0289068
0.0293897
0.0295992
0.0295677
0.0293074
0.0288148
0.0280724
0.0270479
0.025692
0.023931
0.0216504
0.0186453
0.0143998
0.0062443
0.1
0.1
0.1
0.1
0.1
0.1
0.1
0.1
0.1
0.1
0.1
0.1
0.1
0.0112445
0.0150094
0.0187754
0.0211976
0.0227569
0.0236183
0.0238271
0.0233491
0.0220289
0.0193322
0.1
0.1
0.1
0.1
0.1
0.1
0.1
0.1
0.1
0.1
0.1
0.1
0.1
0.0126939
0.016599
0.0205966
0.0232261
0.0249962
0.0261088
0.0266585
0.0267
0.0262801
0.0254759
0.1
0.1
0.1
0.1
0.1
0.1
0.1
0.1
0.1
0.1
0.1
0.1
0.1
0.0140322
0.0179411
0.0221277
0.0249459
0.0269137
0.0282585
0.0291049
0.0295486
0.0296958
0.0297057
0.1
0.1
0.1
0.1
0.1
0.1
0.1
0.1
0.1
0.1
0.1
0.1
0.1
0.0152692
0.0190901
0.0234273
0.0264118
0.0285558
0.0301008
0.0311859
0.0319194
0.032412
0.0327998
0.1
0.1
0.1
0.1
0.1
0.1
0.1
0.1
0.1
0.1
0.1
0.1
0.1
0.0164084
0.0200808
0.0245339
0.0276599
0.0299546
0.0316651
0.0329358
0.0338755
0.0345863
0.0351777
0.1
0.1
0.1
0.1
0.1
0.1
0.1
0.1
0.1
0.1
0.1
0.1
0.1
0.0174502
0.0209359
0.0254751
0.0287182
0.0311382
0.0329824
0.0343958
0.0354842
0.0363403
0.037056
0.1
0.1
0.1
0.1
0.1
0.1
0.1
0.1
0.1
0.1
0.1
0.1
0.1
0.0183952
0.0216724
0.0262728
0.029611
0.0321333
0.0340844
0.0356076
0.0368051
0.0377626
0.0385612
0.1
0.1
0.1
0.1
0.1
0.1
0.1
0.1
0.1
0.1
0.1
0.1
0.1
0.019245
0.0223047
0.0269468
0.0303613
0.0329663
0.0350022
0.03661
0.0378889
0.0389197
0.0397768
0.1
0.1
0.1
0.1
0.1
0.1
0.1
0.1
0.1
0.1
0.1
0.1
0.1
0.0200033
0.0228471
0.0275161
0.0309913
0.0336627
0.0357656
0.0374388
0.0387788
0.0398634
0.0407627
0.1
0.1
0.1
0.1
0.1
0.1
0.1
0.1
0.1
0.1
0.1
0.1
0.1
0.0206763
0.0233143
0.028
0.0315236
0.0342479
0.0364031
0.0381262
0.0395119
0.0406357
0.0415655
0.1
0.1
0.1
0.1
0.1
0.1
0.1
0.1
0.1
0.1
0.1
0.1
0.1
0.021272
0.0237226
0.0284189
0.0319813
0.034747
0.0369422
0.0387022
0.0401207
0.041272
0.0422226
0.1
0.1
0.1
0.1
0.1
0.1
0.1
0.1
0.1
0.1
0.1
0.1
0.1
0.0218016
0.0240909
0.0287956
0.0323889
0.035186
0.0374097
0.0391948
0.0406345
0.0418029
0.0427657
0.1
0.1
0.1
0.1
0.1
0.1
0.1
0.1
0.1
0.1
0.1
0.1
0.1
0.0222796
0.0244424
0.0291564
0.0327737
0.035592
0.0378324
0.0396304
0.0410801
0.0422553
0.0432217
0.1
0.1
0.1
0.1
0.1
0.1
0.1
0.1
0.1
0.1
0.1
0.1
0.1
0.0227272
0.0248082
0.0295342
0.0331672
0.0359939
0.0382372
0.0400347
0.0414818
0.0426532
0.0436143
0.1
0.1
0.1
0.1
0.1
0.1
0.1
0.1
0.1
0.1
0.1
0.1
0.1
0.0231778
0.025234
0.0299726
0.033607
0.0364236
0.0386512
0.0404316
0.0418619
0.0430175
0.0439637
0.1
0.1
0.1
0.1
0.1
0.1
0.1
0.1
0.1
0.1
0.1
0.1
0.1
0.0236924
0.0257935
0.0305318
0.034138
0.0369146
0.039101
0.0408432
0.04224
0.0433664
0.0442872
0.1
0.1
0.1
0.1
0.1
0.1
0.1
0.1
0.1
0.1
0.1
0.1
0.1
0.0243996
0.0266144
0.0312948
0.0348111
0.0374997
0.0396096
0.041288
0.0426321
0.0437147
0.0445988
0.1
0.1
0.1
0.1
0.1
0.1
0.1
0.1
0.1
0.1
0.1
0.1
0.1
0.0256105
0.0279127
0.0323591
0.035671
0.0382028
0.040193
0.0417786
0.0430494
0.0440732
0.0449094
0.1
0.1
0.1
0.1
0.1
0.1
0.1
0.1
0.1
0.1
0.1
0.1
0.1
0.0279389
0.0299204
0.0337731
0.0367266
0.0390268
0.0408545
0.0423195
0.0434977
0.0444487
0.0452263
0.1
0.1
0.1
0.1
0.1
0.1
0.1
0.1
0.1
0.1
0.1
0.1
0.0318245
0.0284258
0.0321661
0.0353825
0.03792
0.0399477
0.0415838
0.0429073
0.0439774
0.044844
0.0455543
0.0184006
0.0186769
0.0197259
0.0206175
0.0213085
0.0218548
0.0223155
0.0227538
0.0232544
0.0239663
0.0252207
0.0276545
0.0283096
0.0314627
0.0345131
0.0370768
0.0391913
0.0409322
0.0423626
0.0435326
0.0444849
0.045259
0.0458955
0.00575915
0.0117055
0.0150835
0.017492
0.0193313
0.0208027
0.0220389
0.0231508
0.0242575
0.0255203
0.0271796
0.0294791
0.0319414
0.0344284
0.036724
0.0387431
0.0404765
0.0419431
0.0431693
0.0441834
0.0450142
0.0456921
0.0462515
0.00561786
0.0132049
0.0172553
0.0201683
0.0224307
0.024264
0.0258114
0.0271872
0.0285005
0.0298693
0.0314149
0.0331988
0.0350747
0.0369428
0.0387086
0.0403121
0.041727
0.0429486
0.0439843
0.0448485
0.0455599
0.0461421
0.0466239
0.00646475
0.0149098
0.0193441
0.0225404
0.0250514
0.027105
0.028842
0.0303699
0.0317821
0.033164
0.0345847
0.0360701
0.0375757
0.0390561
0.0404629
0.0417575
0.0429162
0.0439287
0.0447945
0.0455206
0.0461195
0.0466097
0.0470162
0.00715454
0.0163257
0.0210695
0.0244765
0.0271661
0.0293764
0.0312458
0.0328739
0.0343417
0.0357157
0.0370452
0.0383523
0.0396292
0.0408581
0.0420161
0.0430814
0.0440379
0.0448768
0.0455958
0.0461988
0.0466951
0.0470999
0.0474353
0.0076882
0.0174648
0.022478
0.0260641
0.028899
0.0312334
0.0332046
0.034907
0.0364129
0.0377793
0.0390477
0.040242
0.0413696
0.042428
0.0434093
0.0443033
0.0451016
0.0457989
0.046394
0.0468901
0.0472952
0.0476225
0.0478926
0.00810861
0.0183853
0.0236363
0.0273841
0.0303482
0.0327902
0.034848
0.0366128
0.0381518
0.0395171
0.0407474
0.0418686
0.0428958
0.0438354
0.0446889
0.0454543
0.0461293
0.0467124
0.0472046
0.0476097
0.0479354
0.0481943
0.0484058
0.00844865
0.0191456
0.0246112
0.028511
0.0315976
0.0341405
0.036279
0.0381023
0.0396752
0.0410473
0.0422565
0.0433309
0.0442897
0.0451455
0.0459055
0.0465739
0.047153
0.0476449
0.0480528
0.0483816
0.0486396
0.0488392
0.0489993
0.00873551
0.0198012
0.0254693
0.029519
0.0327281
0.035372
0.0375909
0.0394734
0.0410832
0.0424692
0.04367
0.0447153
0.0456275
0.0464234
0.0471146
0.0477095
0.0482141
0.0486335
0.048973
0.0492389
0.0494401
0.0495893
0.0497053
0.00899509
0.0204089
0.0262809
0.0304872
0.0338251
0.0365747
0.0388771
0.0408212
0.042471
0.0438763
0.0450769
0.0461047
0.0469849
0.0477373
0.048377
0.0489156
0.0493621
0.0497241
0.0500086
0.0502234
0.0503779
0.0504854
0.0505644
0.00925543
0.0210319
0.0271265
0.0315058
0.034985
0.0378481
0.0402381
0.0422456
0.0439366
0.0453631
0.0465674
0.0475837
0.0484402
0.0491593
0.0497591
0.0502536
0.0506543
0.0509707
0.0512113
0.051385
0.051502
0.0515757
0.0516248
0.00955009
0.0217466
0.0281024
0.032682
0.0363198
0.0393052
0.0417851
0.0438544
0.0455834
0.0470282
0.0482344
0.0492398
0.0500753
0.0507661
0.0513324
0.0517907
0.0521541
0.0524337
0.0526393
0.0527806
0.0528683
0.0529159
0.0529417
0.00992171
0.0226492
0.0293285
0.034146
0.0379619
0.0410753
0.0436419
0.0457646
0.0475213
0.0489743
0.0501744
0.0511633
0.051975
0.0526372
0.0531722
0.0535982
0.0539296
0.0541788
0.0543563
0.0544724
0.054538
0.0545665
0.0545754
0.0104258
0.0238628
0.0309541
0.0360551
0.0400655
0.0433041
0.045943
0.0480997
0.0498638
0.0513065
0.052485
0.0534454
0.0542251
0.0548539
0.0553557
0.0557499
0.0560519
0.0562746
0.0564292
0.0565259
0.0565758
0.0565914
0.0565895
0.0111347
0.0255453
0.0331649
0.0385966
0.0428062
0.0461499
0.0488294
0.0509854
0.0527241
0.054128
0.0552616
0.0561758
0.0569103
0.0574969
0.0579603
0.0583204
0.0585931
0.0587914
0.0589264
0.0590084
0.0590477
0.0590562
0.0590488
0.0121432
0.0279018
0.0361922
0.0419909
0.0463779
0.0497778
0.0524415
0.0545429
0.0562096
0.0575365
0.0585953
0.0594403
0.0601131
0.0606458
0.0610633
0.0613851
0.0616269
0.0618012
0.0619187
0.061989
0.0620219
0.0620277
0.0620194
0.01358
0.0312116
0.0403322
0.046497
0.0509888
0.0543518
0.0569108
0.0588827
0.0604177
0.0616217
0.0625712
0.0633216
0.0639143
0.0643802
0.0647432
0.0650215
0.0652296
0.0653792
0.06548
0.0655407
0.0655699
0.0655763
0.0655704
0.0156416
0.0358906
0.04598
0.0524153
0.0568496
0.0600205
0.0623498
0.0640981
0.0654329
0.066465
0.06727
0.0679009
0.068396
0.0687832
0.0690835
0.0693131
0.0694846
0.0696082
0.0696922
0.0697442
0.069771
0.0697799
0.0697785
0.0186824
0.0426203
0.0536646
0.0600665
0.0641415
0.0668935
0.0688379
0.0702599
0.0713268
0.0721421
0.0727726
0.0732639
0.0736477
0.0739468
0.0741784
0.0743555
0.074488
0.0745842
0.0746508
0.0746937
0.0747183
0.0747299
0.0747335
0.0235153
0.0525782
0.0640222
0.0696963
0.0729436
0.0750023
0.0764063
0.0774136
0.0781615
0.0787295
0.0791672
0.0795075
0.0797729
0.0799796
0.0801398
0.0802625
0.0803549
0.0804228
0.080471
0.0805039
0.0805251
0.080538
0.0805456
0.0327022
0.0678567
0.0775391
0.0812441
0.0831223
0.0842624
0.0850325
0.0855862
0.0859995
0.0863148
0.0865588
0.086749
0.0868976
0.0870138
0.087104
0.0871735
0.0872264
0.087266
0.0872951
0.0873163
0.0873317
0.0873433
0.0873522
0.054785
0.0912242
0.0933902
0.0939228
0.0942441
0.0944841
0.0946689
0.0948123
0.0949243
0.0950121
0.0950813
0.0951359
0.0951789
0.0952128
0.0952393
0.09526
0.095276
0.0952884
0.095298
0.0953057
0.0953122
0.0953181
0.0953236
0.0133305
0.0115557
0.0117744
0.0141547
0.0247802
0.0246365
0.0249713
0.0257888
0.0298172
0.0299977
0.0303296
0.0308072
0.0331386
0.0334051
0.0337337
0.0341205
0.0356157
0.0359179
0.036248
0.0366036
0.0375504
0.0378736
0.0382076
0.0385505
0.039093
0.0394308
0.0397694
0.0401072
0.0403351
0.040684
0.041027
0.0413629
0.0413406
0.0416977
0.0420445
0.0423798
0.0421573
0.0425204
0.04287
0.0432051
0.0428236
0.0431905
0.0435416
0.0438761
0.0433713
0.0437396
0.0440907
0.0444236
0.0438272
0.0441946
0.0445437
0.0448737
0.0442146
0.0445782
0.0449231
0.0452484
0.0445534
0.0449101
0.0452481
0.0455666
0.0448602
0.0452067
0.0455349
0.0458443
0.0451488
0.0454815
0.045797
0.0460945
0.0454301
0.0457454
0.046045
0.0463281
0.0457118
0.0460065
0.0462874
0.0465536
0.0459995
0.0462707
0.0465303
0.0467775
0.0462968
0.0465424
0.0467789
0.0470054
0.0466067
0.0468254
0.0470377
0.0472425
0.0469324
0.0471239
0.0473115
0.0474943
0.0472789
0.0474436
0.047607
0.0477681
0.0476544
0.0477935
0.0479336
0.0480738
0.0480714
0.0481866
0.048305
0.0484257
0.0485479
0.0486414
0.04874
0.0488427
0.0491088
0.049183
0.0492638
0.0493504
0.0497867
0.049844
0.0499091
0.0499815
0.0506218
0.0506647
0.0507164
0.0507763
0.0516625
0.0516933
0.0517336
0.0517827
0.0529638
0.0529849
0.0530155
0.0530554
0.0545859
0.0545993
0.0546221
0.0546539
0.0565919
0.0565997
0.0566161
0.0566408
0.0590465
0.0590504
0.0590617
0.0590802
0.0620152
0.0620167
0.062024
0.0620369
0.0655666
0.0655669
0.0655712
0.0655793
0.0697765
0.0697765
0.0697786
0.0697827
0.074734
0.0747343
0.074735
0.0747359
0.0805485
0.0805494
0.0805492
0.0805479
0.0873564
0.0873577
0.0873572
0.087355
0.0953267
0.0953278
0.0953275
0.0953259
0.0216696
0.0255295
0.0279236
0.0295563
0.0306832
0.0314294
0.0318677
0.0320414
0.0319735
0.0316707
0.031126
0.0303191
0.0292151
0.0277618
0.0258819
0.0234542
0.0202573
0.0157139
0.0068662
0.0276237
0.0297631
0.031435
0.0327051
0.0336302
0.0342548
0.0346115
0.034722
0.0345965
0.0342338
0.033622
0.0327368
0.0315405
0.029978
0.0279679
0.025382
0.0219796
0.0171151
0.00752311
0.0317626
0.0331575
0.0343823
0.0353736
0.0361188
0.036622
0.0368914
0.0369327
0.0367455
0.0363222
0.0356457
0.0346885
0.0334103
0.031753
0.0296322
0.026913
0.0233382
0.0182084
0.0080253
0.0348367
0.035886
0.036838
0.0376271
0.0382243
0.0386179
0.0388028
0.0387745
0.0385255
0.0380423
0.037304
0.03628
0.0349276
0.0331863
0.0309686
0.0281341
0.0244121
0.0190621
0.00841156
0.0372267
0.0380964
0.0388773
0.0395216
0.0400015
0.0403008
0.0404084
0.0403142
0.0400055
0.0394648
0.0386681
0.0375823
0.0361623
0.0343459
0.0320427
0.0291076
0.02526
0.0197282
0.00870941
0.03913
0.0398972
0.0405671
0.0411072
0.0414953
0.0417157
0.0417551
0.0416005
0.0412359
0.0406413
0.0397902
0.0386475
0.0371663
0.0352825
0.0329038
0.0298814
0.025927
0.0202463
0.00893871
0.0406639
0.0413687
0.0419639
0.0424281
0.0427447
0.0428999
0.0428804
0.0426716
0.0422562
0.041612
0.0407109
0.0395163
0.0379799
0.0360362
0.033591
0.0304933
0.0264491
0.0206473
0.00911434
0.041907
0.0425717
0.0431151
0.0435231
0.0437838
0.0438855
0.0438157
0.0435595
0.0430984
0.0424093
0.041463
0.0402216
0.0386359
0.0366393
0.0341364
0.0309742
0.0268549
0.0209554
0.0092479
0.0429164
0.0435542
0.0440604
0.0444261
0.0446428
0.0447008
0.0445885
0.0442909
0.0437896
0.0430606
0.0420738
0.0407909
0.0391616
0.0371187
0.034566
0.0313492
0.027168
0.0211903
0.00934854
0.0437366
0.044355
0.0448337
0.0451669
0.0453486
0.0453707
0.0452225
0.0448895
0.044353
0.0435889
0.0425665
0.041247
0.0395797
0.0374969
0.0349017
0.0316393
0.0274074
0.0213676
0.00942361
0.0444032
0.0450066
0.0454639
0.0457715
0.0459249
0.0459175
0.0457391
0.0453759
0.044809
0.0440143
0.042961
0.0416097
0.0399097
0.0377928
0.0351619
0.0318617
0.0275887
0.0215002
0.00947902
0.0449459
0.0455363
0.0459761
0.0462626
0.0463928
0.0463608
0.0461571
0.045768
0.0451751
0.0443542
0.0432743
0.0418958
0.0401679
0.0380223
0.0353617
0.0320306
0.0277247
0.0215984
0.00951946
0.0453897
0.0459676
0.0463918
0.0466604
0.046771
0.0467182
0.046493
0.0460821
0.0454671
0.0446237
0.0435211
0.0421196
0.0403683
0.0381988
0.0355138
0.0321576
0.0278257
0.0216702
0.00954865
0.045756
0.0463205
0.0467299
0.0469824
0.0470758
0.0470052
0.0467617
0.0463321
0.0456983
0.0448359
0.0437142
0.0422934
0.0405226
0.0383333
0.0356285
0.0322524
0.0279001
0.0217224
0.00956952
0.046063
0.0466123
0.0470065
0.0472437
0.0473217
0.0472353
0.0469759
0.0465304
0.0458806
0.0450022
0.0438644
0.0424275
0.0406406
0.0384353
0.0357145
0.0323225
0.0279544
0.0217599
0.00958429
0.0463262
0.0468577
0.0472357
0.0474577
0.047521
0.0474204
0.0471471
0.0466878
0.0460242
0.0451322
0.0439809
0.0425307
0.0407305
0.0385122
0.0357786
0.0323741
0.0279938
0.0217867
0.00959468
0.0465583
0.047069
0.0474293
0.0476357
0.0476848
0.0475709
0.047285
0.0468135
0.046138
0.0452345
0.0440718
0.0426105
0.0407994
0.0385704
0.0358266
0.0324122
0.0280224
0.0218058
0.00960197
0.0467701
0.0472568
0.0475976
0.0477876
0.0478225
0.0476959
0.0473982
0.0469158
0.0462299
0.0453163
0.0441439
0.0426732
0.0408529
0.0386152
0.0358629
0.0324407
0.0280435
0.0218196
0.00960714
0.0469702
0.0474297
0.0477491
0.0479219
0.0479423
0.0478033
0.0474945
0.047002
0.0463067
0.0453842
0.0442033
0.0427243
0.0408962
0.0386509
0.0358916
0.0324628
0.0280595
0.0218299
0.00961091
0.0471658
0.0475953
0.0478917
0.0480463
0.048052
0.0479005
0.0475811
0.047079
0.0463749
0.0454442
0.0442554
0.042769
0.0409337
0.0386817
0.035916
0.0324813
0.0280728
0.0218383
0.00961389
0.0473631
0.0477604
0.0480324
0.0481681
0.0481587
0.0479949
0.0476649
0.0471535
0.0464409
0.0455023
0.044306
0.0428123
0.04097
0.0387114
0.0359394
0.032499
0.0280852
0.021846
0.00961658
0.047568
0.0479318
0.0481786
0.0482948
0.0482701
0.0480939
0.0477533
0.0472326
0.0465116
0.0455649
0.0443609
0.0428596
0.04101
0.0387441
0.0359653
0.0325185
0.028099
0.0218544
0.00961949
0.0477872
0.0481169
0.0483381
0.0484348
0.0483947
0.0482059
0.0478547
0.0473246
0.0465947
0.0456395
0.0444271
0.0429174
0.0410593
0.038785
0.035998
0.0325434
0.0281165
0.0218652
0.00962323
0.0480287
0.0483248
0.0485206
0.048598
0.0485426
0.0483412
0.0479793
0.0474393
0.0467
0.0457355
0.0445134
0.0429938
0.0411254
0.0388406
0.036043
0.032578
0.0281413
0.0218807
0.00962861
0.0483034
0.048567
0.0487384
0.0487969
0.0487265
0.0485126
0.0481396
0.0475893
0.0468398
0.0458647
0.0446314
0.0430997
0.0412183
0.0389198
0.036108
0.0326288
0.0281782
0.021904
0.00963681
0.0486261
0.048859
0.0490072
0.0490476
0.0489627
0.0487365
0.0483523
0.0477911
0.0470304
0.0460431
0.0447964
0.0432498
0.0413518
0.0390352
0.0362042
0.032705
0.0282344
0.0219399
0.00964963
0.0490163
0.0492208
0.0493474
0.0493708
0.049272
0.0490338
0.0486383
0.0480657
0.0472927
0.0462917
0.0450292
0.0434642
0.0415452
0.0392047
0.0363475
0.0328202
0.0283206
0.021996
0.00966989
0.0494998
0.0496785
0.0497851
0.0497929
0.0496811
0.0494313
0.0490247
0.0484404
0.0476545
0.0466382
0.0453574
0.0437703
0.041825
0.0394536
0.036561
0.0329947
0.0284532
0.0220836
0.00970195
0.0501094
0.0502648
0.0503533
0.0503467
0.0502229
0.0499624
0.0495453
0.0489498
0.0481508
0.0471184
0.0458174
0.0442048
0.0422275
0.039817
0.0368778
0.0332579
0.0286566
0.0222203
0.00975267
0.0508851
0.0510196
0.0510918
0.0510722
0.0509378
0.0506679
0.0502417
0.0496364
0.0488253
0.0477775
0.0464558
0.0448154
0.0428012
0.0403431
0.0373442
0.0336523
0.028967
0.0224326
0.00983268
0.0518748
0.0519903
0.0520475
0.0520164
0.0518729
0.0515958
0.0511631
0.0505507
0.0497309
0.0486706
0.0473304
0.0456626
0.0436091
0.0410961
0.0380238
0.034238
0.0294371
0.0227604
0.0099583
0.0531325
0.0532304
0.0532739
0.0532325
0.0530821
0.0528006
0.0523654
0.0517512
0.0509286
0.0498624
0.0485101
0.0468202
0.0447294
0.0421582
0.0390008
0.0350971
0.0301413
0.0232619
0.0101542
0.0547175
0.0547986
0.054829
0.054779
0.0546242
0.0543424
0.0539105
0.0533021
0.0524863
0.0514255
0.0500735
0.0483736
0.0462556
0.0436306
0.0403818
0.0363379
0.0311813
0.0240195
0.0104563
0.0566919
0.0567565
0.0567745
0.0567172
0.0565612
0.0562845
0.0558635
0.0552714
0.054476
0.0534372
0.0521051
0.0504169
0.0482928
0.0456309
0.0422966
0.0380973
0.0326909
0.0251458
0.0109154
0.0591194
0.0591677
0.0591737
0.059111
0.0589576
0.0586921
0.0582914
0.0577287
0.0569709
0.0559764
0.0546918
0.0530476
0.0509533
0.0482894
0.0448951
0.0405416
0.034841
0.0267893
0.0116001
0.062065
0.0620972
0.062092
0.0620262
0.0618796
0.0616324
0.0612626
0.0607441
0.0600442
0.0591207
0.0579181
0.0563617
0.0543497
0.0517423
0.0483433
0.043868
0.0378467
0.0291459
0.0126008
0.065597
0.0656139
0.0655989
0.0655327
0.0653977
0.0651762
0.064848
0.064389
0.0637682
0.0629451
0.0618642
0.0604486
0.0585885
0.0561241
0.0528184
0.0483076
0.0419855
0.0324862
0.0140409
0.0697911
0.0697944
0.0697719
0.0697086
0.0695901
0.0694012
0.0691246
0.0687393
0.0682178
0.0675233
0.0666047
0.0653877
0.063762
0.0615563
0.0584964
0.0541247
0.0476269
0.0372182
0.0161096
0.0747368
0.0747293
0.0747026
0.074646
0.0745484
0.0743981
0.0741812
0.0738806
0.0734741
0.0729317
0.0722104
0.0712464
0.0699402
0.0681282
0.0655242
0.0615947
0.0552648
0.0440249
0.0191575
0.0805436
0.0805295
0.0805029
0.0804571
0.0803846
0.0802769
0.0801243
0.0799146
0.0796321
0.0792553
0.0787536
0.0780806
0.0771623
0.0758702
0.0739605
0.0709161
0.0654897
0.0541487
0.0241023
0.0873484
0.0873334
0.0873121
0.0872814
0.0872369
0.0871737
0.0870861
0.0869671
0.086808
0.0865968
0.0863169
0.0859435
0.0854375
0.0847308
0.0836887
0.0819917
0.078677
0.0698548
0.0354192
0.0953213
0.0953127
0.0953032
0.0952916
0.0952768
0.095257
0.0952305
0.0951954
0.0951489
0.0950881
0.0950088
0.0949054
0.0947706
0.094595
0.0943683
0.0940848
0.0937527
0.0932188
0.0865087
)
;

boundaryField
{
    leftWall
    {
        type            kqRWallFunction;
        value           nonuniform List<scalar> 
50
(
0.1
0.1
0.1
0.1
0.1
0.1
0.1
0.1
0.1
0.1
0.1
0.1
0.1
0.1
0.1
0.1
0.1
0.1
0.1
0.1
0.1
0.1
0.1
0.1
0.1
0.1
0.1
0.1
0.0184006
0.00575915
0.00561786
0.00646475
0.00715454
0.0076882
0.00810861
0.00844865
0.00873551
0.00899509
0.00925543
0.00955009
0.00992171
0.0104258
0.0111347
0.0121432
0.01358
0.0156416
0.0186824
0.0235153
0.0327022
0.054785
)
;
    }
    rightWall
    {
        type            kqRWallFunction;
        value           nonuniform List<scalar> 
50
(
0.00141433
0.00263237
0.00350999
0.00422566
0.00482517
0.00534653
0.00581458
0.0062443
0.0068662
0.00752311
0.0080253
0.00841156
0.00870941
0.00893871
0.00911434
0.0092479
0.00934854
0.00942361
0.00947902
0.00951946
0.00954865
0.00956952
0.00958429
0.00959468
0.00960197
0.00960714
0.00961091
0.00961389
0.00961658
0.00961949
0.00962323
0.00962861
0.00963681
0.00964963
0.00966989
0.00970195
0.00975267
0.00983268
0.0099583
0.0101542
0.0104563
0.0109154
0.0116001
0.0126008
0.0140409
0.0161096
0.0191575
0.0241023
0.0354192
0.0865087
)
;
    }
    lowerWall
    {
        type            kqRWallFunction;
        value           nonuniform List<scalar> 
62
(
0.1
0.1
0.1
0.1
0.1
0.1
0.1
0.1
0.1
0.1
0.1
0.1
0.1
0.00725628
0.0025172
0.0034072
0.00398619
0.00429738
0.00438326
0.00422777
0.0037611
0.00283197
0.00106413
0.00106413
0.00259481
0.00360532
0.00446558
0.00529259
0.0062546
0.00777234
0.011216
0.0133305
0.0115557
0.0117744
0.0141547
0.00119632
0.00299898
0.00420972
0.00527221
0.00630797
0.00750934
0.00934644
0.0132308
0.00119632
0.00340896
0.00463722
0.00537189
0.00582335
0.0061022
0.00626707
0.00634883
0.00636324
0.00631734
0.00621242
0.00604545
0.00580944
0.00549283
0.00507759
0.00453427
0.00380922
0.00278542
0.00141433
)
;
    }
    atmosphere
    {
        type            inletOutlet;
        inletValue      uniform 0.1;
        value           uniform 0.1;
    }
    defaultFaces
    {
        type            empty;
    }
}


// ************************************************************************* //
