/*--------------------------------*- C++ -*----------------------------------*\
| =========                 |                                                 |
| \\      /  F ield         | OpenFOAM: The Open Source CFD Toolbox           |
|  \\    /   O peration     | Version:  2406                                  |
|   \\  /    A nd           | Website:  www.openfoam.com                      |
|    \\/     M anipulation  |                                                 |
\*---------------------------------------------------------------------------*/
FoamFile
{
    version     2.0;
    format      ascii;
    arch        "LSB;label=32;scalar=64";
    class       volScalarField;
    location    "0.8";
    object      nut;
}
// * * * * * * * * * * * * * * * * * * * * * * * * * * * * * * * * * * * * * //

dimensions      [0 2 -1 0 0 0 0];

internalField   nonuniform List<scalar> 
2268
(
0.000289337
0.000213038
0.000213038
0.000213038
0.000213038
0.000213038
0.000213038
0.000213038
0.000213038
0.000213038
0.000213038
0.000213038
0.000213038
5.72045e-05
3.1468e-05
3.67854e-05
3.99427e-05
4.15609e-05
4.20336e-05
4.13211e-05
3.89937e-05
3.38315e-05
2.07198e-05
0.000450785
0.000254306
0.000232321
0.000225511
0.000222385
0.000220634
0.000219545
0.000218827
0.000218345
0.000218025
0.00021783
0.000217737
0.000217737
3.26143e-05
0.000164329
0.000276756
0.000322183
0.000344203
0.000351344
0.000343633
0.000315195
0.000248239
6.83826e-05
0.000450785
0.000288167
0.000251962
0.000238672
0.000232268
0.000228639
0.000226375
0.000224885
0.000223885
0.000223224
0.000222819
0.000222626
0.000222626
3.68461e-05
0.000246564
0.000459132
0.000558085
0.000606989
0.000623663
0.000608221
0.000547772
0.000405883
8.07302e-05
0.000450785
0.000314823
0.000270613
0.00025196
0.000242449
0.000236938
0.000233468
0.000231176
0.000229635
0.000228616
0.000227992
0.000227696
0.000227696
4.34557e-05
0.000304567
0.00058624
0.00073092
0.000804887
0.000831277
0.000809842
0.000721429
0.000515594
8.9965e-05
0.000450785
0.000335499
0.000287638
0.000264953
0.00025271
0.000245414
0.000240757
0.00023766
0.000235569
0.000234184
0.000233336
0.000232932
0.000232932
5.0371e-05
0.000350815
0.000683791
0.000867096
0.000964227
0.0010008
0.000975819
0.00086441
0.000603901
9.80624e-05
0.000450785
0.000351572
0.000302834
0.000277373
0.000262866
0.000253958
0.000248176
0.000244294
0.000241659
0.000239907
0.000238832
0.00023832
0.00023832
5.74327e-05
0.000390472
0.000765416
0.00098299
0.00110238
0.00115022
0.00112475
0.000995605
0.000686241
0.000106745
0.000450785
0.000364209
0.000316232
0.000289057
0.00027278
0.000262475
0.000255662
0.000251035
0.000247873
0.000245762
0.000244464
0.000243844
0.000243844
6.46626e-05
0.000426259
0.000838859
0.00108886
0.00123069
0.00129153
0.00126932
0.0011291
0.000775866
0.00011918
0.000450785
0.00037429
0.000327979
0.000299933
0.000282353
0.000270886
0.000263158
0.000257843
0.000254182
0.000251726
0.00025021
0.000249486
0.000249486
7.20978e-05
0.000459885
0.000909116
0.00119171
0.00135714
0.00143324
0.00141886
0.00127785
0.000895388
0.000143375
2.2093e-05
3.74828e-05
4.37611e-05
4.7114e-05
4.90541e-05
5.02079e-05
5.087e-05
5.11842e-05
5.12204e-05
5.10074e-05
5.05481e-05
4.98251e-05
4.87998e-05
4.74056e-05
4.55309e-05
4.29758e-05
3.93353e-05
3.35707e-05
3.33656e-05
8.2295e-05
0.000295371
0.000378021
0.000419967
0.000443424
0.000457055
0.000464702
0.000468145
0.000468205
0.000465208
0.000459184
0.000449939
0.000437047
0.000419763
0.000396788
0.000365691
0.000321184
0.000248202
7.63755e-05
9.77308e-05
0.000499846
0.000682282
0.000775311
0.000826736
0.000856259
0.000872606
0.000879745
0.000879461
0.000872459
0.000858827
0.000838205
0.000809774
0.000772077
0.000722527
0.000656147
0.000561926
0.000408999
8.83958e-05
0.000109552
0.000646981
0.000919675
0.0010606
0.00113827
0.00118261
0.00120697
0.00121738
0.00121654
0.00120553
0.0011845
0.00115297
0.0011098
0.00105294
0.000978738
0.000880056
0.000741171
0.000519664
9.71587e-05
0.000119975
0.000766378
0.00111928
0.00130278
0.00140366
0.00146104
0.00149236
0.00150546
0.00150383
0.00148887
0.00146078
0.00141898
0.00136207
0.00128749
0.00119064
0.00106255
0.000883682
0.000603349
0.000103962
0.000131026
0.000876323
0.00130236
0.00152256
0.00164317
0.00171167
0.00174885
0.001764
0.00176127
0.00174231
0.00170737
0.00165575
0.0015858
0.00149449
0.00137633
0.00122074
0.00100492
0.000672
0.000109554
0.000146284
0.000992588
0.00148504
0.00173466
0.0018712
0.00194887
0.00199082
0.00200739
0.00200321
0.0019801
0.00193835
0.00187712
0.00179449
0.00168694
0.00154815
0.00136593
0.00111456
0.000732189
0.000114352
0.000174093
0.00114133
0.00168185
0.00195009
0.00209837
0.00218335
0.00222908
0.00224647
0.00224045
0.00221298
0.00216431
0.00209346
0.00199818
0.00187446
0.00171505
0.00150618
0.00121925
0.000787989
0.000118591
0.000450785
0.000387195
0.000344345
0.000315956
0.000296959
0.000284001
0.000275003
0.000268693
0.000264289
0.000261311
0.000259463
0.000258578
0.000258578
8.41949e-05
0.000510996
0.00101931
0.00135558
0.00156108
0.00166526
0.00167111
0.00155469
0.00126006
0.000733139
0.000450785
0.000399213
0.00036127
0.000333993
0.000314483
0.000300478
0.000290379
0.0002831
0.000277922
0.000274373
0.000272153
0.000271084
0.000271084
0.000100256
0.000566819
0.00113607
0.00153256
0.00178865
0.00193616
0.00198641
0.00193447
0.00176621
0.0014805
0.000450785
0.00040801
0.000374622
0.000349176
0.000330021
0.000315682
0.000304996
0.000297099
0.000291375
0.0002874
0.000284891
0.000283678
0.000283678
0.000115931
0.000612432
0.00122864
0.00167501
0.00197702
0.00216829
0.00226668
0.00227964
0.00221288
0.00208541
0.000450785
0.000414731
0.000385375
0.000362019
0.000343726
0.000329558
0.000318697
0.000310491
0.000304441
0.000300186
0.000297478
0.000296161
0.000296161
0.000131138
0.000650862
0.00130513
0.00179384
0.00213686
0.00236869
0.00251105
0.00257732
0.00257932
0.00253507
0.000450785
0.000420035
0.000394195
0.000372953
0.000355792
0.000342126
0.0003314
0.000323137
0.000316952
0.000312552
0.000309729
0.00030835
0.00030835
0.000145755
0.000683667
0.0013694
0.00189432
0.00227322
0.00254072
0.00272031
0.00282753
0.00287481
0.00287547
0.000450785
0.000424321
0.000401532
0.000382317
0.000366405
0.000353445
0.000343071
0.000334945
0.000328781
0.000324351
0.000321488
0.000320084
0.000320084
0.000159643
0.000711766
0.00142363
0.00197942
0.00238924
0.00268719
0.00289738
0.00303573
0.00311382
0.00314131
0.000450785
0.000427843
0.000407701
0.000390371
0.000375734
0.00036359
0.000353708
0.000345857
0.000339833
0.000335465
0.000332625
0.000331226
0.000331227
0.000172675
0.0007358
0.00146928
0.00205127
0.0024874
0.00281095
0.00304602
0.00320834
0.00330847
0.00335385
0.000450785
0.000430772
0.000412923
0.000397315
0.00038392
0.000372636
0.000363327
0.000355844
0.000350045
0.000345808
0.000343037
0.000341668
0.000341668
0.000184754
0.000756301
0.00150759
0.00211166
0.00256998
0.00291487
0.00317014
0.00335119
0.0034678
0.00352611
0.000450785
0.000433224
0.000417361
0.000403305
0.000391082
0.000380657
0.000371958
0.000364895
0.000359375
0.000355315
0.000352648
0.000351327
0.000351327
0.000195825
0.000773779
0.00153969
0.00216228
0.00263922
0.0030018
0.00327348
0.00346932
0.00359857
0.00366665
0.000450785
0.000435286
0.000421136
0.000408462
0.000397322
0.000387722
0.000379635
0.000373014
0.000367803
0.000363949
0.000361406
0.000360144
0.000360144
0.000205879
0.000788768
0.00156675
0.00220488
0.0026974
0.0030746
0.00335957
0.00356711
0.00370614
0.0037817
0.000450785
0.000437019
0.000424342
0.000412884
0.000402723
0.000393893
0.000386396
0.000380215
0.000375322
0.000371686
0.000369279
0.000368081
0.000368081
0.000214956
0.000801857
0.00158999
0.00224129
0.00274688
0.00313613
0.00343182
0.00364854
0.00379505
0.00387621
0.000450785
0.000438471
0.000427049
0.000416649
0.00040736
0.00039923
0.000392283
0.000386522
0.000381939
0.00037852
0.00037625
0.000375118
0.000375119
0.000223148
0.000813726
0.00161076
0.00227344
0.00279015
0.00318934
0.00349356
0.00371731
0.00386933
0.00395445
0.000450785
0.000439678
0.000429314
0.000419821
0.000411291
0.000403783
0.000397333
0.000391959
0.000387667
0.000384454
0.000382316
0.000381249
0.000381249
0.000230614
0.000825207
0.00163061
0.00230356
0.0028299
0.0032373
0.00354814
0.00377699
0.0039327
0.00402023
0.000450785
0.000440668
0.000431183
0.000422452
0.000414569
0.000407599
0.000401585
0.000396555
0.000392524
0.000389499
0.000387482
0.000386474
0.000386474
0.000237616
0.000837401
0.00165149
0.00233429
0.00286925
0.00328335
0.003599
0.00383105
0.00398865
0.00407702
0.000450785
0.000441463
0.000432691
0.000424585
0.000417237
0.000410716
0.000405071
0.000400335
0.00039653
0.000393669
0.000391758
0.000390802
0.000390802
0.000244604
0.000851933
0.00167615
0.00236918
0.00291205
0.00333128
0.00364975
0.00388291
0.00404044
0.00412795
0.000450785
0.000442081
0.000433866
0.000426252
0.00041933
0.00041317
0.000407823
0.000403327
0.000399707
0.00039698
0.000395157
0.000394245
0.000394245
0.000252427
0.000871588
0.00170912
0.00241355
0.0029634
0.00338559
0.00370424
0.00393593
0.00409109
0.00417582
0.000450785
0.000442534
0.000434729
0.00042748
0.000420876
0.000414986
0.000409864
0.00040555
0.000402071
0.000399448
0.000397693
0.000396814
0.000396814
0.000262941
0.000902236
0.00175923
0.00247619
0.00303041
0.0034516
0.00376649
0.0039933
0.00414329
0.00422305
0.000450785
0.000442831
0.000435296
0.000428288
0.000421895
0.000416185
0.000411214
0.000407022
0.000403639
0.000401086
0.000399376
0.00039852
0.00039852
0.0002812
0.000959961
0.00184617
0.00257217
0.00312274
0.0035353
0.00384041
0.00405778
0.00419926
0.00427154
0.000450785
0.000442978
0.000435577
0.000428689
0.000422401
0.000416782
0.000411886
0.000407755
0.00040442
0.000401902
0.000400216
0.000399371
0.000399371
0.000328968
0.00110241
0.00201485
0.00272476
0.00325129
0.00364195
0.00392884
0.00413128
0.00426049
0.00432267
0.000450785
0.000442978
0.000435577
0.000428689
0.000422401
0.000416782
0.000411886
0.000407756
0.00040442
0.000401902
0.000400216
0.000399371
0.000292991
0.000758423
0.00157387
0.00234224
0.00295403
0.00342114
0.00377293
0.00403234
0.00421425
0.00432757
0.00437719
0.000192808
0.000188305
0.000201869
0.000213529
0.000222531
0.000229622
0.000235622
0.000241422
0.000248219
0.000258168
0.000276618
0.000325735
0.000756461
0.00142325
0.00211506
0.00272546
0.00322502
0.00361928
0.00392271
0.00414838
0.0043056
0.00440019
0.00443528
0.000103796
0.000336749
0.000463888
0.000553117
0.000621708
0.000677346
0.000724775
0.000767831
0.000810774
0.000860525
0.000933964
0.00108911
0.00156745
0.00211337
0.00264108
0.00311084
0.00350746
0.00382997
0.00408317
0.00427275
0.00440323
0.00447747
0.0044968
0.000100848
0.0005989
0.00088307
0.0010695
0.00120834
0.00131968
0.00141411
0.001499
0.00158162
0.00167255
0.00179252
0.00198674
0.00233097
0.00272488
0.00311461
0.00347176
0.00378231
0.00404097
0.00424699
0.00440128
0.00450493
0.00455844
0.00456158
0.000108485
0.000756126
0.00118327
0.00146676
0.00167608
0.00184252
0.00198266
0.00210733
0.00222597
0.0023498
0.00249535
0.00268653
0.00294358
0.00323287
0.00352417
0.00379721
0.00403968
0.00424477
0.00440908
0.00453088
0.00460905
0.00464247
0.00462972
0.000114434
0.000852585
0.0013853
0.00175042
0.00202264
0.00223935
0.00242113
0.00258116
0.00272979
0.00287723
0.00303503
0.00321524
0.00342373
0.00364835
0.00387348
0.00408598
0.00427632
0.00443806
0.00456693
0.00466
0.00471497
0.00472967
0.00470188
0.00011888
0.000919515
0.0015296
0.00195963
0.00228479
0.00254512
0.00276328
0.00295364
0.00312668
0.00329132
0.00345583
0.00362698
0.00380724
0.00399188
0.00417294
0.00434241
0.0044935
0.00462086
0.0047204
0.00478883
0.00482329
0.00482109
0.00477949
0.000122321
0.00097005
0.00163951
0.00212162
0.00249096
0.00278863
0.00303822
0.00325452
0.00344779
0.00362597
0.00379545
0.00396088
0.00412407
0.00428334
0.00443475
0.00457359
0.00469529
0.00479576
0.00487145
0.00491918
0.00493597
0.00491889
0.00486497
0.000125094
0.00101078
0.0017285
0.00225394
0.00266096
0.00299106
0.00326816
0.00350707
0.00371776
0.00390749
0.00408173
0.00424427
0.00439703
0.00453984
0.00467098
0.00478788
0.0048876
0.00496718
0.00502372
0.00505437
0.00505623
0.00502635
0.00496171
0.000127453
0.00104594
0.00180559
0.00236909
0.00280967
0.00316891
0.00347078
0.00373001
0.00395631
0.00415655
0.00433578
0.00449755
0.00464404
0.00477602
0.00489312
0.00499416
0.00507742
0.00514085
0.00518219
0.00519895
0.00518846
0.00514785
0.00507414
0.000129623
0.00107892
0.00187802
0.00247741
0.00294965
0.00333632
0.00366138
0.00393948
0.00418022
0.00439035
0.00457479
0.00473718
0.00488002
0.00500478
0.00511199
0.00520146
0.00527235
0.00532335
0.00535274
0.00535841
0.00533793
0.00528859
0.00520752
0.000131836
0.00111302
0.00195269
0.00258863
0.00309272
0.00350655
0.00385415
0.00415024
0.00440454
0.00462393
0.00481351
0.00497719
0.00511789
0.00523764
0.00533769
0.00541854
0.00548006
0.0055215
0.00554161
0.00553863
0.00551037
0.00545427
0.00536763
0.000134355
0.00115173
0.00203676
0.00271271
0.00325076
0.00369267
0.00406276
0.00437616
0.00464304
0.00487073
0.00506483
0.00522971
0.00536879
0.00548466
0.00557914
0.00565331
0.00570758
0.00574167
0.0057547
0.00574521
0.00571123
0.0056504
0.00556014
0.000137489
0.00119885
0.00213777
0.00285987
0.00343569
0.00390746
0.00430021
0.00462999
0.00490795
0.00514232
0.00533951
0.00550461
0.00564166
0.0057538
0.0058434
0.005912
0.00596044
0.00598882
0.00599657
0.0059825
0.00594483
0.00588138
0.00578971
0.000141606
0.00125831
0.00226325
0.00304018
0.00365898
0.00416277
0.00457803
0.00492254
0.00520912
0.00544753
0.0056454
0.00580877
0.00594245
0.00605017
0.00613476
0.00619819
0.00624164
0.00626551
0.00626949
0.00625261
0.00621328
0.00614946
0.00605887
0.000147117
0.00133373
0.00242008
0.00326285
0.00393086
0.00446868
0.00490535
0.00526157
0.00555293
0.00579144
0.00598641
0.00614512
0.00627321
0.00637504
0.00645385
0.00651195
0.00655078
0.00657098
0.00657244
0.00655439
0.00651541
0.00645365
0.00636694
0.000154472
0.00142829
0.00261449
0.00353636
0.0042603
0.00483308
0.00528813
0.00565099
0.00594139
0.00617449
0.00636178
0.00651195
0.00663152
0.0067254
0.00679716
0.00684934
0.00688357
0.00690064
0.00690063
0.0068829
0.00684625
0.006789
0.00670913
0.000164187
0.00154549
0.00285401
0.0038709
0.00465686
0.00526262
0.00572945
0.00609062
0.00637184
0.00659229
0.00676596
0.00690296
0.00701058
0.00709408
0.00715724
0.00720268
0.00723209
0.00724637
0.00724569
0.00722959
0.00719706
0.00714663
0.00707649
0.000176974
0.00169164
0.00315313
0.0042842
0.00513469
0.00576476
0.0062303
0.00657662
0.00683733
0.00703614
0.00718936
0.00730816
0.00740022
0.00747088
0.00752386
0.00756167
0.00758595
0.00759758
0.00759682
0.00758336
0.0075564
0.0075147
0.00745673
0.000194031
0.00188093
0.00354405
0.00481087
0.00571734
0.00634928
0.00678985
0.00710172
0.00732732
0.00749413
0.00761976
0.0077155
0.00778875
0.00784444
0.00788588
0.00791531
0.00793414
0.00794318
0.00794269
0.0079325
0.007912
0.00788027
0.00783607
0.000217235
0.00214833
0.00409973
0.00551553
0.00643967
0.00702569
0.00740292
0.00765413
0.00782795
0.00795249
0.00804422
0.00811305
0.00816514
0.00820444
0.00823355
0.00825416
0.00826737
0.0082738
0.00827368
0.00826693
0.00825316
0.00823174
0.00820179
0.000244085
0.00262585
0.0050195
0.00651991
0.00734247
0.0077927
0.00805335
0.0082152
0.00832233
0.00839698
0.00845101
0.0084911
0.00852122
0.00854384
0.00856055
0.00857238
0.00858001
0.00858382
0.00858395
0.00858039
0.00857293
0.00856123
0.00854475
0.00027025
0.00426861
0.00704516
0.00805458
0.00844289
0.00861597
0.00870553
0.00875803
0.0087918
0.00881501
0.00883169
0.00884402
0.00885328
0.00886022
0.00886536
0.00886902
0.0088714
0.00887262
0.00887274
0.00887177
0.00886963
0.00886622
0.00886134
0.000157608
0.000147006
0.00014854
0.000162936
0.00121835
0.00117788
0.00119424
0.00126836
0.00198906
0.00196547
0.00199479
0.00207471
0.00249263
0.0024857
0.00252233
0.00259809
0.00285529
0.00285715
0.00289888
0.0029751
0.00313307
0.0031403
0.00318613
0.00326467
0.00335352
0.00336468
0.00341395
0.00349514
0.00353171
0.00354601
0.00359817
0.00368183
0.0036769
0.00369375
0.00374832
0.0038341
0.00379557
0.00381444
0.00387095
0.00395848
0.00389278
0.00391318
0.00397116
0.00406006
0.00397284
0.00399426
0.00405327
0.00414313
0.00403956
0.0040615
0.00412106
0.00421145
0.00409637
0.00411829
0.00417789
0.00426838
0.00414631
0.00416763
0.00422675
0.00431683
0.00419208
0.00421215
0.0042702
0.00435937
0.00423594
0.00425405
0.00431041
0.00439813
0.00427971
0.00429512
0.00434915
0.00443485
0.00432473
0.00433669
0.00438776
0.00447091
0.00437185
0.00437967
0.00442721
0.00450733
0.00442152
0.00442466
0.0044682
0.00454492
0.00447396
0.00447204
0.0045113
0.00458435
0.00452937
0.00452225
0.00455709
0.00462638
0.00458825
0.00457597
0.00460643
0.00467199
0.00465155
0.00463434
0.0046606
0.00472258
0.00472098
0.00469919
0.00472154
0.00478018
0.00479908
0.00477316
0.00479196
0.00484757
0.00488938
0.00485983
0.0048755
0.00492839
0.00499637
0.00496375
0.00497671
0.0050272
0.00512542
0.00509031
0.00510096
0.0051493
0.00528241
0.00524545
0.00525417
0.00530053
0.00547319
0.00543509
0.00544221
0.00548663
0.00570268
0.00566424
0.00567006
0.00571239
0.00597374
0.0059359
0.00594066
0.00598055
0.00628598
0.0062498
0.00625369
0.0062906
0.00663484
0.0066015
0.00660464
0.00663786
0.00701137
0.00698201
0.00698452
0.00701327
0.00740294
0.0073786
0.00738053
0.0074041
0.0077951
0.00777647
0.00777788
0.00779579
0.0081741
0.00816144
0.00816238
0.00817452
0.00852965
0.00852269
0.00852321
0.00852994
0.00885691
0.00885493
0.00885511
0.00885717
0.000851784
0.00156883
0.00203468
0.00230702
0.00246748
0.00256162
0.00261212
0.00263003
0.00262055
0.00258571
0.00252567
0.00243914
0.00232333
0.00217327
0.00198013
0.00172747
0.00138224
0.000871836
0.000124477
0.00165702
0.00214206
0.00250108
0.00274198
0.00289683
0.00299147
0.00304188
0.00305691
0.00304101
0.00299583
0.00292119
0.00281538
0.00267495
0.00249388
0.0022617
0.00195927
0.00154943
0.000955311
0.000130471
0.00230654
0.0026447
0.00292158
0.00312539
0.00326504
0.00335285
0.0033984
0.0034077
0.00338389
0.00332796
0.00323929
0.00311571
0.00295324
0.0027451
0.00247963
0.00213595
0.00167447
0.00101654
0.000134934
0.00279179
0.00306108
0.00328698
0.00346062
0.00358358
0.00366137
0.00369928
0.00370094
0.00366819
0.00360131
0.00349917
0.00335921
0.00317701
0.00294524
0.00265144
0.00227358
0.00177061
0.00106306
0.000138315
0.00316162
0.00340132
0.0035982
0.00375031
0.00385849
0.00392563
0.00395471
0.00394774
0.00390557
0.00382782
0.00371292
0.00355797
0.00335822
0.00310594
0.00278814
0.00238206
0.00184569
0.00109908
0.000140904
0.00345233
0.00367993
0.00386074
0.00399818
0.00409432
0.00415148
0.00417158
0.00415575
0.00410415
0.00401592
0.00388913
0.00372061
0.00350537
0.00323541
0.00289739
0.00246807
0.00190477
0.00112721
0.000142895
0.003686
0.00390909
0.00408096
0.00420848
0.00429512
0.00434342
0.00435501
0.00433061
0.00426995
0.00417187
0.00403419
0.00385354
0.00362476
0.00333968
0.00298474
0.00253635
0.00195137
0.00114924
0.000144426
0.00387613
0.00409796
0.00426476
0.00438545
0.00446463
0.00450531
0.00450918
0.0044768
0.00440773
0.00430062
0.00415313
0.00396178
0.00372129
0.00342339
0.00305437
0.00259041
0.00198804
0.00116646
0.000145599
0.00403153
0.00425348
0.0044173
0.00453314
0.00460644
0.00464067
0.0046377
0.00459813
0.00452145
0.00440624
0.00425008
0.00404941
0.00379891
0.00349023
0.00310958
0.002633
0.00201675
0.00117984
0.000146493
0.00415855
0.00438111
0.00454309
0.00465538
0.004724
0.00475281
0.0047439
0.00469798
0.00461457
0.00449223
0.00432852
0.00411985
0.00386087
0.00354322
0.00315306
0.00266631
0.00203905
0.00119018
0.000147168
0.00426222
0.00448544
0.00464617
0.00475575
0.00482058
0.00484484
0.00483085
0.00477943
0.00469017
0.00456166
0.00439147
0.00417601
0.00390995
0.0035849
0.00318702
0.00269215
0.00205624
0.00119807
0.000147674
0.00434679
0.00457047
0.0047302
0.00483758
0.00489929
0.00491973
0.00490141
0.00484528
0.00475101
0.00461724
0.00444156
0.00422042
0.00394849
0.0036174
0.0032133
0.002712
0.00206935
0.00120405
0.000148049
0.00441599
0.00463975
0.00479848
0.00490395
0.00496301
0.00498021
0.00495822
0.00489809
0.00479958
0.00466136
0.0044811
0.00425525
0.0039785
0.00364253
0.00323347
0.00272711
0.00207925
0.00120853
0.000148324
0.0044731
0.00469643
0.004854
0.00495768
0.00501439
0.0050288
0.00500368
0.00494016
0.00483807
0.00469614
0.00451207
0.00428235
0.00400169
0.00366179
0.0032488
0.00273851
0.00208665
0.00121185
0.000148524
0.00452102
0.00474328
0.00489942
0.00500128
0.00505582
0.00506777
0.00503994
0.00497354
0.00486844
0.00472342
0.0045362
0.00430331
0.0040195
0.00367647
0.00326039
0.00274704
0.00209215
0.00121429
0.000148668
0.00456223
0.00478274
0.00493707
0.00503698
0.00508942
0.00509911
0.00506891
0.00500004
0.0048924
0.0047448
0.00455498
0.0043195
0.00403314
0.00368761
0.0032691
0.0027534
0.0020962
0.00121608
0.000148772
0.00459886
0.00481687
0.00496893
0.0050667
0.00511703
0.00512462
0.00509227
0.00502124
0.00491142
0.00476165
0.00456967
0.00433207
0.00404363
0.0036961
0.00327567
0.00275814
0.00209919
0.00121738
0.000148846
0.00463263
0.00484739
0.00499673
0.00509213
0.00514029
0.00514582
0.0051115
0.00503853
0.00492682
0.00477517
0.00458137
0.00434199
0.00405184
0.00370268
0.00328071
0.00276173
0.00210142
0.00121834
0.000148899
0.00466497
0.00487575
0.00502193
0.0051147
0.0051606
0.0051641
0.0051279
0.00505315
0.00493973
0.00478644
0.00459105
0.00435014
0.00405853
0.00370798
0.00328473
0.00276456
0.00210316
0.00121907
0.000148939
0.00469699
0.00490318
0.00504579
0.00513572
0.00517925
0.00518071
0.00514269
0.00506626
0.00495125
0.00479645
0.00459961
0.00435731
0.00406438
0.00371259
0.00328818
0.00276696
0.00210461
0.00121968
0.000148972
0.00472964
0.00493074
0.00506949
0.00515639
0.00519747
0.00519687
0.00515703
0.00507896
0.00496243
0.00480617
0.00460793
0.00436429
0.00407007
0.00371706
0.00329153
0.00276928
0.002106
0.00122025
0.000149001
0.00476379
0.00495948
0.00509416
0.00517792
0.0052165
0.00521381
0.00517216
0.00509245
0.00497438
0.00481664
0.00461696
0.00437191
0.00407633
0.00372201
0.00329524
0.00277185
0.00210755
0.00122088
0.000149034
0.00480038
0.00499054
0.00512108
0.00520167
0.00523771
0.00523292
0.00518944
0.00510804
0.00498837
0.00482906
0.0046278
0.00438118
0.00408402
0.00372817
0.0032999
0.00277511
0.00210952
0.0012217
0.000149076
0.00484059
0.00502528
0.00515173
0.00522918
0.00526273
0.00525583
0.00521048
0.00512733
0.00500592
0.00484486
0.00464181
0.00439332
0.00409425
0.00373645
0.00330627
0.00277962
0.00211227
0.00122284
0.000149136
0.00488601
0.00506544
0.00518797
0.00526241
0.00529351
0.00528453
0.00523726
0.00515225
0.00502895
0.00486589
0.00466071
0.00440993
0.00410844
0.00374812
0.00331536
0.00278615
0.00211632
0.00122455
0.000149227
0.00493877
0.00511329
0.00523216
0.00530375
0.00533253
0.00532149
0.00527227
0.00518528
0.00505987
0.00489451
0.00468676
0.00443316
0.00412856
0.0037649
0.00332863
0.00279581
0.00212238
0.00122714
0.000149367
0.00500172
0.00517175
0.00528726
0.00535623
0.0053828
0.00536976
0.00531856
0.00522948
0.00510175
0.00493373
0.00472293
0.00446581
0.00415724
0.00378916
0.00334809
0.0028102
0.00213155
0.00123111
0.000149584
0.00507852
0.00524446
0.00535693
0.0054235
0.00544802
0.00543306
0.00537989
0.00528863
0.00515838
0.00498736
0.00477297
0.00451159
0.004198
0.00382414
0.00337657
0.00283158
0.00214538
0.00123719
0.000149922
0.00517363
0.00533581
0.00544549
0.00550985
0.00553248
0.00551571
0.00546064
0.00536721
0.00523434
0.00506008
0.00484164
0.00457521
0.00425544
0.00387417
0.00341795
0.00286314
0.00216612
0.00124644
0.000150449
0.00529222
0.00545077
0.00555777
0.00562004
0.00564092
0.00562252
0.00556573
0.00547029
0.00533491
0.00515735
0.00493457
0.00466245
0.00433534
0.00394485
0.00347736
0.00290922
0.00219692
0.00126041
0.000151264
0.00543983
0.00559456
0.00569877
0.00575897
0.0057782
0.0057584
0.00570024
0.0056032
0.0054657
0.00528519
0.00505816
0.00478003
0.00444465
0.00404309
0.00356134
0.0029755
0.002242
0.00128122
0.000152514
0.00562183
0.0057721
0.00587309
0.00593101
0.00594868
0.00592779
0.00586879
0.00577089
0.00563216
0.00544955
0.005219
0.00493517
0.00459106
0.00417684
0.00367765
0.00306891
0.00230669
0.00131166
0.000154409
0.00584252
0.0059871
0.00608405
0.00613926
0.00615534
0.00613377
0.00607473
0.00597713
0.0058386
0.00565553
0.00542303
0.00513474
0.00478232
0.00435445
0.00383472
0.00319724
0.00239709
0.00135502
0.00015723
0.00610405
0.00624109
0.00633272
0.00638453
0.00639892
0.00637714
0.00631912
0.00622342
0.0060872
0.00590615
0.00567438
0.00538409
0.00502505
0.00458359
0.00404075
0.00336824
0.00251941
0.00141472
0.000161329
0.00640536
0.00653237
0.00661699
0.00666448
0.00667699
0.00665556
0.00659985
0.00650808
0.00637694
0.00620134
0.00597421
0.00568593
0.00532364
0.00487024
0.00430269
0.00358876
0.00267904
0.00149379
0.000167113
0.00674133
0.00685545
0.00693113
0.00697321
0.00698362
0.00696314
0.0069112
0.00682574
0.006703
0.00653717
0.00631988
0.0060394
0.00567951
0.00521821
0.00462622
0.00386489
0.00288058
0.0015946
0.000175027
0.00710279
0.00720108
0.00726589
0.00730153
0.00730964
0.00729076
0.00724415
0.00716754
0.0070569
0.00690586
0.00670491
0.0064401
0.00609126
0.00562989
0.00501742
0.00420446
0.00313014
0.00171992
0.000185587
0.00747734
0.00755734
0.00760972
0.00763812
0.00764386
0.00762726
0.00758748
0.00752223
0.00742745
0.00729662
0.00711953
0.00688049
0.00655536
0.00610789
0.00548621
0.00462268
0.00344136
0.0018756
0.000199535
0.00785122
0.00791146
0.00795058
0.0079714
0.00797491
0.00796126
0.00792961
0.00787789
0.00780238
0.00769697
0.00755175
0.00735047
0.00706642
0.00665587
0.00605005
0.0051509
0.00384704
0.00207618
0.000218233
0.00821185
0.00825225
0.00827823
0.00829172
0.0082934
0.0082833
0.0082607
0.00822397
0.00817018
0.00809439
0.00798821
0.00783717
0.00761544
0.00727611
0.00673455
0.00584797
0.00442287
0.00235858
0.000245323
0.0085503
0.00857229
0.00858627
0.00859331
0.00859377
0.00858764
0.00857444
0.00855317
0.00852201
0.00847783
0.0084152
0.00832418
0.00818561
0.00796031
0.0075639
0.00681254
0.00534999
0.00283454
0.00029785
0.00886312
0.00886947
0.00887347
0.00887539
0.00887537
0.00887337
0.00886924
0.00886266
0.00885305
0.00883944
0.00882008
0.0087917
0.00874757
0.00867223
0.00852427
0.00817134
0.00713303
0.00405864
0.000465822
)
;

boundaryField
{
    leftWall
    {
        type            nutkWallFunction;
        blending        stepwise;
        value           nonuniform List<scalar> 
50
(
0
0
0
0
0
0
0
0
0
0
0
0
0
0
0
0
0
0
0
0
0
0
0
0
0
0
0
5.36008e-05
1.88647e-05
6.15239e-06
5.94368e-06
7.15313e-06
8.07259e-06
8.7496e-06
9.26421e-06
9.66939e-06
1.0004e-05
1.03014e-05
1.05948e-05
1.09212e-05
1.13248e-05
1.18587e-05
1.25852e-05
1.35745e-05
1.49063e-05
1.66836e-05
1.90767e-05
2.24614e-05
2.794e-05
3.82501e-05
)
;
    }
    rightWall
    {
        type            nutkWallFunction;
        blending        stepwise;
        value           nonuniform List<scalar> 
50
(
0
1.86164e-06
3.88839e-06
5.33324e-06
6.43857e-06
7.33732e-06
8.10229e-06
8.77411e-06
9.70108e-06
1.06295e-05
1.13084e-05
1.18142e-05
1.21952e-05
1.24835e-05
1.27015e-05
1.28657e-05
1.29885e-05
1.30796e-05
1.31466e-05
1.31953e-05
1.32305e-05
1.32555e-05
1.32732e-05
1.32857e-05
1.32944e-05
1.33006e-05
1.33052e-05
1.33087e-05
1.33119e-05
1.33154e-05
1.33199e-05
1.33263e-05
1.33361e-05
1.33515e-05
1.33757e-05
1.34139e-05
1.34742e-05
1.3569e-05
1.37169e-05
1.39455e-05
1.42932e-05
1.48107e-05
1.556e-05
1.66112e-05
1.80436e-05
1.99619e-05
2.25484e-05
2.62884e-05
3.34571e-05
5.55332e-05
)
;
    }
    lowerWall
    {
        type            nutkWallFunction;
        blending        stepwise;
        value           nonuniform List<scalar> 
62
(
0
0
0
0
0
0
0
0
0
0
0
0
2.16739e-05
0
0
0
0
0
0
0
0
0
0
0
4.4066e-07
2.56544e-06
4.11588e-06
5.45146e-06
6.86193e-06
8.85386e-06
1.26667e-05
1.48073e-05
1.31229e-05
1.33381e-05
1.5546e-05
0
2.74948e-06
5.30267e-06
7.21238e-06
8.87137e-06
1.06105e-05
1.29859e-05
1.72488e-05
0
0
0
0
0
0
0
0
0
0
0
0
0
0
0
0
0
0
0
)
;
    }
    atmosphere
    {
        type            calculated;
        value           uniform 0.009;
    }
    defaultFaces
    {
        type            empty;
    }
}


// ************************************************************************* //
