/*--------------------------------*- C++ -*----------------------------------*\
| =========                 |                                                 |
| \\      /  F ield         | OpenFOAM: The Open Source CFD Toolbox           |
|  \\    /   O peration     | Version:  2406                                  |
|   \\  /    A nd           | Website:  www.openfoam.com                      |
|    \\/     M anipulation  |                                                 |
\*---------------------------------------------------------------------------*/
FoamFile
{
    version     2.0;
    format      ascii;
    arch        "LSB;label=32;scalar=64";
    class       volScalarField;
    location    "0.8";
    object      nut;
}
// * * * * * * * * * * * * * * * * * * * * * * * * * * * * * * * * * * * * * //

dimensions      [0 2 -1 0 0 0 0];

internalField   nonuniform List<scalar> 
2268
(
3.21202e-05
3.51178e-05
4.1678e-05
4.58782e-05
4.8881e-05
5.11421e-05
5.28892e-05
5.42534e-05
5.53168e-05
5.61334e-05
5.67391e-05
5.71565e-05
5.73975e-05
5.74629e-05
5.73406e-05
5.7001e-05
5.63867e-05
5.53933e-05
5.38303e-05
5.13388e-05
4.72028e-05
3.97726e-05
2.25933e-05
7.03499e-05
0.000269251
0.000358428
0.000413441
0.000452307
0.000481534
0.000504201
0.000522011
0.000536007
0.000546861
0.000555015
0.000560749
0.00056421
0.000565409
0.000564199
0.000560205
0.000552678
0.000540212
0.000520143
0.00048726
0.000430766
0.000324823
7.74298e-05
8.27562e-05
0.000452449
0.0006526
0.000779263
0.000869598
0.00093802
0.000991456
0.00103374
0.00106721
0.00109336
0.00111317
0.00112726
0.00113593
0.00113922
0.00113673
0.00112756
0.00110985
0.00108004
0.00103138
0.000950713
0.000811911
0.000560154
9.33169e-05
9.16568e-05
0.00058025
0.0008817
0.00107888
0.00122144
0.00133029
0.00141581
0.00148384
0.00153794
0.00158041
0.00161274
0.00163589
0.0016503
0.00165599
0.00165231
0.00163774
0.00160917
0.00156071
0.00148115
0.00134907
0.0011239
0.000731304
0.000105295
9.84141e-05
0.000675583
0.00106487
0.00132739
0.00151986
0.00166798
0.00178501
0.00187852
0.00195317
0.002012
0.00205697
0.00208932
0.00210968
0.00211798
0.00211336
0.00209364
0.00205454
0.00198788
0.0018783
0.00169671
0.00138958
0.000868554
0.000115574
0.000103803
0.000750623
0.0012156
0.00153755
0.00177672
0.00196223
0.00210958
0.00222779
0.0023225
0.00239738
0.00245485
0.00249641
0.00252282
0.00253399
0.00252881
0.00250457
0.00245591
0.00237274
0.00223618
0.00201069
0.00163067
0.000992145
0.0001261
0.000108254
0.000811999
0.00134253
0.0017182
0.00200071
0.00222145
0.00239767
0.0025396
0.0026537
0.00274421
0.00281395
0.00286466
0.00289723
0.00291157
0.00290637
0.0028785
0.00282178
0.00272472
0.00256598
0.0023055
0.00186716
0.00112155
0.000140494
0.000112018
0.000863574
0.00145139
0.00187558
0.00219809
0.00245186
0.00265543
0.00282001
0.00295277
0.00305844
0.00314017
0.00319997
0.00323883
0.0032567
0.00325214
0.00322175
0.00315886
0.00305118
0.00287638
0.00259303
0.00212067
0.0012944
0.000168526
2.32168e-05
4.09266e-05
4.82445e-05
5.21345e-05
5.43522e-05
5.56379e-05
5.6344e-05
5.66456e-05
5.66288e-05
5.63306e-05
5.57565e-05
5.48873e-05
5.36787e-05
5.20537e-05
4.98822e-05
4.69335e-05
4.27423e-05
3.61199e-05
3.45258e-05
8.80493e-05
0.000341541
0.000444903
0.000497471
0.000526356
0.000542575
0.000551167
0.000554543
0.000553849
0.000549565
0.000541762
0.000530204
0.000514339
0.000493197
0.000465108
0.000427006
0.000372376
0.000283162
8.04099e-05
0.000105594
0.000598356
0.000846433
0.000975708
0.00104623
0.0010852
0.00110542
0.001113
0.00111082
0.00110011
0.00108109
0.00105325
0.0010154
0.00096536
0.000899402
0.000810621
0.000684474
0.000482737
9.39905e-05
0.000119002
0.000788445
0.00117934
0.0013899
0.00150535
0.00156884
0.00160146
0.00161338
0.00160943
0.00159169
0.00156057
0.00151537
0.00145425
0.00137393
0.0012687
0.00112815
0.000930884
0.000624452
0.000103875
0.000130641
0.000941783
0.00146439
0.00175249
0.00191128
0.00199856
0.00204313
0.00205907
0.00205308
0.00202806
0.00198469
0.00192207
0.00183781
0.00172759
0.00158399
0.00139362
0.00112978
0.000731126
0.000111426
0.000142774
0.00107955
0.00172231
0.00207916
0.00227638
0.00238493
0.00244015
0.00245936
0.00245092
0.00241848
0.00236291
0.00228315
0.0021763
0.00203717
0.00185685
0.00161951
0.00129453
0.00081546
0.00011746
0.000159515
0.00122214
0.00197188
0.00238316
0.00261098
0.00273689
0.00280072
0.00282213
0.0028107
0.00277064
0.00270297
0.00260647
0.0024778
0.00231097
0.00209583
0.00181464
0.00143394
0.000884577
0.000122444
0.000190721
0.00140655
0.00223214
0.00267508
0.00292309
0.00306139
0.0031313
0.00315357
0.00313847
0.00309055
0.0030109
0.00289811
0.00274843
0.00255519
0.00230723
0.00198529
0.00155389
0.000942711
0.00012666
0.000117048
0.000932628
0.00159969
0.00209318
0.00247425
0.00277722
0.00302207
0.00322118
0.0033826
0.00351174
0.00361224
0.00368647
0.00373561
0.0037597
0.00375726
0.00372468
0.00365502
0.0035359
0.00334583
0.00304827
0.00258455
0.00188265
0.000964611
0.000122218
0.00100358
0.00175479
0.00232422
0.00277112
0.0031306
0.00342372
0.00366387
0.00385991
0.00401794
0.00414214
0.00423528
0.00429894
0.00433347
0.00433775
0.00430873
0.0042406
0.00412348
0.00394182
0.0036729
0.00328849
0.00276784
0.00213601
0.000126223
0.00105913
0.00187802
0.00251002
0.00301243
0.00342053
0.00375596
0.00403271
0.0042602
0.00444499
0.00459172
0.00470358
0.00478256
0.00482952
0.00484402
0.00482412
0.00476593
0.00466319
0.00450711
0.00428735
0.00399617
0.00363953
0.00325924
0.000129378
0.00110354
0.00197773
0.00266174
0.00321106
0.00366096
0.00403339
0.00434267
0.0045986
0.00480811
0.0049762
0.00510646
0.00520134
0.0052623
0.00528974
0.00528303
0.00524037
0.00515892
0.00503536
0.00486755
0.00465828
0.00442227
0.00419641
0.000131889
0.00113948
0.00205923
0.00278668
0.00337573
0.00386155
0.00426623
0.00460434
0.00488591
0.00511815
0.00530638
0.00545454
0.00556555
0.00564147
0.00568358
0.00569248
0.00566819
0.00561053
0.00551983
0.0053984
0.00525303
0.00509854
0.00496114
0.000133896
0.00116872
0.00212617
0.00288995
0.00351265
0.00402928
0.00446203
0.00482558
0.00513017
0.0053832
0.00559025
0.0057556
0.00588258
0.00597381
0.00603135
0.00605682
0.00605165
0.00601745
0.00595665
0.00587352
0.00577555
0.00567492
0.00558891
0.000135501
0.00119255
0.00218118
0.00297535
0.00362648
0.00416947
0.00462654
0.00501248
0.00533762
0.00560954
0.00583403
0.00601563
0.00615806
0.0062644
0.00633732
0.00637924
0.00639256
0.00637998
0.00634496
0.00629233
0.00622899
0.00616423
0.00610932
0.000136782
0.00121195
0.00222631
0.00304579
0.00372087
0.00428633
0.0047644
0.00516991
0.0055133
0.00580225
0.00604272
0.00623947
0.00639651
0.0065173
0.00660499
0.00666253
0.00669294
0.00669951
0.00668609
0.00665744
0.00661945
0.00657913
0.00654396
0.0001378
0.00122768
0.00226317
0.00310364
0.0037988
0.00438331
0.00487941
0.00530195
0.00566142
0.00596559
0.00622053
0.00643119
0.0066018
0.00673609
0.00683752
0.00690944
0.00695519
0.00697833
0.00698276
0.00697291
0.00695373
0.00693052
0.00690847
0.000138605
0.00124036
0.00229309
0.00315086
0.00386275
0.00446333
0.00497481
0.00541206
0.00578559
0.00610324
0.00637115
0.0065944
0.00677737
0.006924
0.00703795
0.00712279
0.00718203
0.00721931
0.00723842
0.00724337
0.00723834
0.00722748
0.00721451
0.000139236
0.00125051
0.00231721
0.00318913
0.00391487
0.0045289
0.00505341
0.00550327
0.005889
0.00621846
0.00649785
0.00673234
0.00692641
0.00708411
0.00720926
0.00730551
0.00737645
0.00742568
0.00745682
0.00747351
0.00747932
0.00747758
0.00747111
0.000139728
0.00125857
0.00233648
0.0032199
0.003957
0.00458221
0.00511768
0.00557826
0.00597447
0.00631417
0.00660362
0.00684801
0.00705189
0.0072194
0.00735439
0.00746058
0.00754155
0.00760081
0.00764181
0.00766787
0.00768209
0.00768725
0.00768556
0.000140108
0.00126491
0.00235175
0.00324441
0.00399078
0.0046252
0.0051698
0.00563941
0.00604454
0.00639305
0.00669119
0.0069442
0.00715664
0.00733269
0.00747623
0.00759097
0.00768046
0.00774811
0.00779719
0.00783076
0.00785158
0.00786204
0.00786396
0.000140398
0.00126984
0.00236372
0.00326376
0.0040176
0.00465955
0.0052117
0.00568885
0.00610149
0.00645748
0.00676307
0.00702347
0.00724329
0.00742669
0.00757757
0.00769959
0.00779625
0.00787088
0.00792657
0.00796618
0.00799223
0.00800681
0.0080115
0.000140618
0.00127365
0.00237302
0.00327888
0.00403871
0.00468675
0.00524508
0.00572847
0.00614738
0.00650965
0.00682153
0.00708822
0.00731431
0.00750397
0.00766106
0.00778922
0.00789188
0.00797227
0.00803336
0.00807785
0.00810805
0.00812587
0.00813269
0.000140783
0.00127656
0.00238017
0.00329059
0.00405516
0.00470809
0.00527142
0.00575992
0.006184
0.0065515
0.00686864
0.0071406
0.00737197
0.00756689
0.00772919
0.00786247
0.0079701
0.00805523
0.00812072
0.00816913
0.00820265
0.00822303
0.00823151
0.000140906
0.00127876
0.00238561
0.00329957
0.00406785
0.00472467
0.00529202
0.00578465
0.00621297
0.00658477
0.00690624
0.00718259
0.00741835
0.00761763
0.00778426
0.00792177
0.00803349
0.00812249
0.00819154
0.00824311
0.00827927
0.00830167
0.00831145
0.000140996
0.0012804
0.00238971
0.00330638
0.00407756
0.00473742
0.00530798
0.00580392
0.00623566
0.00661095
0.00693598
0.00721592
0.00745528
0.00765816
0.00782833
0.00796931
0.00808437
0.0081765
0.00824843
0.00830253
0.00834079
0.00836478
0.00837559
0.000141062
0.00128162
0.00239277
0.0033115
0.0040849
0.00474715
0.00532022
0.0058188
0.00625326
0.00663137
0.00695928
0.00724213
0.00748442
0.00769022
0.00786328
0.00800707
0.00812481
0.00821947
0.0082937
0.00834982
0.00838975
0.008415
0.0084266
0.00014111
0.00128251
0.00239503
0.00331531
0.00409041
0.00475449
0.00532952
0.00583017
0.0062668
0.00664715
0.00697735
0.00726254
0.00750719
0.00771534
0.00789071
0.00803676
0.00815666
0.00825334
0.0083294
0.00838711
0.00842836
0.00845459
0.00846682
0.000141144
0.00128316
0.00239668
0.00331812
0.00409451
0.00475999
0.00533653
0.00583879
0.00627711
0.00665923
0.00699125
0.00727829
0.00752481
0.00773483
0.00791205
0.0080599
0.00818151
0.00827979
0.00835729
0.00841626
0.00845853
0.00848554
0.00849825
0.000141168
0.00128362
0.00239788
0.00332017
0.00409752
0.00476407
0.00534176
0.00584526
0.0062849
0.00666839
0.00700183
0.00729033
0.00753832
0.00774982
0.0079285
0.00807775
0.00820071
0.00830024
0.00837888
0.00843882
0.0084819
0.00850951
0.00852259
0.000141185
0.00128395
0.00239875
0.00332166
0.00409972
0.00476706
0.00534563
0.00585008
0.00629072
0.00667527
0.00700981
0.00729944
0.00754859
0.00776124
0.00794105
0.0080914
0.00821542
0.00831592
0.00839543
0.00845614
0.00849984
0.0085279
0.00854127
0.000141197
0.00128419
0.00239936
0.00332273
0.00410132
0.00476925
0.00534847
0.00585363
0.00629504
0.0066804
0.00701579
0.00730629
0.00755632
0.00776985
0.00795054
0.00810175
0.00822657
0.00832782
0.00840802
0.00846931
0.00851348
0.0085419
0.00855549
0.000141206
0.00128435
0.0023998
0.00332349
0.00410246
0.00477083
0.00535053
0.00585623
0.00629821
0.00668418
0.00702022
0.00731138
0.00756208
0.0077763
0.00795766
0.00810952
0.00823496
0.00833679
0.00841749
0.00847923
0.00852376
0.00855245
0.0085662
0.000141211
0.00128447
0.0024001
0.00332403
0.00410327
0.00477196
0.00535202
0.00585811
0.00630053
0.00668695
0.00702347
0.00731513
0.00756635
0.00778108
0.00796295
0.0081153
0.00824121
0.00834347
0.00842457
0.00848664
0.00853145
0.00856034
0.00857422
0.000141215
0.00128455
0.00240031
0.00332441
0.00410385
0.00477276
0.00535309
0.00585947
0.0063022
0.00668897
0.00702584
0.00731788
0.00756948
0.00778459
0.00796684
0.00811957
0.00824583
0.00834842
0.00842981
0.00849213
0.00853715
0.00856618
0.00858015
0.000141218
0.0012846
0.00240046
0.00332467
0.00410425
0.00477333
0.00535385
0.00586044
0.0063034
0.00669042
0.00702756
0.00731987
0.00757176
0.00778716
0.00796969
0.00812269
0.00824921
0.00835205
0.00843366
0.00849617
0.00854133
0.00857048
0.00858452
0.00014122
0.00128464
0.00240056
0.00332485
0.00410453
0.00477373
0.00535438
0.00586112
0.00630425
0.00669145
0.00702879
0.00732131
0.0075734
0.00778901
0.00797175
0.00812495
0.00825167
0.00835469
0.00843645
0.0084991
0.00854438
0.00857361
0.0085877
0.000141221
0.00128466
0.00240063
0.00332498
0.00410473
0.00477401
0.00535475
0.0058616
0.00630486
0.00669219
0.00702967
0.00732233
0.00757457
0.00779034
0.00797323
0.00812659
0.00825345
0.00835659
0.00843848
0.00850123
0.00854658
0.00857588
0.00859
0.000141222
0.00128468
0.00240067
0.00332506
0.00410486
0.0047742
0.00535501
0.00586194
0.00630528
0.00669271
0.00703028
0.00732305
0.00757541
0.00779129
0.00797429
0.00812775
0.00825471
0.00835795
0.00843993
0.00850275
0.00854816
0.0085775
0.00859165
0.000141222
0.00128469
0.0024007
0.00332512
0.00410495
0.00477433
0.00535519
0.00586217
0.00630557
0.00669307
0.00703072
0.00732356
0.007576
0.00779195
0.00797504
0.00812858
0.00825561
0.00835892
0.00844096
0.00850383
0.00854929
0.00857865
0.00859282
0.000141222
0.0012847
0.00240073
0.00332516
0.00410501
0.00477442
0.00535531
0.00586233
0.00630578
0.00669332
0.00703102
0.00732392
0.00757641
0.00779242
0.00797557
0.00812916
0.00825625
0.0083596
0.00844168
0.0085046
0.00855008
0.00857947
0.00859365
0.000141223
0.0012847
0.00240074
0.00332518
0.00410505
0.00477448
0.0053554
0.00586244
0.00630592
0.00669349
0.00703123
0.00732417
0.00757669
0.00779275
0.00797593
0.00812956
0.00825669
0.00836008
0.00844219
0.00850513
0.00855064
0.00858004
0.00859423
0.000141223
0.00128471
0.00240075
0.0033252
0.00410508
0.00477452
0.00535545
0.00586252
0.00630601
0.00669361
0.00703137
0.00732434
0.00757689
0.00779297
0.00797619
0.00812985
0.008257
0.00836041
0.00844254
0.0085055
0.00855103
0.00858044
0.00859464
0.000141223
0.00128471
0.00240075
0.00332521
0.0041051
0.00477455
0.00535549
0.00586257
0.00630608
0.00669369
0.00703147
0.00732445
0.00757703
0.00779313
0.00797636
0.00813004
0.00825721
0.00836064
0.00844279
0.00850576
0.00855129
0.00858072
0.00859492
0.000141223
0.00128471
0.00240076
0.00332522
0.00410511
0.00477456
0.00535551
0.0058626
0.00630612
0.00669374
0.00703153
0.00732453
0.00757712
0.00779323
0.00797648
0.00813017
0.00825736
0.0083608
0.00844295
0.00850594
0.00855148
0.0085809
0.00859511
0.000141223
0.00128471
0.00240076
0.00332522
0.00410512
0.00477457
0.00535553
0.00586262
0.00630615
0.00669378
0.00703158
0.00732458
0.00757718
0.00779331
0.00797656
0.00813026
0.00825745
0.0083609
0.00844307
0.00850605
0.0085516
0.00858103
0.00859523
0.000141223
0.00128471
0.00240076
0.00332523
0.00410513
0.00477458
0.00535554
0.00586264
0.00630617
0.0066938
0.00703161
0.00732462
0.00757722
0.00779335
0.00797661
0.00813032
0.00825752
0.00836097
0.00844314
0.00850613
0.00855168
0.00858111
0.00859532
0.000141223
0.00128471
0.00240076
0.00332523
0.00410513
0.00477459
0.00535555
0.00586265
0.00630618
0.00669382
0.00703163
0.00732464
0.00757725
0.00779338
0.00797665
0.00813036
0.00825756
0.00836102
0.00844319
0.00850618
0.00855173
0.00858116
0.00859537
0.000141223
0.00128471
0.00240076
0.00332523
0.00410513
0.00477459
0.00535555
0.00586265
0.00630619
0.00669383
0.00703164
0.00732465
0.00757726
0.0077934
0.00797667
0.00813038
0.00825758
0.00836104
0.00844322
0.00850621
0.00855176
0.00858119
0.0085954
0.000141223
0.00128471
0.00240076
0.00332523
0.00410513
0.00477459
0.00535555
0.00586265
0.00630619
0.00669383
0.00703164
0.00732466
0.00757727
0.00779341
0.00797667
0.00813039
0.00825759
0.00836106
0.00844323
0.00850622
0.00855177
0.00858121
0.00859541
0.000182411
0.000168188
0.000168022
0.000181673
0.00165241
0.00157505
0.00157424
0.00164929
0.00304291
0.00297721
0.00297536
0.00303717
0.00408711
0.00404946
0.00404686
0.00407922
0.00489932
0.00487709
0.0048739
0.00488969
0.00555082
0.0055364
0.00553274
0.00553979
0.0060843
0.00607407
0.00607001
0.00607207
0.00652672
0.00651889
0.00651447
0.00651341
0.00689615
0.00688978
0.00688503
0.00688186
0.00720545
0.0072
0.00719496
0.00719027
0.00746431
0.00745946
0.00745414
0.00744831
0.00768037
0.00767593
0.00767037
0.00766365
0.00785994
0.00785577
0.00784999
0.00784257
0.00800834
0.00800436
0.00799839
0.0079904
0.00813019
0.00812634
0.0081202
0.00811175
0.00822951
0.00822575
0.00821947
0.00821064
0.00830984
0.00830613
0.00829973
0.00829059
0.00837426
0.0083706
0.0083641
0.00835471
0.0084255
0.00842186
0.00841528
0.00840569
0.00846589
0.00846227
0.00845562
0.00844587
0.00849745
0.00849385
0.00848713
0.00847725
0.00852189
0.00851829
0.00851153
0.00850155
0.00854064
0.00853706
0.00853026
0.0085202
0.00855491
0.00855133
0.0085445
0.00853438
0.00856567
0.00856209
0.00855524
0.00854507
0.00857371
0.00857013
0.00856326
0.00855306
0.00857967
0.00857609
0.00856921
0.00855898
0.00858405
0.00858047
0.00857358
0.00856333
0.00858725
0.00858367
0.00857677
0.0085665
0.00858956
0.00858598
0.00857907
0.00856879
0.00859121
0.00858763
0.00858072
0.00857043
0.00859239
0.00858881
0.00858189
0.0085716
0.00859322
0.00858964
0.00858272
0.00857243
0.00859381
0.00859023
0.00858331
0.008573
0.00859421
0.00859063
0.00858371
0.00857341
0.00859449
0.00859091
0.00858399
0.00857368
0.00859468
0.0085911
0.00858418
0.00857387
0.00859481
0.00859123
0.0085843
0.008574
0.00859489
0.00859131
0.00858439
0.00857408
0.00859494
0.00859136
0.00858444
0.00857413
0.00859497
0.00859139
0.00858446
0.00857416
0.00859498
0.0085914
0.00858448
0.00857417
0.00101006
0.00198042
0.00268898
0.00312838
0.00339005
0.00353976
0.00361514
0.00363655
0.00361447
0.00355359
0.00345493
0.00331678
0.0031348
0.00290143
0.00260422
0.00222216
0.00171779
0.0010206
0.000132292
0.00216176
0.00283285
0.00336299
0.00373107
0.00396816
0.00410877
0.0041777
0.00419025
0.00415482
0.00407511
0.00395149
0.00378162
0.00356043
0.00327944
0.002925
0.00247468
0.0018897
0.00110065
0.000138078
0.00326315
0.00367022
0.00403575
0.00431526
0.00450705
0.00462284
0.00467493
0.00467223
0.0046199
0.00451991
0.00437158
0.00417179
0.00391478
0.00359133
0.003187
0.00267857
0.00202665
0.00116337
0.000142558
0.0041876
0.00442657
0.00466652
0.00486449
0.00500584
0.0050894
0.00511833
0.00509596
0.00502414
0.00490288
0.00473028
0.00450235
0.00421267
0.00385145
0.00340369
0.00284565
0.00213774
0.00121358
0.000146088
0.00494505
0.00508423
0.00523588
0.00536726
0.00546138
0.00551115
0.00551425
0.00546989
0.00537717
0.00523429
0.00503812
0.00478387
0.00446451
0.00406975
0.00358419
0.00298376
0.00222879
0.00125429
0.000148898
0.00556811
0.00564742
0.00573847
0.00581827
0.00587158
0.0058894
0.00586655
0.00579963
0.0056857
0.00552148
0.00530281
0.00502414
0.00467791
0.00425345
0.00373504
0.00309839
0.00230381
0.00128748
0.000151145
0.00608502
0.00612697
0.0061762
0.0062168
0.00623622
0.00622545
0.00617811
0.00608929
0.00595472
0.00577001
0.00553018
0.00522908
0.00485869
0.00440803
0.00386115
0.0031936
0.00236568
0.00131462
0.000152944
0.00651682
0.0065343
0.00655409
0.00656491
0.00655668
0.00652111
0.00645151
0.00634226
0.00618823
0.00598432
0.00572491
0.00540342
0.00501146
0.00453781
0.00396635
0.00327251
0.00241664
0.00133678
0.000154382
0.00687889
0.00687958
0.00687807
0.00686609
0.00683545
0.00677875
0.00668943
0.0065616
0.00638969
0.00616814
0.00589091
0.00555108
0.00514002
0.00464632
0.00405375
0.00333767
0.00245844
0.00135481
0.000155528
0.00718279
0.00717146
0.00715414
0.00712446
0.00707566
0.00700113
0.00689464
0.00675027
0.00656226
0.00632478
0.00603156
0.00567543
0.00524761
0.00473656
0.00412597
0.00339117
0.00249254
0.00136941
0.000156436
0.0074375
0.00741726
0.00738793
0.00734436
0.00728079
0.00719132
0.00707004
0.00691117
0.0067089
0.00645727
0.00614989
0.00577943
0.00533704
0.00481109
0.00418524
0.00343479
0.00252017
0.00138114
0.00015715
0.00765029
0.00762326
0.00758462
0.00753001
0.00745442
0.00735247
0.00721859
0.00704717
0.00683244
0.00656843
0.00624865
0.00586576
0.00541083
0.0048722
0.00423351
0.00347008
0.00254237
0.0013905
0.000157708
0.00782722
0.00779491
0.00774894
0.00768551
0.00760011
0.00748776
0.00734324
0.00716107
0.0069356
0.00666087
0.0063304
0.00593683
0.0054712
0.00492188
0.0042725
0.00349839
0.00256006
0.0013979
0.000158141
0.00797348
0.007937
0.00788522
0.00781468
0.00772126
0.00760031
0.00744684
0.00725557
0.00702094
0.00673705
0.00639746
0.00599481
0.00552018
0.00496192
0.00430371
0.00352089
0.00257402
0.0014037
0.000158473
0.00809356
0.00805377
0.00799734
0.00792107
0.0078211
0.00769306
0.00753214
0.00733322
0.00709087
0.00679925
0.00645196
0.00604169
0.00555954
0.0049939
0.00432847
0.00353861
0.00258493
0.0014082
0.000158726
0.00819144
0.008149
0.00808883
0.00800793
0.00790264
0.00776877
0.0076017
0.00739643
0.00714763
0.00684955
0.00649585
0.00607925
0.00559089
0.0050192
0.00434791
0.00355243
0.00259338
0.00141165
0.000158917
0.00827057
0.00822602
0.00816286
0.00807823
0.00796862
0.00783
0.00765788
0.00744738
0.00719325
0.00688983
0.00653084
0.00610904
0.00561561
0.00503903
0.00436305
0.0035631
0.00259985
0.00141427
0.00015906
0.00833403
0.00828778
0.00822223
0.0081346
0.00802152
0.00787905
0.00770282
0.00748804
0.00722957
0.00692179
0.00655848
0.00613245
0.00563493
0.00505442
0.00437471
0.00357127
0.00260476
0.00141625
0.000159165
0.00838449
0.00833688
0.00826942
0.0081794
0.00806353
0.00791797
0.00773842
0.0075202
0.0072582
0.00694689
0.00658009
0.00615067
0.00564987
0.00506625
0.00438361
0.00357745
0.00260845
0.00141772
0.000159243
0.00842424
0.00837557
0.00830659
0.00821468
0.00809658
0.00794855
0.00776636
0.00754537
0.00728056
0.00696642
0.00659684
0.00616471
0.00566133
0.00507526
0.00439035
0.00358209
0.00261119
0.00141881
0.000159299
0.0084553
0.00840577
0.00833561
0.00824219
0.00812235
0.00797236
0.00778807
0.00756489
0.00729784
0.00698147
0.0066097
0.00617544
0.00567003
0.00508206
0.00439539
0.00358554
0.00261321
0.0014196
0.00015934
0.00847933
0.00842915
0.00835805
0.00826347
0.00814225
0.00799073
0.00780479
0.00757989
0.00731109
0.00699296
0.00661947
0.00618356
0.00567658
0.00508714
0.00439913
0.00358807
0.00261469
0.00142018
0.000159369
0.00849778
0.00844708
0.00837525
0.00827976
0.00815747
0.00800476
0.00781754
0.0075913
0.00732114
0.00700166
0.00662683
0.00618964
0.00568146
0.00509091
0.00440188
0.00358993
0.00261576
0.00142059
0.000159389
0.0085118
0.00846071
0.00838832
0.00829213
0.00816902
0.00801539
0.00782718
0.00759991
0.00732869
0.00700817
0.00663232
0.00619416
0.00568506
0.00509367
0.00440389
0.00359127
0.00261653
0.00142088
0.000159404
0.00852237
0.00847097
0.00839816
0.00830143
0.00817769
0.00802337
0.0078344
0.00760634
0.00733433
0.00701301
0.00663639
0.00619749
0.0056877
0.00509568
0.00440534
0.00359223
0.00261708
0.00142109
0.000159414
0.00853026
0.00847864
0.00840551
0.00830837
0.00818416
0.0080293
0.00783976
0.00761111
0.00733849
0.00701657
0.00663937
0.00619992
0.00568962
0.00509714
0.00440639
0.00359292
0.00261746
0.00142123
0.000159421
0.00853611
0.00848431
0.00841094
0.0083135
0.00818893
0.00803367
0.00784371
0.00761461
0.00734154
0.00701917
0.00664154
0.00620168
0.005691
0.00509818
0.00440713
0.0035934
0.00261773
0.00142133
0.000159426
0.00854041
0.00848848
0.00841493
0.00831726
0.00819242
0.00803687
0.00784659
0.00761716
0.00734375
0.00702105
0.0066431
0.00620294
0.00569199
0.00509892
0.00440765
0.00359374
0.00261792
0.0014214
0.000159429
0.00854354
0.00849152
0.00841783
0.00831999
0.00819496
0.00803919
0.00784867
0.007619
0.00734535
0.00702241
0.00664422
0.00620384
0.00569269
0.00509944
0.00440802
0.00359397
0.00261805
0.00142145
0.000159431
0.0085458
0.00849371
0.00841992
0.00832196
0.00819679
0.00804086
0.00785017
0.00762032
0.00734649
0.00702337
0.00664502
0.00620448
0.00569318
0.0050998
0.00440827
0.00359414
0.00261814
0.00142148
0.000159433
0.00854743
0.00849528
0.00842142
0.00832338
0.0081981
0.00804205
0.00785124
0.00762126
0.0073473
0.00702405
0.00664558
0.00620493
0.00569353
0.00510006
0.00440845
0.00359425
0.0026182
0.00142151
0.000159434
0.00854858
0.0084964
0.00842249
0.00832438
0.00819903
0.00804289
0.00785199
0.00762192
0.00734787
0.00702453
0.00664597
0.00620524
0.00569377
0.00510023
0.00440857
0.00359432
0.00261824
0.00142152
0.000159434
0.0085494
0.00849719
0.00842324
0.00832508
0.00819968
0.00804349
0.00785252
0.00762238
0.00734826
0.00702486
0.00664624
0.00620545
0.00569393
0.00510035
0.00440865
0.00359438
0.00261827
0.00142153
0.000159435
0.00854997
0.00849774
0.00842377
0.00832558
0.00820013
0.0080439
0.00785289
0.00762271
0.00734854
0.00702509
0.00664643
0.0062056
0.00569404
0.00510043
0.0044087
0.00359441
0.00261828
0.00142154
0.000159435
0.00855036
0.00849812
0.00842413
0.00832592
0.00820045
0.00804419
0.00785314
0.00762293
0.00734873
0.00702525
0.00664656
0.0062057
0.00569412
0.00510049
0.00440874
0.00359443
0.0026183
0.00142154
0.000159435
0.00855064
0.00849839
0.00842438
0.00832616
0.00820067
0.00804438
0.00785332
0.00762308
0.00734886
0.00702536
0.00664664
0.00620577
0.00569417
0.00510052
0.00440877
0.00359445
0.0026183
0.00142154
0.000159435
0.00855082
0.00849857
0.00842456
0.00832632
0.00820081
0.00804452
0.00785344
0.00762319
0.00734895
0.00702543
0.0066467
0.00620582
0.0056942
0.00510055
0.00440878
0.00359446
0.00261831
0.00142154
0.000159435
0.00855095
0.00849869
0.00842467
0.00832642
0.00820091
0.00804461
0.00785352
0.00762325
0.007349
0.00702548
0.00664674
0.00620585
0.00569423
0.00510056
0.00440879
0.00359446
0.00261831
0.00142155
0.000159436
0.00855103
0.00849877
0.00842475
0.0083265
0.00820098
0.00804467
0.00785357
0.0076233
0.00734904
0.00702551
0.00664677
0.00620587
0.00569424
0.00510057
0.0044088
0.00359447
0.00261832
0.00142155
0.000159436
0.00855108
0.00849882
0.00842479
0.00832654
0.00820102
0.0080447
0.0078536
0.00762333
0.00734907
0.00702553
0.00664678
0.00620588
0.00569425
0.00510058
0.0044088
0.00359447
0.00261832
0.00142155
0.000159436
0.00855111
0.00849884
0.00842482
0.00832657
0.00820105
0.00804473
0.00785362
0.00762335
0.00734908
0.00702555
0.00664679
0.00620589
0.00569426
0.00510059
0.00440881
0.00359447
0.00261832
0.00142155
0.000159436
0.00855112
0.00849886
0.00842483
0.00832658
0.00820106
0.00804474
0.00785363
0.00762335
0.00734909
0.00702555
0.0066468
0.00620589
0.00569426
0.00510059
0.00440881
0.00359447
0.00261832
0.00142155
0.000159436
)
;

boundaryField
{
    leftWall
    {
        type            nutkWallFunction;
        blending        stepwise;
        value           nonuniform List<scalar> 
50
(
0
7.30816e-07
2.83726e-06
4.315e-06
5.42007e-06
6.29105e-06
7.00308e-06
7.59999e-06
8.39018e-06
9.19016e-06
9.80028e-06
1.0274e-05
1.06453e-05
1.09375e-05
1.11674e-05
1.13479e-05
1.14889e-05
1.15983e-05
1.16826e-05
1.1747e-05
1.17957e-05
1.18323e-05
1.18595e-05
1.18795e-05
1.18941e-05
1.19046e-05
1.19122e-05
1.19175e-05
1.19213e-05
1.19239e-05
1.19258e-05
1.1927e-05
1.19279e-05
1.19284e-05
1.19288e-05
1.19291e-05
1.19293e-05
1.19294e-05
1.19295e-05
1.19295e-05
1.19295e-05
1.19296e-05
1.19296e-05
1.19296e-05
1.19296e-05
1.19296e-05
1.19296e-05
1.19296e-05
1.19296e-05
1.19296e-05
)
;
    }
    rightWall
    {
        type            nutkWallFunction;
        blending        stepwise;
        value           nonuniform List<scalar> 
50
(
0
2.47967e-06
4.73833e-06
6.34679e-06
7.55767e-06
8.51431e-06
9.29699e-06
9.95326e-06
1.0822e-05
1.17013e-05
1.23717e-05
1.28921e-05
1.33001e-05
1.36213e-05
1.38744e-05
1.40732e-05
1.42289e-05
1.435e-05
1.44435e-05
1.45153e-05
1.45698e-05
1.46109e-05
1.46415e-05
1.46642e-05
1.46809e-05
1.4693e-05
1.47017e-05
1.4708e-05
1.47124e-05
1.47155e-05
1.47176e-05
1.47191e-05
1.47202e-05
1.47209e-05
1.47213e-05
1.47217e-05
1.47219e-05
1.4722e-05
1.47221e-05
1.47222e-05
1.47222e-05
1.47222e-05
1.47223e-05
1.47223e-05
1.47223e-05
1.47223e-05
1.47223e-05
1.47223e-05
1.47223e-05
1.47223e-05
)
;
    }
    lowerWall
    {
        type            nutkWallFunction;
        blending        stepwise;
        value           nonuniform List<scalar> 
62
(
0
0
0
0
0
0
0
0
0
0
0
0
0
0
0
0
0
0
0
0
0
0
0
0
1.80001e-06
4.43034e-06
6.36499e-06
7.99687e-06
9.64418e-06
1.18667e-05
1.61214e-05
1.81609e-05
1.60149e-05
1.59915e-05
1.80565e-05
0
3.60591e-06
6.45628e-06
8.58227e-06
1.0397e-05
1.22623e-05
1.48019e-05
1.94561e-05
0
0
0
0
0
0
0
0
0
0
0
0
0
0
0
0
0
0
0
)
;
    }
    atmosphere
    {
        type            calculated;
        value           nonuniform List<scalar> 
46
(
0.000141223
0.00128471
0.00240076
0.00332523
0.00410513
0.00477459
0.00535555
0.00586265
0.00630619
0.00669383
0.00703164
0.00732466
0.00757727
0.00779341
0.00797667
0.00813039
0.00825759
0.00836106
0.00844323
0.00850622
0.00855177
0.00858121
0.00859541
0.00859498
0.0085914
0.00858448
0.00857417
0.00855112
0.00849886
0.00842483
0.00832658
0.00820106
0.00804474
0.00785363
0.00762335
0.00734909
0.00702555
0.0066468
0.00620589
0.00569426
0.00510059
0.00440881
0.00359447
0.00261832
0.00142155
0.000159436
)
;
    }
    defaultFaces
    {
        type            empty;
    }
}


// ************************************************************************* //
