/*--------------------------------*- C++ -*----------------------------------*\
| =========                 |                                                 |
| \\      /  F ield         | OpenFOAM: The Open Source CFD Toolbox           |
|  \\    /   O peration     | Version:  2406                                  |
|   \\  /    A nd           | Website:  www.openfoam.com                      |
|    \\/     M anipulation  |                                                 |
\*---------------------------------------------------------------------------*/
FoamFile
{
    version     2.0;
    format      ascii;
    arch        "LSB;label=32;scalar=64";
    class       surfaceScalarField;
    location    "0.8";
    object      phi;
}
// * * * * * * * * * * * * * * * * * * * * * * * * * * * * * * * * * * * * * //

dimensions      [0 3 -1 0 0 0 0];

oriented        oriented;

internalField   nonuniform List<scalar> 
4432
(
-4.22841e-304
-2.18074e-304
-8.32736e-304
-1.00666e-303
-1.25081e-303
-1.32487e-303
-1.68058e-303
-1.29387e-303
-2.12726e-303
-8.69683e-304
-2.5873e-303
6.56112e-305
-3.04389e-303
1.69947e-303
-3.45442e-303
4.31523e-303
-3.7132e-303
8.34913e-303
-3.49223e-303
1.45182e-302
-1.50507e-303
2.40791e-302
9.07617e-303
3.87281e-302
1.36323e-302
5.98009e-302
-2.37569e-303
2.43445e-302
-7.70721e-303
5.59324e-303
-5.51509e-303
-7.94451e-304
-3.54096e-303
-1.9116e-303
-2.22519e-303
-1.65708e-303
-1.37971e-303
-1.08961e-303
-8.31326e-304
-5.55164e-304
-4.63606e-304
-1.41762e-304
-1.93646e-304
1.24316e-304
1.75105e-304
-1.30545e-303
-4.02144e-304
-2.54623e-303
-1.8107e-303
-3.79657e-303
-2.43011e-303
-5.08234e-303
-2.36483e-303
-6.41455e-303
-1.51249e-303
-7.78007e-303
3.57816e-304
-9.1266e-303
3.60947e-303
-1.0328e-302
8.78276e-303
-1.10978e-302
1.66939e-302
-1.07446e-302
2.86289e-302
-7.2313e-303
4.67593e-302
6.56027e-305
7.51502e-302
9.39966e-303
1.16798e-301
-6.84296e-303
4.43473e-302
-1.04937e-302
7.70069e-303
-7.50038e-303
3.25324e-305
-5.08811e-303
-1.57405e-303
-3.36859e-303
-1.54113e-303
-2.19761e-303
-1.05144e-303
-1.40257e-303
-5.17776e-304
-8.48148e-304
-6.38578e-305
-4.14567e-304
2.67255e-304
3.64892e-304
-2.19787e-303
-6.21961e-304
-4.30831e-303
-2.58374e-303
-6.43856e-303
-3.49916e-303
-8.63377e-303
-3.40848e-303
-1.09159e-302
-2.13974e-303
-1.32707e-302
6.50267e-304
-1.5626e-302
5.48994e-303
-1.78068e-302
1.3157e-302
-1.94366e-302
2.48067e-302
-1.97233e-302
4.22262e-302
-1.66674e-302
6.83809e-302
-1.39528e-302
1.08874e-301
1.52928e-303
1.67039e-301
-1.19227e-302
5.95823e-302
-1.24057e-302
9.67835e-303
-8.93152e-303
9.3901e-304
-6.24873e-303
-1.07417e-303
-4.27569e-303
-1.27511e-303
-2.883e-303
-9.05682e-304
-1.9091e-303
-4.16774e-304
-1.21279e-303
4.27404e-305
-6.48555e-304
4.18999e-304
5.7149e-304
-3.13097e-303
-8.59435e-304
-6.1658e-303
-3.36702e-303
-9.23738e-303
-4.59036e-303
-1.24106e-302
-4.49426e-303
-1.57228e-302
-2.82896e-303
-1.91675e-302
8.58481e-304
-2.26697e-302
7.25243e-303
-2.60397e-302
1.73458e-302
-2.88859e-302
3.25945e-302
-3.04653e-302
5.52118e-302
-2.90511e-302
8.8783e-302
-3.16126e-302
1.39696e-301
-8.23823e-303
2.09986e-301
-1.70883e-302
7.11338e-302
-1.44514e-302
1.17638e-302
-1.04205e-302
1.82996e-303
-7.41984e-303
-5.71491e-304
-5.19534e-303
-9.88046e-304
-3.5933e-303
-7.40562e-304
-2.4522e-303
-3.07507e-304
-1.62375e-303
1.45052e-304
-9.33696e-304
5.60324e-304
7.84799e-304
-4.13105e-303
-1.11769e-303
-8.16218e-303
-4.20247e-303
-1.2252e-302
-5.76598e-303
-1.64866e-302
-5.69776e-303
-2.09234e-302
-3.66655e-303
-2.55718e-302
8.89099e-304
-3.03696e-302
8.79882e-303
-3.51406e-302
2.12507e-302
-3.95266e-302
3.99606e-302
-4.28955e-302
6.74911e-302
-4.37711e-302
1.07869e-301
-5.18496e-302
1.67784e-301
-1.94221e-302
2.47691e-301
-2.26024e-302
8.11151e-302
-1.68586e-302
1.38765e-302
-1.21106e-302
2.68205e-303
-8.70965e-303
-1.04313e-304
-6.19993e-303
-7.19431e-304
-4.37553e-303
-5.87529e-304
-3.0631e-303
-2.14355e-304
-2.10445e-303
2.19892e-304
-1.28884e-303
6.60812e-304
9.57603e-304
-5.22138e-303
-1.40561e-303
-1.03388e-302
-5.1279e-303
-1.554e-302
-7.08497e-303
-2.09343e-302
-7.09425e-303
-2.6603e-302
-4.73972e-303
-3.25792e-302
6.45941e-304
-3.88258e-302
1.0029e-302
-4.52005e-302
2.47711e-302
-5.14055e-302
4.68084e-302
-5.69329e-302
7.89729e-302
-6.04688e-302
1.25577e-301
-7.4121e-302
1.93401e-301
-3.1868e-302
2.81913e-301
-2.86055e-302
9.03404e-302
-1.96616e-302
1.59822e-302
-1.40431e-302
3.50045e-303
-1.01588e-302
3.22918e-304
-7.31971e-303
-4.80926e-304
-5.24943e-303
-4.59321e-304
-3.75406e-303
-1.5047e-304
-2.66537e-303
2.48348e-304
-1.7331e-303
6.81316e-304
9.92107e-304
-6.42343e-303
-1.73666e-303
-1.27358e-302
-6.17951e-303
-1.91583e-302
-8.60687e-303
-2.58255e-302
-8.7618e-303
-3.28459e-302
-6.14141e-303
-4.02822e-302
2.65967e-305
-4.8132e-302
1.08355e-302
-5.62996e-302
2.78012e-302
-6.45611e-302
5.30397e-302
-7.25303e-302
8.95772e-302
-7.89914e-302
1.41882e-301
-9.82579e-302
2.16733e-301
-4.55793e-302
3.13363e-301
-3.51506e-302
9.89752e-302
-2.28376e-302
1.80676e-302
-1.6224e-302
4.30003e-303
-1.17823e-302
7.18686e-304
-8.56831e-303
-2.72079e-304
-6.22311e-303
-3.59522e-304
-4.52667e-303
-1.21917e-304
-3.30414e-303
2.17487e-304
-2.2856e-303
5.75142e-304
7.19532e-304
-7.75738e-303
-2.12407e-303
-1.53925e-302
-7.38257e-303
-2.31639e-302
-1.03771e-302
-3.12322e-302
-1.07658e-302
-3.97362e-302
-7.95548e-303
-4.87726e-302
-1.06974e-303
-5.83796e-302
1.11027e-302
-6.85159e-302
3.02133e-302
-7.90368e-302
5.85195e-302
-8.96741e-302
9.91741e-302
-9.91864e-302
1.56686e-301
-1.24456e-301
2.37629e-301
-6.03291e-302
3.40486e-301
-4.22372e-302
1.06698e-301
-2.63302e-302
2.01299e-302
-1.86287e-302
5.10387e-303
-1.35706e-302
1.10341e-303
-9.94045e-303
-7.98487e-305
-7.28927e-303
-2.80262e-304
-5.36566e-303
-1.23525e-304
-3.98956e-303
1.31546e-304
-2.95881e-303
3.47177e-304
2.37585e-304
-5.63884e-307
-2.90966e-306
-7.76082e-307
-1.12163e-305
-6.15992e-307
-9.75759e-306
-6.32537e-307
-5.67352e-306
-6.07289e-307
-2.70072e-306
-4.94249e-307
-1.12456e-306
-3.50145e-307
-4.11202e-307
-2.23586e-307
-1.21787e-307
-1.31887e-307
-1.74386e-308
-7.29622e-308
1.2994e-308
-3.8174e-308
1.6963e-308
-1.8954e-308
1.32875e-308
-8.92385e-309
8.69523e-309
-3.96227e-309
5.12213e-309
-1.63852e-309
2.78545e-309
-6.14698e-310
1.40624e-309
-1.96515e-310
6.49769e-310
-4.37204e-311
2.52809e-310
4.96771e-311
-1.09254e-306
-7.73304e-306
-1.93936e-306
-2.05926e-305
-1.94752e-306
-1.62417e-305
-1.86608e-306
-9.10442e-306
-1.58484e-306
-4.23765e-306
-1.19165e-306
-1.71001e-306
-8.10544e-307
-5.81386e-307
-5.0936e-307
-1.35384e-307
-3.0031e-307
1.47545e-308
-1.67771e-307
4.93947e-308
-8.93085e-308
4.52889e-308
-4.53955e-308
3.22553e-308
-2.20088e-308
2.03165e-308
-1.01282e-308
1.17975e-308
-4.37694e-309
6.41891e-309
-1.73677e-309
3.28663e-309
-5.99507e-310
1.56916e-309
-1.48031e-310
6.56625e-310
1.5658e-310
-2.00634e-306
-1.7257e-305
-3.78612e-306
-3.40664e-305
-4.01275e-306
-2.43031e-305
-3.6669e-306
-1.2985e-305
-2.9265e-306
-5.86566e-306
-2.10079e-306
-2.28993e-306
-1.38873e-306
-7.25077e-307
-8.59903e-307
-1.2249e-307
-5.0449e-307
6.80449e-308
-2.82453e-307
1.0095e-307
-1.51502e-307
8.38072e-308
-7.79442e-308
5.77494e-308
-3.84091e-308
3.59539e-308
-1.80462e-308
2.08631e-308
-8.00698e-309
1.14358e-308
-3.28876e-309
5.95018e-309
-1.19171e-309
2.9248e-309
-3.17293e-310
1.29426e-309
3.5499e-310
-4.11269e-306
-3.6548e-305
-7.18723e-306
-5.47087e-305
-7.4944e-306
-3.51719e-305
-6.50061e-306
-1.78132e-305
-4.93979e-306
-7.7903e-306
-3.42041e-306
-2.94709e-306
-2.20914e-306
-8.72626e-307
-1.35027e-306
-9.16925e-308
-7.88039e-307
1.42152e-307
-4.41467e-307
1.69926e-307
-2.38019e-307
1.35045e-307
-1.23562e-307
9.18101e-308
-6.16565e-308
5.7042e-308
-2.94435e-308
3.32485e-308
-1.33384e-308
1.84055e-308
-5.63041e-309
9.73272e-309
-2.12018e-309
4.91026e-309
-5.99823e-310
2.27499e-309
6.96104e-310
-9.05904e-306
-7.55498e-305
-1.35296e-305
-8.55617e-305
-1.33653e-305
-4.9501e-305
-1.09487e-305
-2.37726e-305
-7.96481e-306
-1.00909e-305
-5.35163e-306
-3.71976e-306
-3.39149e-306
-1.04082e-306
-2.05131e-306
-4.87834e-308
-1.19229e-306
2.36342e-307
-6.68451e-307
2.57517e-307
-3.62077e-307
2.00638e-307
-1.89455e-307
1.359e-307
-9.55754e-308
8.46945e-308
-4.62877e-308
4.97279e-308
-2.13473e-308
2.78358e-308
-9.22408e-309
1.49549e-308
-3.58867e-309
7.7242e-309
-1.06868e-309
3.72067e-309
1.24906e-309
-2.06361e-305
-1.53066e-304
-2.52037e-305
-1.29005e-304
-2.30213e-305
-6.73732e-305
-1.77522e-305
-3.08595e-305
-1.24061e-305
-1.27973e-305
-8.12491e-306
-4.63449e-306
-5.07065e-306
-1.24439e-306
-3.04263e-306
2.83554e-310
-1.76395e-306
3.49395e-307
-9.90472e-307
3.64549e-307
-5.39073e-307
2.82007e-307
-2.84199e-307
1.91387e-307
-1.44822e-307
1.19996e-307
-7.10369e-308
7.10788e-308
-3.32883e-308
4.02489e-308
-1.46837e-308
2.19523e-308
-5.87879e-309
1.15756e-308
-1.83171e-309
5.75622e-309
2.08673e-309
-4.73051e-305
-3.12549e-304
-4.62908e-305
-1.83924e-304
-3.83709e-305
-8.7826e-305
-2.78278e-305
-3.88599e-305
-1.87521e-305
-1.5899e-305
-1.20202e-305
-5.71212e-306
-7.4129e-306
-1.49988e-306
-4.42387e-306
4.64926e-308
-2.56247e-306
4.77432e-307
-1.44251e-306
4.89899e-307
-7.89226e-307
3.7927e-307
-4.19228e-307
2.58804e-307
-2.15707e-307
1.63519e-307
-1.07074e-307
9.77694e-308
-5.09149e-308
5.5981e-308
-2.28802e-308
3.09457e-308
-9.3954e-309
1.6596e-308
-3.04816e-309
8.4461e-309
3.23669e-309
-1.05503e-304
-4.77513e-304
-8.32181e-305
-2.36013e-304
-6.13332e-305
-1.07905e-304
-4.19847e-305
-4.70637e-305
-2.74237e-305
-1.91816e-305
-1.72815e-305
-6.87814e-306
-1.05653e-305
-1.7802e-306
-6.28446e-306
9.93363e-308
-3.6419e-306
6.23335e-307
-2.0568e-306
6.34097e-307
-1.13142e-306
4.92233e-307
-6.05371e-307
3.37825e-307
-3.14284e-307
2.1498e-307
-1.5769e-307
1.2959e-307
-7.59589e-308
7.48829e-308
-3.46887e-308
4.18254e-308
-1.45561e-308
2.26957e-308
-4.89908e-309
1.17051e-308
4.60379e-309
-2.13452e-302
-3.12241e-303
-4.23859e-302
-1.0409e-302
-6.38007e-302
-1.49486e-302
-8.60246e-302
-1.61992e-302
-1.09461e-301
-1.33712e-302
-1.34439e-301
-5.38265e-303
-1.61189e-301
9.19683e-303
-1.89814e-301
3.22374e-302
-2.20274e-301
6.61849e-302
-2.52373e-301
1.14267e-301
-2.8111e-301
1.80788e-301
-3.60351e-301
2.71384e-301
-1.79536e-301
3.81756e-301
-1.14682e-301
1.1927e-301
-6.83081e-302
2.40607e-302
-4.8103e-302
6.71001e-303
-3.51634e-302
1.87325e-303
-2.59591e-302
2.92021e-304
-1.92164e-302
-1.48955e-304
-1.42675e-302
-1.71578e-304
-1.06601e-302
-9.4968e-305
-8.01028e-303
-1.15092e-304
-4.24871e-304
-5.41025e-303
-2.83329e-302
-4.38942e-303
-5.62967e-302
-1.42152e-302
-8.4781e-302
-2.0863e-302
-1.14373e-301
-2.35913e-302
-1.4565e-301
-2.14211e-302
-1.79133e-301
-1.30861e-302
-2.15272e-301
3.01844e-303
-2.54434e-301
2.89038e-302
-2.96895e-301
6.70815e-302
-3.42844e-301
1.20676e-301
-3.86116e-301
1.93567e-301
-4.95546e-301
2.90309e-301
-2.57697e-301
4.0473e-301
-1.50628e-301
1.26948e-301
-8.60648e-302
2.68912e-302
-6.00418e-302
7.8931e-303
-4.3828e-302
2.42653e-303
-3.24221e-302
5.34916e-304
-2.40459e-302
-9.7483e-305
-1.77977e-302
-2.59083e-304
-1.30813e-302
-2.91197e-304
-9.40802e-303
-3.70397e-304
-5.83089e-304
-6.26132e-303
-3.56994e-302
-6.03912e-303
-7.09178e-302
-1.91739e-302
-1.06811e-301
-2.87189e-302
-1.4414e-301
-3.37407e-302
-1.83672e-301
-3.30779e-302
-2.26127e-301
-2.52936e-302
-2.72168e-301
-8.63873e-303
-3.22391e-301
1.8995e-302
-3.77313e-301
6.01225e-302
-4.37375e-301
1.17705e-301
-4.95488e-301
1.95174e-301
-6.33438e-301
2.9617e-301
-3.3866e-301
4.13283e-301
-1.88325e-301
1.30538e-301
-1.04853e-301
2.83656e-302
-7.24194e-302
8.40817e-303
-5.26269e-302
2.59236e-303
-3.88463e-302
5.42087e-304
-2.87402e-302
-1.80516e-304
-2.11545e-302
-3.98186e-304
-1.53629e-302
-4.53595e-304
-1.08331e-302
-4.99761e-304
-5.77587e-304
-7.16405e-303
-4.3465e-302
-8.20258e-303
-8.62671e-302
-2.56783e-302
-1.29887e-301
-3.91542e-302
-1.75276e-301
-4.75052e-302
-2.23402e-301
-4.93857e-302
-2.75187e-301
-4.31939e-302
-3.31492e-301
-2.70456e-302
-3.93102e-301
1.24855e-303
-4.60716e-301
4.41999e-302
-5.34933e-301
1.04628e-301
-6.07609e-301
1.85617e-301
-7.73498e-301
2.90176e-301
-4.21668e-301
4.10163e-301
-2.27693e-301
1.30718e-301
-1.24683e-301
2.84282e-302
-8.53138e-302
8.13175e-303
-6.1661e-302
2.26358e-303
-4.53481e-302
2.35995e-304
-3.34349e-302
-4.49483e-304
-2.44977e-302
-6.25436e-304
-1.76749e-302
-6.26667e-304
-1.23736e-302
-5.9097e-304
-5.51465e-304
-8.18359e-303
-5.16294e-302
-1.10244e-302
-1.02331e-301
-3.41549e-302
-1.53972e-301
-5.28649e-302
-2.07711e-301
-6.58247e-302
-2.6473e-301
-7.14951e-302
-3.26155e-301
-6.80998e-302
-3.93036e-301
-5.36151e-302
-4.66324e-301
-2.57582e-302
-5.46859e-301
1.80051e-302
-6.35351e-301
8.04238e-302
-7.22544e-301
1.64391e-301
-9.16213e-301
2.72578e-301
-5.0718e-301
3.96438e-301
-2.68822e-301
1.27621e-301
-1.45537e-301
2.69561e-302
-9.87535e-302
6.93205e-303
-7.09864e-302
1.32995e-303
-5.19994e-302
-4.69013e-304
-3.82095e-302
-9.70875e-304
-2.79018e-302
-9.97975e-304
-2.00619e-302
-8.70587e-304
-1.40107e-302
-7.14388e-304
-5.62324e-304
-9.28209e-303
-6.01744e-302
-1.4667e-302
-1.19061e-301
-4.508e-302
-1.78989e-301
-7.06289e-302
-2.41343e-301
-8.97543e-302
-3.07542e-301
-1.00699e-301
-3.78924e-301
-1.01495e-301
-4.56729e-301
-8.99583e-302
-5.42065e-301
-6.36894e-302
-6.35896e-301
-2.00804e-302
-7.3902e-301
4.36383e-302
-8.41055e-301
1.30333e-301
-1.06283e-300
2.42605e-301
-5.9614e-301
3.71737e-301
-3.11926e-301
1.20866e-301
-1.6741e-301
2.3677e-302
-1.12743e-301
4.61223e-303
-8.06236e-302
-3.54231e-304
-5.88314e-302
-1.68203e-303
-4.30962e-302
-1.82876e-303
-3.13891e-302
-1.58483e-303
-2.2524e-302
-1.24641e-303
-1.57168e-302
-9.22597e-304
-6.40221e-304
-1.04287e-302
-6.90543e-302
-1.93168e-302
-1.36359e-301
-5.8996e-302
-2.04792e-301
-9.33333e-302
-2.76e-301
-1.20496e-301
-3.51665e-301
-1.38474e-301
-4.33361e-301
-1.45077e-301
-5.22528e-301
-1.3794e-301
-6.20435e-301
-1.14514e-301
-7.28165e-301
-7.20672e-302
-8.46603e-301
-7.71387e-303
-9.64236e-301
8.15382e-302
-1.21495e-300
1.98459e-301
-6.89737e-301
3.34338e-301
-3.57298e-301
1.09539e-301
-1.90313e-301
1.81236e-302
-1.27274e-301
8.78597e-304
-9.05678e-302
-2.98846e-303
-6.5845e-302
-3.54348e-303
-4.80973e-302
-3.12513e-303
-3.49559e-302
-2.46296e-303
-2.50471e-302
-1.81354e-303
-1.74694e-302
-1.25863e-303
-8.0778e-304
-1.16041e-302
-7.81779e-302
-2.51925e-302
-1.54033e-301
-7.65334e-302
-2.31108e-301
-1.22006e-301
-3.11357e-301
-1.59439e-301
-3.9677e-301
-1.8652e-301
-4.8919e-301
-2.00804e-301
-5.90277e-301
-1.99722e-301
-7.01471e-301
-1.80554e-301
-8.2398e-301
-1.40403e-301
-9.58777e-301
-7.6192e-302
-1.09322e-300
1.53287e-302
-1.37422e-300
1.373e-301
-7.89208e-301
2.8119e-301
-4.05261e-301
9.21576e-302
-2.14257e-301
9.60488e-303
-1.42318e-301
-4.67369e-303
-1.00791e-301
-6.83166e-303
-7.30185e-302
-6.22509e-303
-5.31948e-302
-4.97696e-303
-3.85848e-302
-3.71402e-303
-2.76123e-302
-2.62935e-303
-1.92498e-302
-1.76054e-303
-1.08564e-303
-1.27943e-302
-8.73794e-302
-3.25565e-302
-1.71743e-301
-9.84387e-302
-2.57451e-301
-1.57858e-301
-3.46833e-301
-2.0821e-301
-4.42245e-301
-2.46811e-301
-5.45842e-301
-2.70933e-301
-6.59529e-301
-2.77794e-301
-7.84934e-301
-2.64502e-301
-9.23394e-301
-2.27983e-301
-1.07597e-300
-1.64924e-301
-1.22889e-300
-7.1726e-302
-1.54206e-300
5.52901e-302
-8.95638e-301
2.0793e-301
-4.56082e-301
6.66264e-302
-2.39216e-301
-2.80635e-303
-1.57818e-301
-1.25587e-302
-1.11241e-301
-1.21946e-302
-8.03098e-302
-9.921e-303
-5.83553e-302
-7.50824e-303
-4.22485e-302
-5.41878e-303
-3.01969e-302
-3.74681e-303
-2.10396e-302
-2.46185e-303
-1.49272e-303
-1.39868e-302
-9.63787e-302
-4.17319e-302
-1.8892e-301
-1.25618e-301
-2.83013e-301
-2.02343e-301
-3.81453e-301
-2.68733e-301
-4.87039e-301
-3.21651e-301
-6.02284e-301
-3.58062e-301
-7.29365e-301
-3.74994e-301
-8.70103e-301
-3.69421e-301
-1.02597e-300
-3.38122e-301
-1.1981e-300
-2.77554e-301
-1.37162e-300
-1.83731e-301
-1.71931e-300
-5.23287e-302
-1.00972e-300
1.08952e-301
-5.09879e-301
3.02233e-302
-2.65092e-301
-2.02612e-302
-1.73673e-301
-2.33754e-302
-1.21835e-301
-1.94148e-302
-8.76557e-302
-1.48271e-302
-6.35315e-302
-1.08348e-302
-4.59111e-302
-7.64722e-303
-3.27735e-302
-5.20891e-303
-2.2819e-302
-3.38873e-303
-2.04413e-303
-1.51684e-302
-1.04722e-301
-5.31317e-302
-2.04653e-301
-1.59201e-301
-3.06506e-301
-2.57248e-301
-4.13668e-301
-3.43324e-301
-5.2947e-301
-4.13744e-301
-6.56822e-301
-4.65171e-301
-7.98183e-301
-4.94513e-301
-9.55558e-301
-4.98709e-301
-1.13053e-300
-4.74484e-301
-1.32432e-300
-4.18133e-301
-1.52092e-300
-3.2532e-301
-1.9059e-300
-1.91051e-301
-1.13147e-300
-2.24163e-302
-5.66503e-301
-2.03503e-302
-2.91671e-301
-4.40744e-302
-1.89718e-301
-3.77474e-302
-1.32453e-301
-2.88077e-302
-9.49692e-302
-2.11048e-302
-6.86596e-302
-1.50401e-302
-4.95255e-302
-1.04435e-302
-3.53075e-302
-7.0399e-303
-2.4563e-302
-4.55501e-303
-2.74792e-303
-1.63223e-302
-1.11693e-301
-6.73096e-302
-2.17519e-301
-2.00653e-301
-3.25951e-301
-3.24823e-301
-4.41132e-301
-4.34811e-301
-5.67009e-301
-5.26282e-301
-7.06902e-301
-5.95661e-301
-8.63514e-301
-6.39887e-301
-1.03899e-300
-6.56043e-301
-1.23498e-300
-6.40971e-301
-1.45277e-300
-5.90952e-301
-1.67519e-300
-5.01423e-301
-2.1005e-300
-3.6682e-301
-1.25998e-300
-1.93564e-301
-6.25406e-301
-8.87932e-302
-3.18583e-301
-7.55789e-302
-2.05709e-301
-5.6206e-302
-1.42928e-301
-4.05828e-302
-1.02133e-301
-2.88273e-302
-7.36552e-302
-2.01423e-302
-5.30298e-302
-1.38066e-302
-3.77532e-302
-9.23429e-303
-2.62391e-302
-5.95586e-303
-3.6013e-303
-1.74263e-302
-1.16163e-301
-8.50578e-302
-2.25313e-301
-2.51948e-301
-3.38356e-301
-4.07994e-301
-4.60393e-301
-5.4671e-301
-5.96025e-301
-6.63055e-301
-7.48903e-301
-7.53387e-301
-9.21855e-301
-8.14961e-301
-1.11705e-300
-8.45286e-301
-1.33613e-300
-8.41576e-301
-1.58037e-300
-8.00318e-301
-1.83148e-300
-7.16957e-301
-2.30021e-300
-5.85596e-301
-1.39309e-300
-4.12057e-301
-6.85495e-301
-1.78817e-301
-3.45256e-301
-1.15836e-301
-2.21304e-301
-7.89912e-302
-1.53035e-301
-5.47204e-302
-1.0899e-301
-3.79076e-302
-7.84031e-302
-2.60544e-302
-5.63383e-302
-1.76691e-302
-4.00476e-302
-1.17455e-302
-2.78016e-302
-7.56164e-303
-4.58702e-303
-1.84492e-302
-1.16313e-301
-1.07613e-301
-2.24576e-301
-3.15891e-301
-3.39229e-301
-5.10674e-301
-4.6649e-301
-6.83458e-301
-6.11498e-301
-8.28558e-301
-7.77969e-301
-9.42668e-301
-9.68584e-301
-1.02382e-300
-1.18531e-300
-1.07036e-300
-1.42966e-300
-1.08019e-300
-1.70282e-300
-1.0503e-300
-1.98535e-300
-9.76438e-301
-2.50041e-300
-8.52805e-301
-1.52717e-300
-6.84861e-301
-7.44954e-301
-2.93409e-301
-3.70846e-301
-1.65113e-301
-2.36022e-301
-1.05744e-301
-1.62459e-301
-7.08079e-302
-1.15316e-301
-4.80174e-302
-8.27382e-302
-3.25462e-302
-5.93284e-302
-2.1879e-302
-4.21005e-302
-1.44771e-302
-2.91865e-302
-9.31329e-303
-5.67074e-303
-1.93477e-302
-1.09052e-301
-1.37103e-301
-2.0972e-301
-3.96658e-301
-3.21758e-301
-6.38239e-301
-4.52384e-301
-8.50673e-301
-6.06721e-301
-1.02807e-300
-7.87919e-301
-1.16822e-300
-9.97999e-301
-1.27065e-300
-1.2384e-300
-1.33507e-300
-1.51028e-300
-1.36042e-300
-1.81468e-300
-1.34445e-300
-2.13101e-300
-1.28358e-300
-2.69477e-300
-1.1727e-300
-1.65694e-300
-1.0174e-300
-8.00944e-301
-4.33476e-301
-3.941e-301
-2.21988e-301
-2.49159e-301
-1.35079e-301
-1.70731e-301
-8.78608e-302
-1.20775e-301
-5.8519e-302
-8.64156e-302
-3.92196e-302
-6.18214e-302
-2.61919e-302
-4.3784e-302
-1.72802e-302
-3.03047e-302
-1.11211e-302
-6.80002e-303
-2.00626e-302
-8.86386e-302
-1.77439e-301
-1.71268e-301
-5.00718e-301
-2.75479e-301
-7.98127e-301
-4.08227e-301
-1.05536e-300
-5.73072e-301
-1.26755e-300
-7.71336e-301
-1.43495e-300
-1.00358e-300
-1.55953e-300
-1.27029e-300
-1.64291e-300
-1.57211e-300
-1.68536e-300
-1.90983e-300
-1.68558e-300
-2.26172e-300
-1.64093e-300
-2.87566e-300
-1.54768e-300
-1.77514e-300
-1.41248e-300
-8.48815e-301
-5.95109e-301
-4.12994e-301
-2.81856e-301
-2.59588e-301
-1.64084e-301
-1.77109e-301
-1.04194e-301
-1.24852e-301
-6.84494e-302
-8.90712e-302
-4.55186e-302
-6.35632e-302
-3.02808e-302
-4.49236e-302
-1.99595e-302
-3.10396e-302
-1.28676e-302
-7.90558e-303
-2.0519e-302
-4.29729e-302
-2.35659e-301
-9.22575e-302
-6.38061e-301
-1.84141e-301
-1.00029e-300
-3.2061e-301
-1.30573e-300
-5.00092e-301
-1.55327e-300
-7.20021e-301
-1.74754e-300
-9.78575e-301
-1.89405e-300
-1.27499e-300
-1.9968e-300
-1.60933e-300
-2.05748e-300
-1.98216e-300
-2.07564e-300
-2.37053e-300
-2.04963e-300
-3.03493e-300
-1.97778e-300
-1.87114e-300
-1.86916e-300
-8.7968e-301
-7.62841e-301
-4.23946e-301
-3.34584e-301
-2.6541e-301
-1.87982e-301
-1.80404e-301
-1.17484e-301
-1.26769e-301
-7.66131e-302
-9.01942e-302
-5.07891e-302
-6.42194e-302
-3.37693e-302
-4.53026e-302
-2.22904e-302
-3.12531e-302
-1.44167e-302
-8.90534e-303
-2.06319e-302
5.77399e-302
-2.93417e-301
5.91512e-302
-7.96699e-301
-2.28441e-302
-1.23056e-300
-1.72383e-301
-1.58403e-300
-3.76378e-301
-1.86462e-300
-6.26096e-301
-2.08352e-300
-9.1698e-301
-2.25065e-300
-1.24736e-300
-2.37258e-300
-1.61711e-300
-2.45223e-300
-2.02665e-300
-2.48955e-300
-2.45153e-300
-2.48324e-300
-3.16545e-300
-2.42927e-300
-1.92545e-300
-2.3809e-300
-8.72899e-301
-8.88972e-301
-4.20617e-301
-3.61665e-301
-2.63538e-301
-2.00565e-301
-1.78859e-301
-1.25251e-301
-1.25483e-301
-8.18303e-302
-8.91577e-302
-5.43944e-302
-6.34114e-302
-3.62853e-302
-4.46922e-302
-2.40455e-302
-3.08075e-302
-1.56265e-302
-9.71192e-303
-2.03203e-302
2.96969e-301
-6.38438e-301
3.42858e-301
-1.27837e-300
2.42872e-301
-1.78465e-300
5.44201e-302
-2.18249e-300
-1.92772e-301
-2.49241e-300
-4.84394e-301
-2.73328e-300
-8.15076e-301
-2.91963e-300
-1.18413e-300
-3.06048e-300
-1.59255e-300
-3.15967e-300
-2.04088e-300
-3.21699e-300
-2.49741e-300
-3.23073e-300
-3.26552e-300
-3.20524e-300
-1.89718e-300
-2.04383e-300
-7.80373e-301
-7.71089e-301
-3.94471e-301
-3.415e-301
-2.49608e-301
-1.97643e-301
-1.70321e-301
-1.2597e-301
-1.19886e-301
-8.33025e-302
-8.53772e-302
-5.58542e-302
-6.08226e-302
-3.7525e-302
-4.2917e-302
-2.50287e-302
-2.96048e-302
-1.63699e-302
-1.0244e-302
-1.95303e-302
8.81026e-301
-9.64766e-302
8.1507e-301
-6.19766e-301
6.22053e-301
-1.00082e-300
3.53851e-301
-1.28484e-300
4.15486e-302
-1.49993e-300
-3.02889e-301
-1.66408e-300
-6.78381e-301
-1.78929e-300
-1.08872e-300
-1.88233e-300
-1.53833e-300
-1.94489e-300
-2.02883e-300
-1.97286e-300
-2.55491e-300
-1.95218e-300
-2.16048e-300
-1.85179e-300
-1.08095e-300
-1.04451e-300
-5.30504e-301
-5.0744e-301
-3.26568e-301
-2.87382e-301
-2.18941e-301
-1.81077e-301
-1.53305e-301
-1.19719e-301
-1.09452e-301
-8.08196e-302
-7.86494e-302
-5.49534e-302
-5.63722e-302
-3.73182e-302
-3.99458e-302
-2.51149e-302
-2.76343e-302
-1.65584e-302
-1.04414e-302
-1.82599e-302
5.41752e-301
-3.44457e-301
4.10314e-301
-5.60299e-301
2.79273e-301
-6.90894e-301
1.39284e-301
-7.83873e-301
-4.21108e-303
-8.52455e-301
-1.53397e-301
-9.02288e-301
-3.11754e-301
-9.36783e-301
-4.81729e-301
-9.57544e-301
-6.61117e-301
-9.63758e-301
-8.34956e-301
-9.5011e-301
-9.51875e-301
-9.00277e-301
-8.09155e-301
-7.74782e-301
-5.23719e-301
-5.20757e-301
-3.5286e-301
-3.45737e-301
-2.48923e-301
-2.30423e-301
-1.79085e-301
-1.56769e-301
-1.30345e-301
-1.08045e-301
-9.52737e-302
-7.48571e-302
-6.95241e-302
-5.18327e-302
-5.03625e-302
-3.56891e-302
-3.59544e-302
-2.42888e-302
-2.50013e-302
-1.61664e-302
-1.02797e-302
-1.65723e-302
1.0107e-301
-2.57153e-301
5.37008e-302
-3.37293e-301
1.89641e-302
-3.7474e-301
-2.16054e-302
-4.07221e-301
-6.82197e-302
-4.33905e-301
-1.20965e-301
-4.5367e-301
-1.79538e-301
-4.66376e-301
-2.42379e-301
-4.72148e-301
-3.04975e-301
-4.70724e-301
-3.57282e-301
-4.6065e-301
-3.80855e-301
-4.38312e-301
-3.55159e-301
-3.98454e-301
-2.95793e-301
-3.24825e-301
-2.35166e-301
-2.46078e-301
-1.82622e-301
-1.80162e-301
-1.39697e-301
-1.30167e-301
-1.05818e-301
-9.3339e-302
-7.94662e-302
-6.64833e-302
-5.90989e-302
-4.69857e-302
-4.33983e-302
-3.28693e-302
-3.12903e-302
-2.2658e-302
-2.19105e-302
-1.52414e-302
-9.77757e-303
-1.45879e-302
-3.4088e-302
-1.58448e-301
-3.48125e-302
-2.13607e-301
-3.98246e-302
-2.39599e-301
-5.20933e-302
-2.59804e-301
-7.04939e-302
-2.75761e-301
-9.39188e-302
-2.87319e-301
-1.21169e-301
-2.94459e-301
-1.5041e-301
-2.97302e-301
-1.78545e-301
-2.95827e-301
-2.00774e-301
-2.89481e-301
-2.1102e-301
-2.76728e-301
-2.05451e-301
-2.54731e-301
-1.86377e-301
-2.19718e-301
-1.6004e-301
-1.78239e-301
-1.32017e-301
-1.38561e-301
-1.05787e-301
-1.04841e-301
-8.29767e-302
-7.7847e-302
-6.39634e-302
-5.69455e-302
-4.85159e-302
-4.10917e-302
-3.61616e-302
-2.92294e-302
-2.63662e-302
-2.04248e-302
-1.86126e-302
-1.38934e-302
-8.99316e-303
-1.24569e-302
-5.20154e-302
-9.21578e-302
-5.04224e-302
-1.36706e-301
-4.97987e-302
-1.59796e-301
-5.35041e-302
-1.75865e-301
-6.14678e-302
-1.87617e-301
-7.29298e-302
-1.95786e-301
-8.68856e-302
-2.00701e-301
-1.01968e-301
-2.02587e-301
-1.16287e-301
-2.01509e-301
-1.27457e-301
-1.97189e-301
-1.3305e-301
-1.88818e-301
-1.31678e-301
-1.75075e-301
-1.23578e-301
-1.54888e-301
-1.1043e-301
-1.30436e-301
-9.46756e-302
-1.05429e-301
-7.84998e-302
-8.25852e-302
-6.33597e-302
-6.31322e-302
-4.99927e-302
-4.73037e-302
-3.86348e-302
-3.48167e-302
-2.92267e-302
-2.51754e-302
-2.15567e-302
-1.78331e-302
-1.53477e-302
-1.22668e-302
-8.01002e-303
-1.03282e-302
-4.47585e-302
-5.38605e-302
-4.56844e-302
-8.74596e-302
-4.51561e-302
-1.07068e-301
-4.64287e-302
-1.20593e-301
-5.0113e-302
-1.30164e-301
-5.59521e-302
-1.36666e-301
-6.33434e-302
-1.40573e-301
-7.14239e-302
-1.42168e-301
-7.90911e-302
-1.41562e-301
-8.50961e-302
-1.38623e-301
-8.82785e-302
-1.32929e-301
-8.79095e-302
-1.23875e-301
-8.38649e-302
-1.11175e-301
-7.66846e-302
-9.57922e-302
-6.74462e-302
-7.95049e-302
-5.73442e-302
-6.39205e-302
-4.7355e-302
-5.0037e-302
-3.81164e-302
-3.82815e-302
-2.99574e-302
-2.8688e-302
-2.29801e-302
-2.10659e-302
-1.71394e-302
-1.51179e-302
-1.23054e-302
-1.05114e-302
-6.92012e-303
-8.32507e-303
-3.36411e-302
-3.18439e-302
-3.59722e-302
-5.59254e-302
-3.63025e-302
-7.14984e-302
-3.70736e-302
-8.26152e-302
-3.90008e-302
-9.05368e-302
-4.21099e-302
-9.59405e-302
-4.61131e-302
-9.92524e-302
-5.05243e-302
-1.00742e-301
-5.47229e-302
-1.00534e-301
-5.80314e-302
-9.85869e-302
-5.98309e-302
-9.46997e-302
-5.96895e-302
-8.86177e-302
-5.74492e-302
-8.03018e-302
-5.32892e-302
-7.02619e-302
-4.77009e-302
-5.94237e-302
-4.13208e-302
-4.87317e-302
-3.47481e-302
-3.88863e-302
-2.84398e-302
-3.02826e-302
-2.26843e-302
-2.3058e-302
-1.76217e-302
-1.71708e-302
-1.32796e-302
-1.24722e-302
-9.60935e-303
-8.75873e-303
-5.80885e-303
-6.5326e-303
-2.3782e-302
-1.90104e-302
-2.64292e-302
-3.57325e-302
-2.72957e-302
-4.74888e-302
-2.80369e-302
-5.6274e-302
-2.92317e-302
-6.27028e-302
-3.09999e-302
-6.71816e-302
-3.32339e-302
-7.00144e-302
-3.56843e-302
-7.14135e-302
-3.80142e-302
-7.1492e-302
-3.98519e-302
-7.02576e-302
-4.08506e-302
-6.76321e-302
-4.07475e-302
-6.35263e-302
-3.9416e-302
-5.79806e-302
-3.69081e-302
-5.1297e-302
-3.34534e-302
-4.39938e-302
-2.93905e-302
-3.66362e-302
-2.50749e-302
-2.96923e-302
-2.08089e-302
-2.34705e-302
-1.68096e-302
-1.81201e-302
-1.32045e-302
-1.36632e-302
-1.00441e-302
-1.00332e-302
-7.31983e-303
-7.10959e-303
-4.74531e-303
-4.99673e-303
-1.61977e-302
-1.14265e-302
-1.8596e-302
-2.27972e-302
-1.96265e-302
-3.13498e-302
-2.03662e-302
-3.80391e-302
-2.12199e-302
-4.31005e-302
-2.23087e-302
-4.67297e-302
-2.36086e-302
-4.91086e-302
-2.50021e-302
-5.03812e-302
-2.63129e-302
-5.06362e-302
-2.73382e-302
-4.99015e-302
-2.78811e-302
-4.81602e-302
-2.77826e-302
-4.53982e-302
-2.69538e-302
-4.16758e-302
-2.5402e-302
-3.71858e-302
-2.32357e-302
-3.22356e-302
-2.06358e-302
-2.71716e-302
-1.78099e-302
-2.23019e-302
-1.49502e-302
-1.78507e-302
-1.2208e-302
-1.39465e-302
-9.68333e-303
-1.06318e-302
-7.42658e-303
-7.88297e-303
-5.44603e-303
-5.63041e-303
-3.77806e-303
-3.7299e-303
-1.07412e-302
-6.89986e-303
-1.26831e-302
-1.451e-302
-1.36498e-302
-2.05582e-302
-1.43278e-302
-2.54908e-302
-1.49802e-302
-2.93533e-302
-1.57002e-302
-3.22105e-302
-1.64942e-302
-3.41518e-302
-1.73113e-302
-3.52624e-302
-1.80626e-302
-3.56033e-302
-1.86391e-302
-3.5205e-302
-1.89294e-302
-3.40772e-302
-1.88391e-302
-3.22357e-302
-1.83094e-302
-2.97392e-302
-1.73342e-302
-2.67164e-302
-1.59649e-302
-2.33579e-302
-1.42986e-302
-1.98812e-302
-1.24555e-302
-1.64883e-302
-1.05551e-302
-1.33366e-302
-8.69818e-303
-1.05262e-302
-6.95727e-303
-8.10086e-303
-5.37409e-303
-6.05722e-303
-3.96188e-303
-4.35608e-303
-2.93534e-303
-2.71996e-303
-6.97522e-303
-4.1792e-303
-8.4418e-303
-9.20407e-303
-9.24391e-303
-1.33836e-302
-9.814e-303
-1.69218e-302
-1.03167e-302
-1.97847e-302
-1.08147e-302
-2.1969e-302
-1.13216e-302
-2.35052e-302
-1.18174e-302
-2.44355e-302
-1.22586e-302
-2.47968e-302
-1.25874e-302
-2.46138e-302
-1.27419e-302
-2.3904e-302
-1.26667e-302
-2.26918e-302
-1.23248e-302
-2.1027e-302
-1.17078e-302
-1.89973e-302
-1.08399e-302
-1.67251e-302
-9.77353e-303
-1.43495e-302
-8.57811e-303
-1.20032e-302
-7.32668e-303
-9.79466e-303
-6.08451e-303
-7.79782e-303
-4.90161e-303
-6.05025e-303
-3.80943e-303
-4.55686e-303
-2.82078e-303
-3.29608e-303
-2.22804e-303
-1.93944e-303
-4.45397e-303
-2.53601e-303
-5.50818e-303
-5.81275e-303
-6.12352e-303
-8.64385e-303
-6.56997e-303
-1.1121e-302
-6.94843e-303
-1.31876e-302
-7.2985e-303
-1.48115e-302
-7.6321e-303
-1.59916e-302
-7.94235e-303
-1.67422e-302
-8.20846e-303
-1.70821e-302
-8.40029e-303
-1.7028e-302
-8.48366e-303
-1.65966e-302
-8.42666e-303
-1.58112e-302
-8.20663e-303
-1.47108e-302
-7.8164e-303
-1.33562e-302
-7.26735e-303
-1.18275e-302
-6.58789e-303
-1.0215e-302
-5.81804e-303
-8.60612e-303
-5.00198e-303
-7.07483e-303
-4.18111e-303
-5.67399e-303
-3.38879e-303
-4.4331e-303
-2.64735e-303
-3.3595e-303
-1.96724e-303
-2.44159e-303
-1.65389e-303
-1.35337e-303
-2.80656e-303
-1.54026e-303
-3.53602e-303
-3.65165e-303
-3.98176e-303
-5.5353e-303
-4.31138e-303
-7.23236e-303
-4.58631e-303
-8.68859e-303
-4.83065e-303
-9.86537e-303
-5.05292e-303
-1.0747e-302
-5.25127e-303
-1.13327e-302
-5.41586e-303
-1.16288e-302
-5.53097e-303
-1.1645e-302
-5.57783e-303
-1.13937e-302
-5.53819e-303
-1.0894e-302
-5.39841e-303
-1.01749e-302
-5.15325e-303
-9.27835e-303
-4.80798e-303
-8.25754e-303
-4.37806e-303