/*--------------------------------*- C++ -*----------------------------------*\
| =========                 |                                                 |
| \\      /  F ield         | OpenFOAM: The Open Source CFD Toolbox           |
|  \\    /   O peration     | Version:  2406                                  |
|   \\  /    A nd           | Website:  www.openfoam.com                      |
|    \\/     M anipulation  |                                                 |
\*---------------------------------------------------------------------------*/
FoamFile
{
    version     2.0;
    format      ascii;
    arch        "LSB;label=32;scalar=64";
    class       volVectorField;
    location    "0.8";
    object      U;
}
// * * * * * * * * * * * * * * * * * * * * * * * * * * * * * * * * * * * * * //

dimensions      [0 1 -1 0 0 0 0];

internalField   nonuniform List<vector> 
2268
(
(-2.51377e-300 -7.5226e-301 0)
(-7.14035e-300 -3.19537e-300 0)
(-1.18723e-299 -4.08192e-300 0)
(-1.66857e-299 -4.01379e-300 0)
(-2.16845e-299 -2.88997e-300 0)
(-2.6884e-299 -3.84467e-301 0)
(-3.21881e-299 4.03111e-300 0)
(-3.73086e-299 1.11596e-299 0)
(-4.15611e-299 2.22819e-299 0)
(-4.3217e-299 3.96348e-299 0)
(-3.6516e-299 6.74407e-299 0)
(1.45248e-300 1.0736e-298 0)
(2.27387e-298 1.61848e-298 0)
(4.53744e-299 7.1542e-299 0)
(-9.96152e-299 2.39232e-299 0)
(-7.63524e-299 -6.31165e-300 0)
(-4.95657e-299 -1.08323e-299 0)
(-3.128e-299 -8.91645e-300 0)
(-1.95244e-299 -5.74751e-300 0)
(-1.19765e-299 -2.95706e-300 0)
(-7.00396e-300 -9.09113e-301 0)
(-3.58087e-300 3.05223e-301 0)
(-8.40365e-301 4.50135e-301 0)
(-7.80369e-300 -1.60076e-300 0)
(-2.20018e-299 -7.66646e-300 0)
(-3.61326e-299 -1.02135e-299 0)
(-5.05489e-299 -9.94704e-300 0)
(-6.54888e-299 -6.49392e-300 0)
(-8.09654e-299 1.09241e-300 0)
(-9.66657e-299 1.43062e-299 0)
(-1.11709e-298 3.54018e-299 0)
(-1.24096e-298 6.78053e-299 0)
(-1.29285e-298 1.17016e-298 0)
(-1.16031e-298 1.92373e-298 0)
(-5.20719e-299 3.10517e-298 0)
(1.1932e-298 4.83405e-298 0)
(-1.81584e-299 1.91135e-298 0)
(-1.38077e-298 3.64279e-299 0)
(-1.01511e-298 -2.2605e-300 0)
(-6.97342e-299 -9.79394e-300 0)
(-4.64354e-299 -8.96345e-300 0)
(-3.04747e-299 -6.00945e-300 0)
(-1.97001e-299 -3.03317e-300 0)
(-1.23229e-299 -6.20499e-301 0)
(-7.04166e-300 1.03615e-300 0)
(-2.42354e-300 1.43925e-300 0)
(-1.30246e-299 -2.73837e-300 0)
(-3.71563e-299 -1.1871e-299 0)
(-6.12091e-299 -1.60075e-299 0)
(-8.57933e-299 -1.55695e-299 0)
(-1.11329e-298 -9.82586e-300 0)
(-1.37899e-298 2.76843e-300 0)
(-1.65093e-298 2.46401e-299 0)
(-1.91674e-298 5.93643e-299 0)
(-2.14882e-298 1.12322e-298 0)
(-2.28885e-298 1.9189e-298 0)
(-2.21428e-298 3.12161e-298 0)
(-1.64117e-298 5.00354e-298 0)
(-4.48643e-299 7.76852e-298 0)
(-1.084e-298 2.87373e-298 0)
(-1.63814e-298 4.66626e-299 0)
(-1.19428e-298 2.61152e-300 0)
(-8.44922e-299 -7.19013e-300 0)
(-5.81761e-299 -7.6654e-300 0)
(-3.94445e-299 -5.33558e-300 0)
(-2.63788e-299 -2.55364e-300 0)
(-1.72089e-299 -6.8528e-302 0)
(-1.04809e-299 1.84754e-300 0)
(-4.32659e-300 2.49794e-300 0)
(-1.84188e-299 -3.9726e-300 0)
(-5.30661e-299 -1.60076e-299 0)
(-8.77087e-299 -2.17486e-299 0)
(-1.23195e-298 -2.12081e-299 0)
(-1.60158e-298 -1.3262e-299 0)
(-1.98819e-298 4.24796e-300 0)
(-2.38806e-298 3.45965e-299 0)
(-2.78779e-298 8.26004e-299 0)
(-3.15748e-298 1.55342e-298 0)
(-3.43761e-298 2.63731e-298 0)
(-3.51809e-298 4.2567e-298 0)
(-3.18474e-298 6.74394e-298 0)
(-2.49873e-298 1.0255e-297 0)
(-1.98707e-298 3.55521e-298 0)
(-1.91445e-298 5.77669e-299 0)
(-1.38502e-298 7.52042e-300 0)
(-9.94149e-299 -4.40022e-300 0)
(-6.99915e-299 -6.09309e-300 0)
(-4.86263e-299 -4.43674e-300 0)
(-3.34144e-299 -1.94335e-300 0)
(-2.25731e-299 5.29698e-301 0)
(-1.44995e-299 2.67347e-300 0)
(-6.81823e-300 3.66845e-300 0)
(-2.41806e-299 -5.30072e-300 0)
(-7.01377e-299 -2.03226e-299 0)
(-1.16217e-298 -2.77815e-299 0)
(-1.63514e-298 -2.72851e-299 0)
(-2.12901e-298 -1.72625e-299 0)
(-2.64812e-298 5.01507e-300 0)
(-3.19032e-298 4.36574e-299 0)
(-3.74352e-298 1.04561e-298 0)
(-4.27962e-298 1.96353e-298 0)
(-4.74491e-298 3.32005e-298 0)
(-5.0488e-298 5.32301e-298 0)
(-5.03485e-298 8.32933e-298 0)
(-4.8307e-298 1.24025e-297 0)
(-2.91671e-298 4.12014e-298 0)
(-2.24376e-298 6.91642e-299 0)
(-1.60532e-298 1.22248e-299 0)
(-1.15971e-298 -1.76617e-300 0)
(-8.28833e-299 -4.56794e-300 0)
(-5.86706e-299 -3.55393e-300 0)
(-4.12296e-299 -1.37466e-300 0)
(-2.87056e-299 1.03542e-300 0)
(-1.93423e-299 3.37243e-300 0)
(-1.00838e-299 4.79955e-300 0)
(-3.04664e-299 -6.7592e-300 0)
(-8.87459e-299 -2.50221e-299 0)
(-1.47305e-298 -3.44334e-299 0)
(-2.07496e-298 -3.41938e-299 0)
(-2.70467e-298 -2.22996e-299 0)
(-3.36921e-298 4.57833e-300 0)
(-4.06913e-298 5.1282e-299 0)
(-4.7954e-298 1.24735e-298 0)
(-5.52458e-298 2.34822e-298 0)
(-6.21208e-298 3.96225e-298 0)
(-6.78659e-298 6.31607e-298 0)
(-7.12942e-298 9.77457e-298 0)
(-7.38271e-298 1.43235e-297 0)
(-3.90151e-298 4.63219e-298 0)
(-2.62956e-298 8.05636e-299 0)
(-1.85949e-298 1.67145e-299 0)
(-1.34678e-298 6.40632e-301 0)
(-9.72638e-299 -3.19473e-300 0)
(-6.98564e-299 -2.78551e-300 0)
(-4.99962e-299 -9.3824e-301 0)
(-3.57147e-299 1.33722e-300 0)
(-2.51398e-299 3.75774e-300 0)
(-1.44294e-299 5.533e-300 0)
(-3.74106e-299 -8.40739e-300 0)
(-1.09246e-298 -3.0308e-299 0)
(-1.81531e-298 -4.20135e-299 0)
(-2.55883e-298 -4.23532e-299 0)
(-3.33754e-298 -2.88421e-299 0)
(-4.16169e-298 2.39138e-300 0)
(-5.03537e-298 5.69314e-299 0)
(-5.9539e-298 1.42546e-298 0)
(-6.90017e-298 2.70241e-298 0)
(-7.84012e-298 4.55893e-298 0)
(-8.71966e-298 7.23371e-298 0)
(-9.44534e-298 1.10934e-297 0)
(-1.01393e-297 1.6095e-297 0)
(-4.95846e-298 5.11555e-298 0)
(-3.06695e-298 9.18846e-299 0)
(-2.14723e-298 2.10554e-299 0)
(-1.55695e-298 2.84366e-300 0)
(-1.13314e-298 -1.99447e-300 0)
(-8.23134e-299 -2.17057e-300 0)
(-5.97699e-299 -6.85338e-301 0)
(-4.35809e-299 1.34246e-300 0)
(-3.18578e-299 3.59368e-300 0)
(-2.03261e-299 5.17185e-300 0)
(-4.51286e-299 -1.03312e-299 0)
(-1.31984e-298 -3.6369e-299 0)
(-2.19451e-298 -5.08549e-299 0)
(-3.09416e-298 -5.21868e-299 0)
(-4.03663e-298 -3.74239e-299 0)
(-5.03576e-298 -2.1044e-300 0)
(-6.09978e-298 5.99843e-299 0)
(-7.22917e-298 1.57429e-298 0)
(-8.41406e-298 3.02058e-298 0)
(-9.63126e-298 5.10646e-298 0)
(-1.08427e-297 8.07541e-298 0)
(-1.19805e-297 1.22921e-297 0)
(-1.31198e-297 1.77169e-297 0)
(-6.09637e-298 5.56388e-298 0)
(-3.54703e-298 1.03065e-298 0)
(-2.46456e-298 2.5342e-299 0)
(-1.78867e-298 4.91098e-300 0)
(-1.30972e-298 -9.41274e-301 0)
(-9.59841e-299 -1.70868e-300 0)
(-7.04411e-299 -6.30145e-301 0)
(-5.20652e-299 1.00423e-300 0)
(-3.90226e-299 2.61211e-300 0)
(-2.85316e-299 2.59191e-300 0)
(-2.17227e-303 -5.95126e-303 0)
(-1.07021e-302 -3.47697e-302 0)
(-7.01707e-303 -3.25945e-302 0)
(-7.04699e-303 -1.93359e-302 0)
(-7.39481e-303 -9.31333e-303 0)
(-6.47054e-303 -3.96189e-303 0)
(-4.81392e-303 -1.52654e-303 0)
(-3.18042e-303 -5.19664e-304 0)
(-1.92439e-303 -1.37297e-304 0)
(-1.0868e-303 -8.79311e-306 0)
(-5.7904e-304 2.39914e-305 0)
(-2.9253e-304 2.48654e-305 0)
(-1.40219e-304 1.78503e-305 0)
(-6.35268e-305 1.09231e-305 0)
(-2.69379e-305 6.00439e-306 0)
(-1.04721e-305 2.99993e-306 0)
(-3.56242e-306 1.33541e-306 0)
(-9.24311e-307 4.68999e-307 0)
(-7.38928e-308 6.72358e-308 0)
(-2.74978e-303 -2.23065e-302 0)
(-2.21946e-302 -7.41599e-302 0)
(-2.2084e-302 -6.21683e-302 0)
(-2.2381e-302 -3.57636e-302 0)
(-2.02244e-302 -1.69153e-302 0)
(-1.59599e-302 -6.95951e-303 0)
(-1.12473e-302 -2.46693e-303 0)
(-7.25867e-303 -6.63091e-304 0)
(-4.37081e-303 -3.20617e-305 0)
(-2.48573e-303 1.34986e-304 0)
(-1.34474e-303 1.40748e-304 0)
(-6.94309e-304 1.04178e-304 0)
(-3.4214e-304 6.65952e-305 0)
(-1.60356e-304 3.88214e-305 0)
(-7.08867e-305 2.10471e-305 0)
(-2.90456e-305 1.06571e-305 0)
(-1.06074e-305 4.97495e-306 0)
(-3.08022e-306 1.9862e-306 0)
(-2.99549e-307 4.15213e-307 0)
(-5.52954e-303 -5.27945e-302 0)
(-4.02782e-302 -1.25829e-301 0)
(-4.61647e-302 -9.55657e-302 0)
(-4.54526e-302 -5.26558e-302 0)
(-3.82685e-302 -2.42395e-302 0)
(-2.8548e-302 -9.64757e-303 0)
(-1.94163e-302 -3.17932e-303 0)
(-1.22906e-302 -6.51713e-304 0)
(-7.34228e-303 1.75353e-304 0)
(-4.17602e-303 3.4472e-304 0)
(-2.27281e-303 2.99084e-304 0)
(-1.1862e-303 2.09075e-304 0)
(-5.93385e-304 1.30712e-304 0)
(-2.83555e-304 7.57519e-305 0)
(-1.28467e-304 4.12914e-305 0)
(-5.43444e-305 2.12617e-305 0)
(-2.07431e-305 1.02643e-305 0)
(-6.46533e-306 4.39074e-306 0)
(-7.78966e-307 1.10545e-306 0)
(-1.82662e-302 -1.148e-301 0)
(-7.56329e-302 -2.05014e-301 0)
(-8.84627e-302 -1.40459e-301 0)
(-8.26461e-302 -7.34504e-302 0)
(-6.5773e-302 -3.2726e-302 0)
(-4.70099e-302 -1.25916e-302 0)
(-3.10833e-302 -3.86241e-303 0)
(-1.93548e-302 -5.37869e-304 0)
(-1.14739e-302 4.85479e-304 0)
(-6.51827e-303 6.35679e-304 0)
(-3.56111e-303 5.14827e-304 0)
(-1.87323e-303 3.51769e-304 0)
(-9.47873e-304 2.18461e-304 0)
(-4.59841e-304 1.26864e-304 0)
(-2.124e-304 6.97692e-305 0)
(-9.21362e-305 3.65246e-305 0)
(-3.64147e-305 1.81405e-305 0)
(-1.19924e-305 8.17871e-306 0)
(-1.70251e-306 2.3421e-306 0)
(-6.07305e-302 -2.40143e-301 0)
(-1.46101e-301 -3.263e-301 0)
(-1.628e-301 -2.0112e-301 0)
(-1.42351e-301 -9.95458e-302 0)
(-1.07625e-301 -4.2931e-302 0)
(-7.42235e-302 -1.60297e-302 0)
(-4.79624e-302 -4.61226e-303 0)
(-2.94704e-302 -3.52621e-304 0)
(-1.73642e-302 8.95058e-304 0)
(-9.85754e-303 1.01459e-303 0)
(-5.40424e-303 7.96692e-304 0)
(-2.86253e-303 5.39862e-304 0)
(-1.46303e-303 3.35514e-304 0)
(-7.19103e-304 1.96035e-304 0)
(-3.37718e-304 1.08979e-304 0)
(-1.49674e-304 5.79966e-305 0)
(-6.09258e-305 2.95465e-305 0)
(-2.1009e-305 1.39153e-305 0)
(-3.39063e-306 4.41825e-306 0)
(-1.85753e-301 -4.93574e-301 0)
(-2.85401e-301 -5.04649e-301 0)
(-2.90038e-301 -2.79619e-301 0)
(-2.35574e-301 -1.31326e-301 0)
(-1.69737e-301 -5.50689e-302 0)
(-1.13514e-301 -2.00955e-302 0)
(-7.199e-302 -5.4959e-303 0)
(-4.37807e-302 -1.21149e-304 0)
(-2.56871e-302 1.40022e-303 0)
(-1.45866e-302 1.48634e-303 0)
(-8.02736e-303 1.15184e-303 0)
(-4.28052e-303 7.7996e-304 0)
(-2.20818e-303 4.87013e-304 0)
(-1.09833e-303 2.86907e-304 0)
(-5.23549e-304 1.61354e-304 0)
(-2.36476e-304 8.72411e-305 0)
(-9.87758e-305 4.54687e-305 0)
(-3.5446e-305 2.22187e-305 0)
(-6.37476e-306 7.71221e-306 0)
(-5.23108e-301 -9.92956e-301 0)
(-5.56939e-301 -7.48211e-301 0)
(-4.99951e-301 -3.74689e-301 0)
(-3.76115e-301 -1.68372e-301 0)
(-2.59237e-301 -6.92145e-302 0)
(-1.68902e-301 -2.49133e-302 0)
(-1.05539e-301 -6.58922e-303 0)
(-6.37089e-302 1.23903e-304 0)
(-3.72949e-302 1.99299e-303 0)
(-2.12103e-302 2.05405e-303 0)
(-1.17244e-302 1.58693e-303 0)
(-6.29488e-303 1.07873e-303 0)
(-3.27674e-303 6.78355e-304 0)
(-1.64817e-303 4.03389e-304 0)
(-7.96486e-304 2.29531e-304 0)
(-3.65979e-304 1.25953e-304 0)
(-1.56411e-304 6.69496e-305 0)
(-5.81003e-305 3.3684e-305 0)
(-1.14937e-305 1.25535e-305 0)
(-1.33281e-300 -2.04243e-300 0)
(-1.07598e-300 -1.038e-300 0)
(-8.24013e-301 -4.78251e-301 0)
(-5.76318e-301 -2.09024e-301 0)
(-3.82258e-301 -8.51913e-302 0)
(-2.43868e-301 -3.05611e-302 0)
(-1.50696e-301 -7.97711e-303 0)
(-9.05252e-302 3.27619e-304 0)
(-5.29587e-302 2.64368e-303 0)
(-3.01914e-302 2.7037e-303 0)
(-1.67685e-302 2.09642e-303 0)
(-9.06361e-303 1.4347e-303 0)
(-4.75793e-303 9.09696e-304 0)
(-2.41766e-303 5.46118e-304 0)
(-1.18266e-303 3.14139e-304 0)
(-5.51601e-304 1.74583e-304 0)
(-2.40395e-304 9.42257e-305 0)
(-9.1943e-305 4.8342e-305 0)
(-1.99106e-305 1.88803e-305 0)
(-5.83073e-299 -1.3859e-299 0)
(-1.70812e-298 -4.71886e-299 0)
(-2.84158e-298 -6.68963e-299 0)
(-4.00678e-298 -7.06203e-299 0)
(-5.22708e-298 -5.46101e-299 0)
(-6.52245e-298 -1.35708e-299 0)
(-7.90823e-298 5.97173e-299 0)
(-9.39372e-298 1.74851e-298 0)
(-1.09809e-297 3.44759e-298 0)
(-1.26633e-297 5.86942e-298 0)
(-1.44263e-297 9.25678e-298 0)
(-1.62422e-297 1.39432e-297 0)
(-1.81521e-297 1.97569e-297 0)
(-7.96837e-298 6.16582e-298 0)
(-4.34157e-298 1.20376e-298 0)
(-2.9906e-298 3.22008e-299 0)
(-2.17277e-298 8.16905e-300 0)
(-1.60167e-298 6.55045e-301 0)
(-1.18477e-298 -1.09371e-300 0)
(-8.77909e-299 -7.4357e-301 0)
(-6.53565e-299 8.32028e-302 0)
(-4.90693e-299 3.00971e-301 0)
(-3.69129e-299 -1.50494e-300 0)
(-7.73346e-299 -1.98319e-299 0)
(-2.2679e-298 -6.51251e-299 0)
(-3.77497e-298 -9.43998e-299 0)
(-5.3254e-298 -1.04169e-298 0)
(-6.95138e-298 -8.9665e-299 0)
(-8.68263e-298 -4.45081e-299 0)
(-1.05454e-297 3.95166e-299 0)
(-1.25618e-297 1.72991e-298 0)
(-1.47491e-297 3.69377e-298 0)
(-1.71196e-297 6.45996e-298 0)
(-1.96812e-297 1.02503e-297 0)
(-2.24371e-297 1.53392e-297 0)
(-2.54006e-297 2.14346e-297 0)
(-1.06686e-297 6.70341e-298 0)
(-5.4998e-298 1.39239e-298 0)
(-3.73838e-298 4.02004e-299 0)
(-2.7065e-298 1.20433e-299 0)
(-1.99799e-298 2.49586e-300 0)
(-1.48219e-298 -5.13527e-301 0)
(-1.09889e-298 -1.10776e-300 0)
(-8.11515e-299 -1.10791e-300 0)
(-5.92625e-299 -1.54281e-300 0)
(-4.1723e-299 -3.07942e-300 0)
(-9.75025e-299 -2.75301e-299 0)
(-2.85695e-298 -8.8257e-299 0)
(-4.75536e-298 -1.30712e-298 0)
(-6.70974e-298 -1.50381e-298 0)
(-8.76226e-298 -1.41469e-298 0)
(-1.0953e-297 -9.66908e-299 0)
(-1.33194e-297 -6.94759e-300 0)
(-1.58951e-297 1.38882e-298 0)
(-1.87102e-297 3.54434e-298 0)
(-2.17905e-297 6.56101e-298 0)
(-2.51573e-297 1.06356e-297 0)
(-2.88289e-297 1.59852e-297 0)
(-3.27925e-297 2.22358e-297 0)
(-1.348e-297 6.99432e-298 0)
(-6.73472e-298 1.50917e-298 0)
(-4.52015e-298 4.49662e-299 0)
(-3.25334e-298 1.4139e-299 0)
(-2.39562e-298 3.27589e-300 0)
(-1.77414e-298 -5.38316e-301 0)
(-1.31083e-298 -1.68774e-300 0)
(-9.59885e-299 -2.03411e-300 0)
(-6.89169e-299 -2.45378e-300 0)
(-4.73654e-299 -3.21212e-300 0)
(-1.18902e-298 -3.76321e-299 0)
(-3.47651e-298 -1.18629e-298 0)
(-5.78338e-298 -1.79165e-298 0)
(-8.1587e-298 -2.13682e-298 0)
(-1.06554e-297 -2.15442e-298 0)
(-1.33245e-297 -1.76227e-298 0)
(-1.6214e-297 -8.62644e-299 0)
(-1.93682e-297 6.60742e-299 0)
(-2.28272e-297 2.94289e-298 0)
(-2.66259e-297 6.13942e-298 0)
(-3.07936e-297 1.04238e-297 0)
(-3.53554e-297 1.59716e-297 0)
(-4.02823e-297 2.23576e-297 0)
(-1.63963e-297 7.09074e-298 0)
(-8.04422e-298 1.55148e-298 0)
(-5.33927e-298 4.5758e-299 0)
(-3.81829e-298 1.38327e-299 0)
(-2.80039e-298 2.57323e-300 0)
(-2.06727e-298 -1.40946e-300 0)
(-1.52163e-298 -2.6087e-300 0)
(-1.10796e-298 -2.86019e-300 0)
(-7.89266e-299 -2.93865e-300 0)
(-5.38916e-299 -3.02006e-300 0)
(-1.41556e-298 -5.08739e-299 0)
(-4.12633e-298 -1.5844e-298 0)
(-6.85781e-298 -2.43309e-298 0)
(-9.66949e-298 -2.989e-298 0)
(-1.26261e-297 -3.1743e-298 0)
(-1.57899e-297 -2.89836e-298 0)
(-1.92195e-297 -2.05559e-298 0)
(-2.29688e-297 -5.26023e-299 0)
(-2.70863e-297 1.82629e-298 0)
(-3.16135e-297 5.14991e-298 0)
(-3.65849e-297 9.60438e-298 0)
(-4.20292e-297 1.53385e-297 0)
(-4.79099e-297 2.18991e-297 0)
(-1.94297e-297 7.01371e-298 0)
(-9.42558e-298 1.51593e-298 0)
(-6.19636e-298 4.19837e-299 0)
(-4.40383e-298 1.05914e-299 0)
(-3.21584e-298 -2.68425e-302 0)
(-2.36577e-298 -3.44047e-300 0)
(-1.73563e-298 -4.13977e-300 0)
(-1.25935e-298 -3.90156e-300 0)
(-8.94097e-299 -3.43793e-300 0)
(-6.09808e-299 -2.93026e-300 0)
(-1.6544e-298 -6.80798e-299 0)
(-4.80471e-298 -2.10092e-298 0)
(-7.9753e-298 -3.27104e-298 0)
(-1.12373e-297 -4.1135e-298 0)
(-1.46684e-297 -4.54003e-298 0)
(-1.8343e-297 -4.44962e-298 0)
(-2.23306e-297 -3.72949e-298 0)
(-2.66946e-297 -2.25329e-298 0)
(-3.14906e-297 1.1646e-299 0)
(-3.67663e-297 3.52783e-298 0)
(-4.25599e-297 8.13347e-298 0)
(-4.8903e-297 1.40727e-297 0)
(-5.5756e-297 2.08766e-297 0)
(-2.26035e-297 6.75659e-298 0)
(-1.08785e-297 1.39264e-298 0)
(-7.09119e-298 3.28132e-299 0)
(-5.01065e-298 3.75874e-300 0)
(-3.64348e-298 -5.03381e-300 0)
(-2.67147e-298 -7.03529e-300 0)
(-1.95447e-298 -6.6284e-300 0)
(-1.41483e-298 -5.49208e-300 0)
(-1.00289e-298 -4.27033e-300 0)
(-6.84144e-299 -3.13723e-300 0)
(-1.90462e-298 -9.01774e-299 0)
(-5.50766e-298 -2.76322e-298 0)
(-9.12912e-298 -4.34983e-298 0)
(-1.28532e-297 -5.571e-298 0)
(-1.67726e-297 -6.32541e-298 0)
(-2.0975e-297 -6.50168e-298 0)
(-2.55419e-297 -5.97703e-298 0)
(-3.05462e-297 -4.6188e-298 0)
(-3.60513e-297 -2.28313e-298 0)
(-4.21099e-297 1.18074e-298 0)
(-4.87644e-297 5.92954e-298 0)
(-5.60486e-297 1.21045e-297 0)
(-6.39211e-297 1.92338e-297 0)
(-2.59474e-297 6.28484e-298 0)
(-1.24049e-297 1.16212e-298 0)
(-8.02324e-298 1.69528e-299 0)
(-5.63829e-298 -7.5809e-300 0)
(-4.08323e-298 -1.31154e-299 0)
(-2.98455e-298 -1.26971e-299 0)
(-2.17821e-298 -1.0472e-299 0)
(-1.57396e-298 -7.95666e-300 0)
(-1.1146e-298 -5.68451e-300 0)
(-7.60568e-299 -3.77077e-300 0)
(-2.16412e-298 -1.18252e-298 0)
(-6.22748e-298 -3.60246e-298 0)
(-1.03064e-297 -5.72085e-298 0)
(-1.45007e-297 -7.43053e-298 0)
(-1.89203e-297 -8.61592e-298 0)
(-2.36689e-297 -9.15215e-298 0)
(-2.88407e-297 -8.90677e-298 0)
(-3.45195e-297 -7.73731e-298 0)
(-4.07763e-297 -5.49293e-298 0)
(-4.76696e-297 -2.01307e-298 0)
(-5.52453e-297 2.86845e-298 0)
(-6.35404e-297 9.30923e-298 0)
(-7.25082e-297 1.68413e-297 0)
(-2.94936e-297 5.53444e-298 0)
(-1.40071e-297 7.93421e-299 0)
(-8.99124e-298 -7.47272e-300 0)
(-6.28511e-298 -2.46647e-299 0)
(-4.5338e-298 -2.51188e-299 0)
(-3.30399e-298 -2.10231e-299 0)
(-2.40592e-298 -1.61034e-299 0)
(-1.73576e-298 -1.16114e-299 0)
(-1.22814e-298 -7.89613e-300 0)
(-8.38124e-299 -4.94518e-300 0)
(-2.42897e-298 -1.53576e-298 0)
(-6.95032e-298 -4.6555e-298 0)
(-1.14845e-297 -7.44359e-298 0)
(-1.61502e-297 -9.77302e-298 0)
(-2.10788e-297 -1.15096e-297 0)
(-2.63917e-297 -1.25146e-297 0)
(-3.21988e-297 -1.26433e-297 0)
(-3.85949e-297 -1.17445e-297 0)
(-4.56598e-297 -9.65656e-298 0)
(-5.34571e-297 -6.20806e-298 0)
(-6.20372e-297 -1.21448e-298 0)
(-7.14397e-297 5.50547e-298 0)
(-8.16073e-297 1.34992e-297 0)
(-3.32706e-297 4.40937e-298 0)
(-1.56852e-297 2.42947e-299 0)
(-9.99218e-298 -4.29565e-299 0)
(-6.948e-298 -4.90491e-299 0)
(-4.99262e-298 -4.205e-299 0)
(-3.62781e-298 -3.26783e-299 0)
(-2.63604e-298 -2.39709e-299 0)
(-1.89891e-298 -1.67593e-299 0)
(-1.34242e-298 -1.11002e-299 0)
(-9.15973e-299 -6.76888e-300 0)
(-2.69227e-298 -1.97708e-298 0)
(-7.653e-298 -5.96605e-298 0)
(-1.26256e-297 -9.58929e-298 0)
(-1.77529e-297 -1.26929e-297 0)
(-2.31921e-297 -1.51214e-297 0)
(-2.90866e-297 -1.67191e-297 0)
(-3.55625e-297 -1.73308e-297 0)
(-4.27274e-297 -1.67953e-297 0)
(-5.06693e-297 -1.49429e-297 0)
(-5.94578e-297 -1.15873e-297 0)
(-6.91463e-297 -6.52477e-298 0)
(-7.97786e-297 4.6034e-299 0)
(-9.12765e-297 8.93651e-298 0)
(-3.72955e-297 2.77962e-298 0)
(-1.74348e-297 -5.45753e-299 0)
(-1.10201e-297 -9.25522e-299 0)
(-7.62195e-298 -8.25303e-299 0)
(-5.45584e-298 -6.49978e-299 0)
(-3.95311e-298 -4.83357e-299 0)
(-2.86635e-298 -3.44978e-299 0)
(-2.06174e-298 -2.36688e-299 0)
(-1.45616e-298 -1.54632e-299 0)
(-9.93225e-299 -9.33754e-300 0)
(-2.9428e-298 -2.52579e-298 0)
(-8.29803e-298 -7.58814e-298 0)
(-1.36694e-297 -1.22436e-297 0)
(-1.92309e-297 -1.63035e-297 0)
(-2.51722e-297 -1.95848e-297 0)
(-3.1661e-297 -2.19159e-297 0)
(-3.88422e-297 -2.31311e-297 0)
(-4.68347e-297 -2.30653e-297 0)
(-5.57347e-297 -2.15406e-297 0)
(-6.56163e-297 -1.83609e-297 0)
(-7.65365e-297 -1.32998e-297 0)
(-8.85422e-297 -6.10662e-298 0)
(-1.01524e-296 2.81942e-298 0)
(-4.15653e-297 4.81475e-299 0)
(-1.9243e-297 -1.64043e-298 0)
(-1.20649e-297 -1.59669e-298 0)
(-8.29945e-298 -1.26956e-298 0)
(-5.91804e-298 -9.49864e-299 0)
(-4.27594e-298 -6.85716e-299 0)
(-3.09397e-298 -4.80158e-299 0)
(-2.22209e-298 -3.25353e-299 0)
(-1.5678e-298 -2.11013e-299 0)
(-1.06879e-298 -1.27186e-299 0)
(-3.16264e-298 -3.20713e-298 0)
(-8.82647e-298 -9.58973e-298 0)
(-1.4522e-297 -1.55135e-297 0)
(-2.04655e-297 -2.07412e-297 0)
(-2.68855e-297 -2.50582e-297 0)
(-3.39772e-297 -2.82761e-297 0)
(-4.19016e-297 -3.02269e-297 0)
(-5.07879e-297 -3.07455e-297 0)
(-6.07368e-297 -2.96564e-297 0)
(-7.1826e-297 -2.67557e-297 0)
(-8.41137e-297 -2.18023e-297 0)
(-9.76524e-297 -1.45079e-297 0)
(-1.12284e-296 -5.23814e-298 0)
(-4.60451e-297 -2.67727e-298 0)
(-2.10859e-297 -3.11521e-298 0)
(-1.31108e-297 -2.47626e-298 0)
(-8.96999e-298 -1.83879e-298 0)
(-6.3719e-298 -1.32735e-298 0)
(-4.59108e-298 -9.3711e-299 0)
(-3.31506e-298 -6.46699e-299 0)
(-2.37714e-298 -4.34253e-299 0)
(-1.67528e-298 -2.80474e-299 0)
(-1.14122e-298 -1.69315e-299 0)
(-3.32353e-298 -4.05558e-298 0)
(-9.14538e-298 -1.20607e-297 0)
(-1.50396e-297 -1.9535e-297 0)
(-2.12795e-297 -2.61749e-297 0)
(-2.8139e-297 -3.17277e-297 0)
(-3.58381e-297 -3.59958e-297 0)
(-4.45489e-297 -3.8817e-297 0)
(-5.44028e-297 -4.00417e-297 0)
(-6.55008e-297 -3.95046e-297 0)
(-7.79192e-297 -3.70081e-297 0)
(-9.17173e-297 -3.23014e-297 0)
(-1.06952e-296 -2.50721e-297 0)
(-1.23404e-296 -1.56475e-297 0)
(-5.06567e-297 -6.90353e-298 0)
(-2.29242e-297 -5.03977e-298 0)
(-1.41355e-297 -3.58838e-298 0)
(-9.61921e-298 -2.54009e-298 0)
(-6.80758e-298 -1.78313e-298 0)
(-4.89141e-298 -1.23624e-298 0)
(-3.52437e-298 -8.43039e-299 0)
(-2.52297e-298 -5.62129e-299 0)
(-1.77573e-298 -3.62165e-299 0)
(-1.20849e-298 -2.19266e-299 0)
(-3.37947e-298 -5.12217e-298 0)
(-9.10557e-298 -1.51245e-297 0)
(-1.50004e-297 -2.44876e-297 0)
(-2.14124e-297 -3.28152e-297 0)
(-2.86606e-297 -3.98161e-297 0)
(-3.69775e-297 -4.52948e-297 0)
(-4.65296e-297 -4.91174e-297 0)
(-5.7438e-297 -5.11649e-297 0)
(-6.97931e-297 -5.13016e-297 0)
(-8.36663e-297 -4.93464e-297 0)
(-9.91137e-297 -4.50584e-297 0)
(-1.162e-296 -3.81138e-297 0)
(-1.34628e-296 -2.88135e-297 0)
(-5.52641e-297 -1.23908e-297 0)
(-2.46991e-297 -7.45894e-298 0)
(-1.51074e-297 -4.93479e-298 0)
(-1.02271e-297 -3.36424e-298 0)
(-7.2112e-298 -2.30711e-298 0)
(-5.16679e-298 -1.57503e-298 0)
(-3.71432e-298 -1.06346e-298 0)
(-2.65398e-298 -7.05213e-299 0)
(-1.86508e-298 -4.53737e-299 0)
(-1.26779e-298 -2.75674e-299 0)
(-3.24987e-298 -6.4893e-298 0)
(-8.45574e-298 -1.89602e-297 0)
(-1.40555e-297 -3.06142e-297 0)
(-2.0482e-297 -4.09301e-297 0)
(-2.80768e-297 -4.95855e-297 0)
(-3.70484e-297 -5.64192e-297 0)
(-4.75267e-297 -6.13528e-297 0)
(-5.95983e-297 -6.43271e-297 0)
(-7.33309e-297 -6.52513e-297 0)
(-8.87824e-297 -6.3981e-297 0)
(-1.06005e-296 -6.02995e-297 0)
(-1.25072e-296 -5.3904e-297 0)
(-1.456e-296 -4.50831e-297 0)
(-5.9651e-297 -1.92681e-297 0)
(-2.63222e-297 -1.03568e-297 0)
(-1.59804e-297 -6.47499e-298 0)
(-1.07643e-297 -4.27594e-298 0)
(-7.56196e-298 -2.87398e-298 0)
(-5.40204e-298 -1.9367e-298 0)
(-3.87379e-298 -1.29729e-298 0)
(-2.76211e-298 -8.56872e-299 0)
(-1.93766e-298 -5.51169e-299 0)
(-1.31525e-298 -3.362e-299 0)
(-2.7708e-298 -8.30415e-298 0)
(-6.74366e-298 -2.38393e-297 0)
(-1.16402e-297 -3.82519e-297 0)
(-1.79296e-297 -5.08577e-297 0)
(-2.58894e-297 -6.13429e-297 0)
(-3.56241e-297 -6.96316e-297 0)
(-4.7171e-297 -7.57508e-297 0)
(-6.05532e-297 -7.97273e-297 0)
(-7.57995e-297 -8.15381e-297 0)
(-9.29502e-297 -8.10849e-297 0)
(-1.12051e-296 -7.81991e-297 0)
(-1.33185e-296 -7.26301e-297 0)
(-1.55886e-296 -6.46945e-297 0)
(-6.34616e-297 -2.75041e-297 0)
(-2.765e-297 -1.35958e-297 0)
(-1.66807e-297 -8.1e-298 0)
(-1.11835e-297 -5.20425e-298 0)
(-7.82734e-298 -3.44024e-298 0)
(-5.57422e-298 -2.2951e-298 0)
(-3.98666e-298 -1.52882e-298 0)
(-2.8362e-298 -1.00766e-298 0)
(-1.98589e-298 -6.48795e-299 0)
(-1.3459e-298 -3.97524e-299 0)
(-1.52624e-298 -1.08415e-297 0)
(-3.08646e-298 -3.01883e-297 0)
(-6.81644e-298 -4.78661e-297 0)
(-1.29493e-297 -6.30162e-297 0)
(-2.14649e-297 -7.54265e-297 0)
(-3.22148e-297 -8.52e-297 0)
(-4.50721e-297 -9.2523e-297 0)
(-5.99679e-297 -9.75434e-297 0)
(-7.68888e-297 -1.00313e-296 0)
(-9.58559e-297 -1.00789e-296 0)
(-1.16908e-296 -9.88573e-297 0)
(-1.40135e-296 -9.43653e-297 0)
(-1.65015e-296 -8.77122e-297 0)
(-6.6e-297 -3.67083e-297 0)
(-2.84246e-297 -1.68165e-297 0)
(-1.70816e-297 -9.60469e-298 0)
(-1.14074e-297 -6.03825e-298 0)
(-7.95712e-298 -3.94547e-298 0)
(-5.65023e-298 -2.61636e-298 0)
(-4.0312e-298 -1.73848e-298 0)
(-2.8621e-298 -1.14597e-298 0)
(-2.00068e-298 -7.39625e-299 0)
(-1.35403e-298 -4.55489e-299 0)
(1.83016e-298 -1.45861e-297 0)
(4.36763e-298 -3.86586e-297 0)
(1.98165e-298 -6.0065e-297 0)
(-4.43374e-298 -7.78727e-297 0)
(-1.40698e-297 -9.21715e-297 0)
(-2.63306e-297 -1.0336e-296 0)
(-4.08745e-297 -1.11845e-296 0)
(-5.7554e-297 -1.17912e-296 0)
(-7.63371e-297 -1.21689e-296 0)
(-9.72431e-297 -1.23173e-296 0)
(-1.20297e-296 -1.22298e-296 0)
(-1.45569e-296 -1.19038e-296 0)
(-1.72566e-296 -1.1397e-296 0)
(-6.55185e-297 -4.56024e-297 0)
(-2.81783e-297 -1.92852e-297 0)
(-1.69706e-297 -1.06786e-297 0)
(-1.13175e-297 -6.63825e-298 0)
(-7.88121e-298 -4.3211e-298 0)
(-5.58808e-298 -2.86379e-298 0)
(-3.98209e-298 -1.90523e-298 0)
(-2.82448e-298 -1.25917e-298 0)
(-1.97277e-298 -8.15935e-299 0)
(-1.3341e-298 -5.05399e-299 0)
(1.22436e-297 -1.932e-297 0)
(1.96329e-297 -5.01964e-297 0)
(1.71694e-297 -7.56032e-297 0)
(8.90047e-298 -9.5935e-297 0)
(-3.05903e-298 -1.11912e-296 0)
(-1.76331e-297 -1.24344e-296 0)
(-3.43616e-297 -1.33891e-296 0)
(-5.31285e-297 -1.40981e-296 0)
(-7.3976e-297 -1.45797e-296 0)
(-9.69677e-297 -1.48341e-296 0)
(-1.221e-296 -1.48536e-296 0)
(-1.49292e-296 -1.46459e-296 0)
(-1.78085e-296 -1.42929e-296 0)
(-5.74549e-297 -5.03178e-297 0)
(-2.63101e-297 -1.97385e-297 0)
(-1.60323e-297 -1.09624e-297 0)
(-1.07606e-297 -6.87634e-298 0)
(-7.52161e-298 -4.50841e-298 0)
(-5.34698e-298 -3.00537e-298 0)
(-3.81739e-298 -2.00996e-298 0)
(-2.71129e-298 -1.33535e-298 0)
(-1.89541e-298 -8.7017e-299 0)
(-1.28236e-298 -5.42519e-299 0)
(4.6942e-297 -2.69626e-297 0)
(4.76272e-297 -6.449e-297 0)
(3.98622e-297 -9.37111e-297 0)
(2.69089e-297 -1.16307e-296 0)
(1.10734e-297 -1.33769e-296 0)
(-6.6136e-298 -1.47328e-296 0)
(-2.58985e-297 -1.57888e-296 0)
(-4.69188e-297 -1.65996e-296 0)
(-6.99438e-297 -1.71882e-296 0)
(-9.51807e-297 -1.75523e-296 0)
(-1.22593e-296 -1.76803e-296 0)
(-1.51651e-296 -1.75637e-296 0)
(-8.02554e-297 -7.76002e-297 0)
(-3.57731e-297 -3.28829e-297 0)
(-2.11711e-297 -1.71094e-297 0)
(-1.38826e-297 -1.03633e-297 0)
(-9.61848e-298 -6.71589e-298 0)
(-6.83721e-298 -4.47995e-298 0)
(-4.9113e-298 -3.02131e-298 0)
(-3.53092e-298 -2.039e-298 0)
(-2.52006e-298 -1.36526e-298 0)
(-1.76771e-298 -8.96149e-299 0)
(-1.19855e-298 -5.62814e-299 0)
(3.28135e-297 -2.02306e-297 0)
(2.53381e-297 -3.81157e-297 0)
(1.8705e-297 -4.96452e-297 0)
(1.12721e-297 -5.74137e-297 0)
(3.67858e-298 -6.29517e-297 0)
(-4.13059e-298 -6.69458e-297 0)
(-1.2335e-297 -6.97664e-297 0)
(-2.11286e-297 -7.15765e-297 0)
(-3.05801e-297 -7.23129e-297 0)
(-4.0384e-297 -7.15193e-297 0)
(-4.924e-297 -6.77149e-297 0)
(-5.29341e-297 -5.69989e-297 0)
(-3.39204e-297 -3.51031e-297 0)
(-2.22955e-297 -2.187e-297 0)
(-1.55804e-297 -1.38991e-297 0)
(-1.1139e-297 -9.1749e-298 0)
(-8.08398e-298 -6.20183e-298 0)
(-5.90723e-298 -4.2405e-298 0)
(-4.31943e-298 -2.90818e-298 0)
(-3.14328e-298 -1.98764e-298 0)
(-2.26262e-298 -1.34465e-298 0)
(-1.59672e-298 -8.90507e-299 0)
(-1.08692e-298 -5.6382e-299 0)
(7.11118e-298 -1.69363e-297 0)
(3.73769e-298 -2.23407e-297 0)
(2.02654e-298 -2.49024e-297 0)
(9.05802e-301 -2.71663e-297 0)
(-2.32817e-298 -2.90283e-297 0)
(-4.99451e-298 -3.04112e-297 0)
(-7.98987e-298 -3.13126e-297 0)
(-1.12817e-297 -3.17426e-297 0)
(-1.47353e-297 -3.16767e-297 0)
(-1.80007e-297 -3.09977e-297 0)
(-2.03499e-297 -2.94251e-297 0)
(-2.0531e-297 -2.66002e-297 0)
(-1.75917e-297 -2.10866e-297 0)
(-1.41587e-297 -1.54351e-297 0)
(-1.1084e-297 -1.09636e-297 0)
(-8.5186e-298 -7.74055e-298 0)
(-6.47643e-298 -5.4562e-298 0)
(-4.88209e-298 -3.83659e-298 0)
(-3.6478e-298 -2.68458e-298 0)
(-2.69587e-298 -1.86322e-298 0)
(-1.96249e-298 -1.27612e-298 0)
(-1.3962e-298 -8.53845e-299 0)
(-9.55663e-299 -5.45359e-299 0)
(-1.82056e-298 -1.08105e-297 0)
(-1.83844e-298 -1.40533e-297 0)
(-1.89832e-298 -1.55321e-297 0)
(-2.37644e-298 -1.67729e-297 0)
(-3.21524e-298 -1.77901e-297 0)
(-4.35156e-298 -1.85399e-297 0)
(-5.72966e-298 -1.90094e-297 0)
(-7.27659e-298 -1.92022e-297 0)
(-8.86844e-298 -1.91145e-297 0)
(-1.02965e-297 -1.87065e-297 0)
(-1.12545e-297 -1.78689e-297 0)
(-1.13963e-297 -1.63931e-297 0)
(-1.06568e-297 -1.39621e-297 0)
(-9.34887e-298 -1.11167e-297 0)
(-7.82975e-298 -8.4759e-298 0)
(-6.34097e-298 -6.30445e-298 0)
(-5.01419e-298 -4.61509e-298 0)
(-3.89251e-298 -3.33697e-298 0)
(-2.97331e-298 -2.38518e-298 0)
(-2.23438e-298 -1.68339e-298 0)
(-1.64721e-298 -1.16868e-298 0)
(-1.18293e-298 -7.90709e-299 0)
(-8.14939e-299 -5.09642e-299 0)
(-2.80573e-298 -6.28613e-298 0)
(-2.77759e-298 -8.99496e-298 0)
(-2.63474e-298 -1.03207e-297 0)
(-2.71064e-298 -1.126e-297 0)
(-3.03248e-298 -1.19645e-297 0)
(-3.56546e-298 -1.24619e-297 0)
(-4.26281e-298 -1.27628e-297 0)
(-5.06347e-298 -1.28766e-297 0)
(-5.8817e-298 -1.28052e-297 0)
(-6.60048e-298 -1.25286e-297 0)
(-7.08075e-298 -1.19901e-297 0)
(-7.20078e-298 -1.10924e-297 0)
(-6.93349e-298 -9.74547e-298 0)
(-6.33136e-298 -8.11525e-298 0)
(-5.52218e-298 -6.47481e-298 0)
(-4.64028e-298 -5.00795e-298 0)
(-3.78587e-298 -3.78462e-298 0)
(-3.01514e-298 -2.80746e-298 0)
(-2.35106e-298 -2.04863e-298 0)
(-1.79599e-298 -1.47047e-298 0)
(-1.3412e-298 -1.03515e-298 0)
(-9.72697e-299 -7.08389e-299 0)
(-6.7472e-299 -4.60721e-299 0)
(-2.32264e-298 -3.65771e-298 0)
(-2.48173e-298 -5.75566e-298 0)
(-2.42203e-298 -6.92134e-298 0)
(-2.42501e-298 -7.71588e-298 0)
(-2.55863e-298 -8.27946e-298 0)
(-2.82049e-298 -8.66345e-298 0)
(-3.1854e-298 -8.89286e-298 0)
(-3.61387e-298 -8.98255e-298 0)
(-4.05275e-298 -8.93767e-298 0)
(-4.43687e-298 -8.7481e-298 0)
(-4.69733e-298 -8.38339e-298 0)
(-4.77846e-298 -7.79821e-298 0)
(-4.65773e-298 -6.96699e-298 0)
(-4.34431e-298 -5.95884e-298 0)
(-3.887e-298 -4.90103e-298 0)
(-3.35267e-298 -3.90301e-298 0)
(-2.80264e-298 -3.02735e-298 0)
(-2.28043e-298 -2.29662e-298 0)
(-1.81097e-298 -1.7081e-298 0)
(-1.40465e-298 -1.24596e-298 0)
(-1.06203e-298 -8.89039e-299 0)
(-7.77715e-299 -6.15202e-299 0)
(-5.4314e-299 -4.03562e-299 0)
(-1.69146e-298 -2.15385e-298 0)
(-1.91957e-298 -3.68125e-298 0)
(-1.94168e-298 -4.63133e-298 0)
(-1.95503e-298 -5.29615e-298 0)
(-2.02444e-298 -5.7652e-298 0)
(-2.1619e-298 -6.08283e-298 0)
(-2.35817e-298 -6.27497e-298 0)
(-2.5916e-298 -6.3574e-298 0)
(-2.83167e-298 -6.33687e-298 0)
(-3.04227e-298 -6.20933e-298 0)
(-3.18681e-298 -5.95964e-298 0)
(-3.23543e-298 -5.56793e-298 0)
(-3.17163e-298 -5.02878e-298 0)
(-2.99496e-298 -4.37715e-298 0)