/*--------------------------------*- C++ -*----------------------------------*\
| =========                 |                                                 |
| \\      /  F ield         | OpenFOAM: The Open Source CFD Toolbox           |
|  \\    /   O peration     | Version:  2406                                  |
|   \\  /    A nd           | Website:  www.openfoam.com                      |
|    \\/     M anipulation  |                                                 |
\*---------------------------------------------------------------------------*/
FoamFile
{
    version     2.0;
    format      ascii;
    arch        "LSB;label=32;scalar=64";
    class       volScalarField;
    location    "0.7";
    object      epsilon;
}
// * * * * * * * * * * * * * * * * * * * * * * * * * * * * * * * * * * * * * //

dimensions      [0 2 -3 0 0 0 0];

internalField   nonuniform List<scalar> 
2268
(
3.11056
4.22461
4.22461
4.22461
4.22461
4.22461
4.22461
4.22461
4.22461
4.22461
4.22461
4.22461
4.22461
0.0843985
0.0245976
0.0376926
0.0467609
0.0517663
0.0529297
0.049879
0.0417364
0.0272915
0.00634234
1.99652
3.53904
3.87395
3.99094
4.04704
4.07915
4.09939
4.11284
4.12192
4.12796
4.13166
4.13343
4.13343
0.0980193
0.0232003
0.0254925
0.0291425
0.0313198
0.0317362
0.0301707
0.0262694
0.0196939
0.0114575
1.99652
3.12319
3.57196
3.77087
3.87483
3.93633
3.9757
4.00204
4.01992
4.03183
4.03915
4.04265
4.04265
0.106262
0.0274404
0.0261669
0.0282867
0.0297623
0.0300112
0.0288126
0.0259676
0.0214648
0.018591
1.99652
2.85875
3.32579
3.572
3.71211
3.79847
3.85492
3.89313
3.91926
3.93673
3.9475
3.95264
3.95264
0.114962
0.0317485
0.0283414
0.0295533
0.0306372
0.0308214
0.0298821
0.0277297
0.0245795
0.0254303
1.99652
2.68257
3.12893
3.39682
3.5614
3.66728
3.7382
3.78692
3.82053
3.84313
3.8571
3.86379
3.86379
0.122864
0.0357069
0.0307704
0.0313074
0.0321035
0.0322668
0.0315865
0.0300967
0.0282852
0.032579
1.99652
2.55993
2.97193
3.24473
3.4238
3.5439
3.62645
3.68409
3.72426
3.75145
3.76833
3.77643
3.77643
0.130043
0.0392915
0.0331131
0.0330879
0.0336439
0.0338092
0.0334031
0.0326309
0.0325051
0.0415332
1.99652
2.47111
2.84601
3.11357
3.29937
3.4289
3.52027
3.58515
3.63089
3.66207
3.68152
3.69088
3.69088
0.136671
0.0425257
0.0352207
0.0346834
0.0350207
0.0351956
0.0350635
0.0350477
0.0372169
0.0570192
1.99652
2.40455
2.74408
3.00066
3.1875
3.32243
3.42
3.49049
3.54077
3.57531
3.59697
3.60741
3.60741
0.142872
0.0454088
0.0369923
0.0359588
0.0360853
0.0362645
0.0363712
0.0370075
0.0417508
0.0980043
0.00735897
0.0342817
0.0540569
0.0672671
0.0758938
0.0814384
0.0848332
0.0866194
0.0870952
0.0864016
0.0845691
0.0815445
0.0772082
0.0713829
0.0638311
0.0542285
0.0420892
0.026608
0.00710693
0.012349
0.0232351
0.0320087
0.038062
0.0420759
0.0446715
0.046266
0.0471154
0.0473659
0.0470876
0.0462935
0.0449517
0.0429914
0.0403067
0.0367553
0.0321501
0.0262533
0.0188456
0.0106714
0.0202501
0.0245942
0.0305494
0.0348986
0.0378688
0.0398198
0.0410278
0.0416761
0.0418746
0.0416764
0.0410894
0.0400841
0.0385972
0.0365339
0.0337674
0.0301431
0.0255091
0.0199274
0.0162168
0.0280952
0.0277442
0.0318904
0.0352143
0.0375928
0.0391955
0.0402004
0.0407425
0.0409077
0.0407379
0.0402373
0.0393762
0.0380942
0.0363006
0.0338768
0.0306878
0.0266411
0.0219948
0.0212097
0.0364905
0.0316073
0.0340114
0.0364374
0.0383294
0.0396573
0.0405058
0.0409653
0.0411001
0.0409418
0.0404903
0.0397156
0.038559
0.0369334
0.0347273
0.0318229
0.0281745
0.0241882
0.0256808
0.0471057
0.0359543
0.0363083
0.0378437
0.0392844
0.040364
0.0410727
0.0414578
0.0415622
0.0414073
0.040989
0.0402767
0.0392134
0.0377163
0.0356822
0.033011
0.0296982
0.0262739
0.0297647
0.0650841
0.0406052
0.0384276
0.0390984
0.0401207
0.0409702
0.0415489
0.0418638
0.0419378
0.0417822
0.0413888
0.0407265
0.0397409
0.0383545
0.0364743
0.0340201
0.0310297
0.0281535
0.0335785
0.109343
0.0447399
0.0400307
0.0399955
0.0406562
0.041298
0.0417566
0.0420055
0.0420494
0.0418904
0.0415164
0.0408963
0.0399786
0.038693
0.0369587
0.034719
0.0320583
0.0297617
0.0372012
1.99652
2.32441
2.61366
2.8485
3.03072
3.169
3.27269
3.34955
3.40536
3.44417
3.46869
3.48057
3.48057
0.15192
0.0492888
0.0391158
0.0373291
0.0371393
0.0373075
0.0376806
0.038766
0.0424619
0.0561117
1.99652
2.25444
2.49121
2.69466
2.86184
2.99522
3.0994
3.17909
3.23831
3.2802
3.30696
3.32
3.32
0.162193
0.0538297
0.0417968
0.0392223
0.0386829
0.0387683
0.039212
0.0402389
0.0425684
0.047608
1.99652
2.20583
2.40242
2.57749
2.7271
2.85096
2.95086
3.02929
3.0888
3.13152
3.15909
3.17261
3.17261
0.170772
0.0577161
0.0442201
0.0410339
0.0402028
0.0401657
0.0405491
0.0413824
0.0429099
0.0454389
1.99652
2.17008
2.33538
2.48605
2.61836
2.73093
2.82399
2.89863
2.95624
2.99814
3.02543
3.03889
3.03888
0.178029
0.0610224
0.0463085
0.0426245
0.0415438
0.0413735
0.0416586
0.0423215
0.0434379
0.0451208
1.99652
2.14268
2.28313
2.41317
2.52957
2.63061
2.71575
2.78519
2.83954
2.87952
2.90576
2.91875
2.91875
0.184209
0.063842
0.0480804
0.0439755
0.0426784
0.0423804
0.0425667
0.0431038
0.0440067
0.0453563
1.99652
2.12103
2.24141
2.35407
2.45629
2.54636
2.62336
2.687
2.73738
2.77477
2.79947
2.81175
2.81175
0.189477
0.0662488
0.0495732
0.0451053
0.0436197
0.043206
0.0433042
0.0437492
0.0445305
0.0457206
1.99652
2.10357
2.2075
2.3055
2.39531
2.47531
2.54447
2.60222
2.64835
2.68283
2.70574
2.71717
2.71717
0.193958
0.0683011
0.0508263
0.0460431
0.0443937
0.0438781
0.0439009
0.0442759
0.0449789
0.0460757
1.99652
2.08927
2.17958
2.2652
2.34424
2.41522
2.4771
2.52919
2.57109
2.6026
2.62362
2.63413
2.63413
0.197761
0.0700483
0.0518766
0.04682
0.0450288
0.0444251
0.044384
0.044704
0.0453512
0.0463847
1.99652
2.07745
2.1564
2.23156
2.3013
2.36433
2.41962
2.46646
2.50434
2.53295
2.55211
2.56171
2.56171
0.200983
0.0715357
0.0527588
0.0474656
0.0455521
0.0448727
0.0447775
0.0450532
0.0456582
0.0466451
1.99652
2.06761
2.13707
2.20338
2.26516
2.32125
2.37069
2.41278
2.44696
2.47287
2.49026
2.499
2.499
0.203715
0.0728076
0.0535061
0.0480079
0.0459885
0.0452435
0.0451022
0.0453413
0.045913
0.0468643
1.99652
2.05941
2.12093
2.17978
2.23478
2.28488
2.32921
2.36707
2.39793
2.42139
2.43717
2.44511
2.44511
0.206048
0.07391
0.0541521
0.0484742
0.0463608
0.0455574
0.0453754
0.045583
0.0461274
0.0470508
1.99652
2.05259
2.10749
2.16009
2.20935
2.25434
2.29426
2.32845
2.35639
2.37768
2.39202
2.39923
2.39923
0.208075
0.0748941
0.0547332
0.0488921
0.046691
0.0458319
0.0456112
0.0457901
0.0463108
0.0472112
1.99652
2.04695
2.09637
2.14377
2.18823
2.22891
2.2651
2.29615
2.32158
2.34098
2.35406
2.36066
2.36065
0.209904
0.0758224
0.0552914
0.0492913
0.047
0.0460825
0.0458217
0.0459717
0.0464701
0.0473505
1.99652
2.04235
2.08728
2.13041
2.17092
2.20805
2.24112
2.26954
2.29285
2.31065
2.32268
2.32874
2.32874
0.211674
0.0767794
0.0558786
0.0497032
0.0473075
0.046322
0.0460156
0.0461345
0.0466103
0.0474721
1.99652
2.03867
2.08001
2.11972
2.15704
2.19129
2.22182
2.24811
2.26968
2.28618
2.29733
2.30295
2.30295
0.213603
0.0778893
0.056558
0.0501586
0.0476281
0.046558
0.0461979
0.0462821
0.0467345
0.0475784
1.99652
2.03582
2.07437
2.11142
2.14628
2.17828
2.20683
2.23143
2.25164
2.26711
2.27756
2.28284
2.28284
0.216079
0.0793379
0.0573933
0.0506726
0.047962
0.0467879
0.0463668
0.0464143
0.0468435
0.0476706
1.99652
2.03374
2.07025
2.10536
2.13839
2.16874
2.19584
2.2192
2.2384
2.2531
2.26304
2.26806
2.26806
0.219901
0.081349
0.0583869
0.0512072
0.0482773
0.0469924
0.0465123
0.0465268
0.0469359
0.0477488
1.99652
2.03238
2.06756
2.10138
2.13323
2.16249
2.18863
2.21117
2.22971
2.2439
2.2535
2.25835
2.25835
0.226498
0.083758
0.0592575
0.0515931
0.0484886
0.0471307
0.0466158
0.0466116
0.0470091
0.0478128
1.99652
2.0317
2.06622
2.09942
2.13067
2.1594
2.18506
2.2072
2.2254
2.23934
2.24878
2.25354
2.25354
0.229781
0.0834294
0.0589226
0.0514572
0.0484609
0.0471516
0.0466573
0.0466612
0.0470608
0.0478627
1.99652
2.0317
2.06622
2.09942
2.13067
2.1594
2.18506
2.2072
2.2254
2.23934
2.24878
2.25354
0.326634
0.10812
0.0681637
0.0555726
0.0504523
0.0481127
0.0470324
0.04663
0.0466742
0.0470917
0.0478999
0.160504
0.173904
0.183899
0.191551
0.197305
0.201733
0.205313
0.208506
0.211888
0.216416
0.22366
0.227634
0.10761
0.0720575
0.05856
0.0523372
0.0492112
0.0476024
0.0468212
0.0465518
0.0466587
0.0471064
0.0479277
0.0346432
0.043445
0.0523553
0.0589758
0.0639321
0.0677448
0.0708082
0.0734631
0.0760543
0.0789253
0.0819981
0.0822136
0.067606
0.0583614
0.0530245
0.0499106
0.0480987
0.0470823
0.0465817
0.0464511
0.0466288
0.0471126
0.0479509
0.0359718
0.0325783
0.0372911
0.0417358
0.0453872
0.0483252
0.0507259
0.052775
0.0546396
0.0564039
0.0578508
0.0579591
0.0549995
0.0520329
0.0497839
0.0482314
0.047227
0.046635
0.0463613
0.0463538
0.046599
0.0471191
0.0479751
0.0437305
0.0329344
0.0350656
0.0380827
0.0408497
0.0431901
0.0451378
0.0467801
0.0481979
0.0494122
0.0503049
0.0505503
0.0498447
0.0488235
0.0478694
0.047119
0.0465971
0.0462916
0.0461868
0.0462786
0.0465815
0.047134
0.048006
0.0501979
0.0347905
0.0353605
0.0374571
0.0396167
0.0415293
0.0431476
0.044502
0.0456329
0.0465527
0.047217
0.0475285
0.0474373
0.047119
0.0467431
0.0464114
0.0461743
0.0460555
0.0460704
0.0462373
0.046586
0.0471648
0.0480496
0.055292
0.0366493
0.0362187
0.0377094
0.039447
0.0410483
0.042422
0.0435671
0.0445059
0.0452526
0.0458003
0.0461287
0.0462409
0.0462042
0.046099
0.0459895
0.0459195
0.04592
0.0460166
0.0462375
0.0466203
0.0472188
0.0481122
0.0592986
0.0382318
0.0371244
0.0382096
0.0396551
0.0410329
0.0422271
0.0432207
0.0440277
0.0446648
0.0451423
0.0454663
0.0456525
0.0457369
0.0457636
0.0457737
0.0458018
0.0458771
0.0460279
0.0462861
0.0466926
0.0473041
0.0482017
0.0624711
0.0395244
0.037941
0.0387522
0.0399984
0.0412196
0.0422859
0.043172
0.043888
0.0444527
0.0448835
0.0451963
0.0454097
0.0455484
0.0456412
0.0457167
0.045802
0.0459235
0.046109
0.0463914
0.046813
0.0474316
0.0483287
0.0650384
0.0405856
0.0386573
0.0392834
0.0403968
0.0415126
0.0424914
0.0433035
0.0439575
0.0444733
0.0448719
0.0451727
0.0453947
0.0455581
0.0456844
0.0457956
0.0459139
0.046063
0.0462696
0.0465664
0.0469961
0.0476165
0.0485085
0.0672272
0.0415007
0.0393132
0.0398151
0.0408439
0.0418925
0.0428144
0.0435775
0.04419
0.0446729
0.0450488
0.0453387
0.0455615
0.0457354
0.0458783
0.0460084
0.0461449
0.0463095
0.0465277
0.0468316
0.0472635
0.0478806
0.0487626
0.0692852
0.0423757
0.0399795
0.040398
0.0413756
0.0423841
0.0432709
0.0440023
0.044587
0.045047
0.0454061
0.0456861
0.0459061
0.046083
0.0462329
0.0463718
0.0465173
0.0466892
0.0469122
0.0472175
0.0476467
0.0482558
0.0491223
0.0715112
0.0433468
0.0407594
0.0411176
0.0420642
0.0430483
0.0439118
0.0446207
0.0451843
0.045626
0.0459706
0.0462405
0.0464549
0.04663
0.0467809
0.0469222
0.0470703
0.0472439
0.0474666
0.0477688
0.0481907
0.0487868
0.0496315
0.0742991
0.0446022
0.0418033
0.0421039
0.0430224
0.0439829
0.0448224
0.0455074
0.0460487
0.0464707
0.046799
0.0470564
0.0472618
0.047431
0.0475782
0.0477173
0.0478634
0.0480344
0.0482527
0.0485477
0.0489579
0.0495353
0.0503508
0.0782024
0.0464168
0.0433334
0.0435472
0.0444135
0.0453281
0.0461246
0.0467706
0.0472781
0.0476718
0.0479773
0.0482168
0.0484084
0.0485673
0.0487067
0.0488395
0.0489798
0.0491445
0.0493549
0.0496387
0.0500325
0.050585
0.0513622
0.0840292
0.0492042
0.0456773
0.045717
0.0464598
0.0472697
0.0479778
0.0485516
0.0490018
0.0493509
0.0496221
0.0498352
0.0500067
0.0501501
0.0502772
0.0503999
0.050531
0.0506861
0.050885
0.0511535
0.0515255
0.052046
0.0527747
0.0929847
0.0535917
0.0493067
0.0489754
0.0494423
0.0500342
0.0505742
0.0510222
0.0513797
0.0516609
0.0518822
0.0520583
0.052202
0.0523241
0.0524345
0.0525432
0.0526616
0.0528038
0.0529876
0.0532365
0.053581
0.0540614
0.0547304
0.106929
0.0605406
0.0548772
0.05377
0.0536789
0.0538682
0.0541252
0.0543772
0.0545997
0.054787
0.0549418
0.0550701
0.0551784
0.0552738
0.0553631
0.0554543
0.0555568
0.0556828
0.0558478
0.0560723
0.0563831
0.0568148
0.057412
0.128978
0.0715742
0.0632473
0.0605757
0.0594636
0.0589976
0.0588389
0.058826
0.0588765
0.0589495
0.0590259
0.0590988
0.0591667
0.0592314
0.0592965
0.0593674
0.0594512
0.0595578
0.0597001
0.0598954
0.0601658
0.0605398
0.0610531
0.16523
0.0892247
0.0753805
0.0697129
0.0669432
0.0655664
0.0648975
0.0645878
0.064457
0.0644134
0.0644114
0.0644288
0.0644561
0.0644897
0.0645297
0.0645789
0.064642
0.0647265
0.0648423
0.0650032
0.0652264
0.0655337
0.0659516
0.231261
0.117548
0.0916701
0.0808746
0.0759165
0.0735762
0.0724526
0.0719063
0.0716385
0.0715076
0.0714455
0.0714192
0.071413
0.0714198
0.0714371
0.0714654
0.0715072
0.0715675
0.0716535
0.0717747
0.0719435
0.0721752
0.0724871
0.393299
0.159171
0.108961
0.0921188
0.0856229
0.0828988
0.0816782
0.0810987
0.0808087
0.0806568
0.0805744
0.080529
0.0805052
0.0804954
0.0804963
0.0805071
0.0805289
0.0805642
0.0806172
0.0806936
0.0808009
0.0809479
0.0811441
1.01116
0.176444
0.111831
0.0988977
0.0949821
0.0935417
0.0929362
0.0926527
0.0925074
0.092427
0.0923797
0.0923507
0.0923328
0.0923223
0.0923175
0.0923177
0.0923228
0.0923337
0.0923516
0.0923785
0.0924169
0.0924697
0.0925405
0.124197
0.0992712
0.101553
0.133555
0.0546644
0.0557631
0.0563657
0.0564797
0.0479212
0.0490228
0.0492917
0.0488013
0.0467576
0.0475863
0.0477503
0.0473484
0.0467236
0.0474249
0.0475381
0.0471662
0.0469605
0.0475923
0.0476736
0.0473071
0.0472364
0.0478221
0.0478811
0.0475144
0.0474888
0.0480409
0.0480834
0.0477157
0.0477068
0.0482335
0.0482635
0.0478946
0.0478937
0.048401
0.0484214
0.048051
0.0480553
0.0485477
0.0485603
0.0481882
0.0481961
0.0486768
0.0486829
0.0483088
0.0483193
0.0487905
0.0487911
0.0484148
0.048427
0.0488902
0.0488859
0.0485072
0.0485209
0.0489769
0.0489683
0.0485874
0.0486018
0.0490517
0.0490392
0.0486563
0.0486705
0.0491151
0.0490996
0.0487151
0.0487274
0.0491681
0.0491506
0.0487652
0.0487733
0.0492117
0.0491934
0.048808
0.0488098
0.0492476
0.0492297
0.0488453
0.0488398
0.0492782
0.0492619
0.0488792
0.0488668
0.0493068
0.0492927
0.0489123
0.0488952
0.049337
0.0493254
0.0489475
0.0489296
0.0493729
0.0493635
0.0489881
0.0489751
0.049419
0.0494114
0.0490384
0.0490373
0.0494808
0.0494744
0.0491034
0.0491239
0.0495655
0.0495595
0.0491906
0.0492448
0.049683
0.0496769
0.0493102
0.0494149
0.0498478
0.049841
0.0494772
0.0496551
0.0500806
0.0500728
0.0497129
0.0499958
0.0504113
0.0504023
0.050048
0.0504796
0.050882
0.0508716
0.0505254
0.0511657
0.0515513
0.0515397
0.0512047
0.0521348
0.0524992
0.0524865
0.0521666
0.0534944
0.0538327
0.0538192
0.0535191
0.0553856
0.0556925
0.0556787
0.0554033
0.057991
0.058261
0.0582474
0.0580022
0.0615446
0.0617727
0.06176
0.0615501
0.0663453
0.0665272
0.0665159
0.066346
0.0727745
0.0729068
0.0728977
0.0727719
0.0813195
0.0813997
0.0813936
0.0813152
0.0926015
0.0926283
0.0926257
0.0925971
0.0595598
0.0447975
0.0412507
0.0406746
0.0408972
0.0412595
0.0415499
0.0417039
0.0417026
0.0415354
0.0411849
0.0406206
0.0397971
0.0386567
0.0371418
0.0352367
0.033108
0.0317927
0.042647
0.0493737
0.0441789
0.0420974
0.0414703
0.0414238
0.0415538
0.0416839
0.0417397
0.0416879
0.0415078
0.041177
0.0406655
0.0399335
0.0389357
0.0376374
0.0360642
0.0344659
0.0341329
0.0485249
0.0464838
0.0440162
0.0427246
0.0421804
0.0420201
0.0420144
0.0420368
0.0420211
0.0419307
0.04174
0.0414242
0.0409534
0.0402915
0.0394014
0.0382634
0.0369297
0.0357046
0.0360569
0.0530585
0.0457917
0.0441732
0.043239
0.0427612
0.0425497
0.042465
0.0424174
0.042352
0.0422337
0.0420356
0.0417319
0.041293
0.0406853
0.0398767
0.0388567
0.0376942
0.0367302
0.0375667
0.0565357
0.045796
0.0444611
0.0436747
0.0432298
0.0429908
0.0428591
0.0427668
0.042668
0.0425305
0.0423279
0.0420341
0.0416198
0.0410528
0.0403042
0.0393688
0.0383262
0.037543
0.0387241
0.0591863
0.0460021
0.0447695
0.0440404
0.0436065
0.0433497
0.043189
0.0430682
0.0429476
0.0427975
0.0425923
0.0423061
0.0419102
0.0413728
0.0406668
0.0397902
0.0388293
0.0381699
0.0395965
0.0611891
0.0462426
0.0450513
0.0443429
0.0439097
0.04364
0.0434607
0.0433216
0.0431867
0.0430284
0.0428217
0.0425412
0.0421581
0.0416413
0.0409642
0.0401269
0.0392202
0.0386441
0.0402448
0.0626859
0.0464654
0.0452935
0.0445915
0.0441548
0.0438753
0.0436836
0.0435324
0.0433882
0.0432243
0.0430165
0.0427396
0.0423649
0.0418614
0.0412029
0.0403904
0.0395183
0.0389971
0.0407201
0.0637907
0.0466595
0.0454977
0.0447962
0.0443547
0.0440674
0.0438668
0.0437074
0.0435567
0.0433886
0.0431796
0.0429044
0.0425345
0.0420388
0.0413912
0.0405935
0.0397423
0.0392562
0.0410638
0.0645955
0.0468262
0.0456694
0.0449659
0.0445192
0.0442254
0.044018
0.0438524
0.0436967
0.0435252
0.0433146
0.0430396
0.0426718
0.0421799
0.0415379
0.0407479
0.0399083
0.0394439
0.0413092
0.0651739
0.0469698
0.0458146
0.0451077
0.0446557
0.044356
0.044143
0.0439724
0.0438125
0.0436379
0.0434252
0.0431493
0.0427815
0.0422907
0.0416506
0.0408638
0.04003
0.0395782
0.041482
0.0655839
0.0470938
0.0459379
0.0452267
0.0447693
0.0444643
0.0442463
0.0440712
0.0439075
0.0437298
0.0435147
0.0432371
0.0428682
0.0423766
0.0417362
0.0409499
0.0401181
0.0396732
0.0416024
0.0658709
0.047201
0.0460428
0.0453268
0.0448641
0.0445539
0.0443312
0.0441521
0.0439849
0.0438041
0.0435864
0.0433065
0.0429356
0.0424423
0.0418004
0.041013
0.0401811
0.0397397
0.0416851
0.0660692
0.0472935
0.046132
0.0454109
0.0449429
0.0446278
0.0444008
0.0442178
0.0440472
0.0438635
0.0436431
0.0433607
0.0429875
0.042492
0.041848
0.0410587
0.0402258
0.0397856
0.0417414
0.0662047
0.0473728
0.0462075
0.0454814
0.0450083
0.0446885
0.0444574
0.0442708
0.044097
0.0439104
0.0436873
0.0434025
0.043027
0.0425292
0.0418829
0.0410915
0.0402571
0.039817
0.0417792
0.0662963
0.0474408
0.0462716
0.0455405
0.0450624
0.0447382
0.0445032
0.0443132
0.0441364
0.0439471
0.0437216
0.0434344
0.0430566
0.0425567
0.0419083
0.0411149
0.0402788
0.0398384
0.0418045
0.0663577
0.0474989
0.046326
0.0455902
0.0451074
0.044779
0.0445403
0.0443471
0.0441675
0.0439757
0.0437479
0.0434587
0.0430788
0.0425769
0.0419266
0.0411314
0.0402939
0.0398529
0.0418213
0.0663987
0.0475491
0.0463728
0.0456325
0.0451453
0.0448128
0.0445706
0.0443744
0.0441922
0.0439982
0.0437683
0.0434772
0.0430955
0.0425918
0.0419399
0.0411432
0.0403044
0.0398627
0.0418325
0.0664262
0.0475929
0.0464139
0.0456693
0.0451778
0.0448415
0.044596
0.044397
0.0442124
0.0440162
0.0437845
0.0434916
0.0431084
0.0426032
0.0419498
0.0411517
0.0403119
0.0398695
0.0418402
0.066445
0.0476322
0.046451
0.0457025
0.045207
0.044867
0.0446183
0.0444166
0.0442297
0.0440316
0.0437981
0.0435037
0.0431189
0.0426123
0.0419577
0.0411584
0.0403176
0.0398746
0.0418458
0.0664588
0.0476691
0.0464863
0.0457341
0.0452346
0.044891
0.0446392
0.044435
0.0442459
0.0440459
0.0438108
0.0435148
0.0431286
0.0426207
0.0419648
0.0411644
0.0403226
0.039879
0.0418505
0.0664705
0.0477058
0.0465218
0.0457662
0.0452628
0.0449157
0.0446608
0.044454
0.0442628
0.044061
0.0438242
0.0435266
0.043139
0.0426297
0.0419724
0.0411708
0.0403278
0.0398835
0.0418553
0.0664826
0.0477451
0.0465602
0.0458012
0.045294
0.0449434
0.0446856
0.0444762
0.0442828
0.044079
0.0438405
0.0435412
0.0431519
0.0426409
0.041982
0.0411789
0.0403346
0.0398894
0.0418615
0.0664981
0.04779
0.0466045
0.0458422
0.0453314
0.0449773
0.0447165
0.0445046
0.0443089
0.0441031
0.0438625
0.0435613
0.04317
0.0426568
0.0419958
0.0411906
0.0403445
0.0398981
0.0418708
0.066521
0.0478447
0.0466589
0.0458936
0.0453792
0.0450218
0.044758
0.0445434
0.0443454
0.0441372
0.0438943
0.0435906
0.0431967
0.0426808
0.0420169
0.0412088
0.0403601
0.0399118
0.0418856
0.0665572
0.0479147
0.0467292
0.0459614
0.0454436
0.045083
0.0448162
0.0445989
0.0443982
0.0441874
0.0439417
0.0436349
0.0432375
0.0427179
0.0420499
0.0412376
0.0403851
0.0399343
0.0419099
0.0666162
0.0480078
0.0468236
0.0460539
0.0455333
0.0451696
0.0448999
0.0446798
0.0444762
0.0442624
0.0440133
0.0437027
0.0433008
0.042776
0.0421023
0.0412841
0.0404259
0.0399714
0.0419504
0.0667133
0.0481349
0.046954
0.0461835
0.0456608
0.0452945
0.045022
0.044799
0.0445924
0.0443752
0.0441221
0.0438066
0.043399
0.0428673
0.0421858
0.0413592
0.0404929
0.040033
0.0420179
0.0668733
0.0483122
0.0471374
0.0463679
0.0458441
0.0454758
0.045201
0.0449753
0.0447656
0.0445446
0.0442869
0.0439658
0.043551
0.0430106
0.0423188
0.0414806
0.0406031
0.0401356
0.0421308
0.0671374
0.0485625
0.0473979
0.0466321
0.0461089
0.0457397
0.0454632
0.0452352
0.0450226
0.0447979
0.0445355
0.0442081
0.0437852
0.0432345
0.0425299
0.0416769
0.0407841
0.0403069
0.0423203
0.0675729
0.048918
0.0477696
0.0470111
0.0464909
0.0461225
0.0458454
0.0456161
0.0454013
0.0451737
0.0449071
0.044574
0.0441432
0.0435817
0.0428631
0.0419928
0.0410817
0.0405932
0.0426384
0.0682906
0.0494239
0.0482996
0.0475535
0.0470397
0.0466744
0.0463987
0.0461696
0.0459544
0.0457255
0.0454569
0.0451205
0.0446845
0.044115
0.0433846
0.0424983
0.0415689
0.0410716
0.0431734
0.0694714
0.0501418
0.0490519
0.0483247
0.0478218
0.047463
0.0471914
0.0469652
0.0467525
0.046526
0.0462598
0.0459256
0.0454914
0.0449226
0.0441905
0.0432988
0.0423615
0.0418684
0.0440724
0.0714086
0.0511549
0.0501118
0.0494119
0.0489257
0.0485778
0.0483141
0.0480948
0.047889
0.0476704
0.047414
0.0470922
0.0466737
0.0461242
0.0454144
0.0445465
0.0436344
0.0431852
0.0455773
0.0745693
0.052573
0.0515913
0.0509284
0.050466
0.0501346
0.0498838
0.0496764
0.0494835
0.0492809
0.0490451
0.0487512
0.0483707
0.0478726
0.0472308
0.0464484
0.0456396
0.0453302
0.0480749
0.0796811
0.0545386
0.0536347
0.05302
0.0525896
0.0522811
0.052049
0.0518596
0.0516871
0.0515098
0.0513083
0.0510622
0.0507504
0.0503513
0.0498507
0.0492638
0.048714
0.0487512
0.0521649
0.0878533
0.0572352
0.0564262
0.0558718
0.0554823
0.0552039
0.0549969
0.054832
0.0546873
0.0545454
0.0543921
0.0542155
0.0540069
0.0537651
0.0535056
0.0532833
0.0532664
0.0540613
0.0587636
0.100783
0.0608965
0.0601995
0.059718
0.059379
0.0591381
0.0589624
0.0588279
0.0587173
0.0586184
0.0585241
0.0584337
0.0583573
0.0583272
0.0584163
0.0587754
0.0597157
0.0620369
0.0693031
0.121248
0.0658203
0.0652519
0.0648558
0.0645767
0.0643805
0.0642415
0.0641415
0.0640681
0.0640149
0.0639821
0.0639811
0.0640443
0.0642473
0.0647515
0.0658873
0.0683197
0.0734916
0.0861512
0.154616
0.0723861
0.0719616
0.0716631
0.0714533
0.0713081
0.0712095
0.071145
0.0711073
0.0710945
0.0711127
0.0711821
0.0713525
0.0717379
0.0725946
0.0745006
0.0787828
0.0886469
0.113322
0.215448
0.0810783
0.0808118
0.080623
0.0804911
0.0804019
0.0803449
0.0803131
0.0803032
0.0803161
0.0803596
0.0804544
0.0806501
0.0810639
0.0819813
0.084137
0.0895866
0.104873
0.155693
0.380407
0.0925147
0.0924203
0.0923531
0.0923068
0.0922768
0.0922596
0.0922531
0.0922567
0.0922715
0.0923015
0.0923565
0.0924594
0.0926659
0.0931231
0.0942737
0.0977251
0.111092
0.192828
1.44601
)
;

boundaryField
{
    leftWall
    {
        type            epsilonWallFunction;
        blending        stepwise;
        value           nonuniform List<scalar> 
50
(
3.11056
1.99652
1.99652
1.99652
1.99652
1.99652
1.99652
1.99652
1.99652
1.99652
1.99652
1.99652
1.99652
1.99652
1.99652
1.99652
1.99652
1.99652
1.99652
1.99652
1.99652
1.99652
1.99652
1.99652
1.99652
1.99652
1.99652
1.99652
0.160504
0.0346432
0.0359718
0.0437305
0.0501979
0.055292
0.0592986
0.0624711
0.0650384
0.0672272
0.0692852
0.0715112
0.0742991
0.0782024
0.0840292
0.0929847
0.106929
0.128978
0.16523
0.231261
0.393299
1.01116
)
;
    }
    rightWall
    {
        type            epsilonWallFunction;
        blending        stepwise;
        value           nonuniform List<scalar> 
50
(
0.00710693
0.0106714
0.0162168
0.0212097
0.0256808
0.0297647
0.0335785
0.0372012
0.042647
0.0485249
0.0530585
0.0565357
0.0591863
0.0611891
0.0626859
0.0637907
0.0645955
0.0651739
0.0655839
0.0658709
0.0660692
0.0662047
0.0662963
0.0663577
0.0663987
0.0664262
0.066445
0.0664588
0.0664705
0.0664826
0.0664981
0.066521
0.0665572
0.0666162
0.0667133
0.0668733
0.0671374
0.0675729
0.0682906
0.0694714
0.0714086
0.0745693
0.0796811
0.0878533
0.100783
0.121248
0.154616
0.215448
0.380407
1.44601
)
;
    }
    lowerWall
    {
        type            epsilonWallFunction;
        blending        stepwise;
        value           nonuniform List<scalar> 
62
(
3.11056
4.22461
4.22461
4.22461
4.22461
4.22461
4.22461
4.22461
4.22461
4.22461
4.22461
4.22461
4.22461
0.0843985
0.0245976
0.0376926
0.0467609
0.0517663
0.0529297
0.049879
0.0417364
0.0272915
0.00634234
0.00634234
0.0114575
0.018591
0.0254303
0.032579
0.0415332
0.0570192
0.0980043
0.124197
0.0992712
0.101553
0.133555
0.00735897
0.012349
0.0202501
0.0280952
0.0364905
0.0471057
0.0650841
0.109343
0.00735897
0.0342817
0.0540569
0.0672671
0.0758938
0.0814384
0.0848332
0.0866194
0.0870952
0.0864016
0.0845691
0.0815445
0.0772082
0.0713829
0.0638311
0.0542285
0.0420892
0.026608
0.00710693
)
;
    }
    atmosphere
    {
        type            inletOutlet;
        inletValue      uniform 0.1;
        value           uniform 0.1;
    }
    defaultFaces
    {
        type            empty;
    }
}


// ************************************************************************* //
