/*--------------------------------*- C++ -*----------------------------------*\
| =========                 |                                                 |
| \\      /  F ield         | OpenFOAM: The Open Source CFD Toolbox           |
|  \\    /   O peration     | Version:  2406                                  |
|   \\  /    A nd           | Website:  www.openfoam.com                      |
|    \\/     M anipulation  |                                                 |
\*---------------------------------------------------------------------------*/
FoamFile
{
    version     2.0;
    format      ascii;
    arch        "LSB;label=32;scalar=64";
    class       volScalarField;
    location    "0.7";
    object      epsilon;
}
// * * * * * * * * * * * * * * * * * * * * * * * * * * * * * * * * * * * * * //

dimensions      [0 2 -3 0 0 0 0];

internalField   nonuniform List<scalar> 
2268
(
0.00691415
0.0290134
0.0476604
0.0627077
0.074933
0.0848768
0.0929261
0.0993734
0.104447
0.108323
0.111137
0.11298
0.113896
0.11388
0.112857
0.110666
0.10702
0.101442
0.0931599
0.0809829
0.0632446
0.0382575
0.00739921
0.0120499
0.0199709
0.0278704
0.0343978
0.0396814
0.0439325
0.0473297
0.0500152
0.0521009
0.0536739
0.0547993
0.0555214
0.0558624
0.0558203
0.0553638
0.0544241
0.0528811
0.050541
0.0471038
0.0421241
0.0350103
0.0252776
0.0145742
0.0192126
0.0207503
0.0257349
0.0301711
0.033829
0.0367787
0.0391269
0.0409712
0.0423929
0.0434564
0.0442104
0.0446879
0.0449062
0.0448652
0.0445447
0.0439007
0.0428588
0.0413055
0.0390783
0.0359605
0.0317135
0.0263691
0.0249582
0.0257449
0.0226534
0.0259313
0.0292457
0.0320744
0.0343828
0.0362259
0.0376721
0.0387836
0.0396119
0.0401965
0.0405648
0.0407314
0.0406979
0.0404513
0.0399628
0.0391859
0.0380575
0.0365037
0.0344634
0.0319628
0.0295168
0.0353373
0.0315452
0.0247382
0.0267599
0.029287
0.0315521
0.0334358
0.0349519
0.0361448
0.0370618
0.0377446
0.0382259
0.0385291
0.0386676
0.0386445
0.0384526
0.038075
0.0374877
0.0366672
0.0356124
0.0343989
0.0333271
0.0335284
0.0461993
0.0367061
0.0267679
0.0277875
0.0297013
0.0315341
0.0330974
0.0343704
0.0353777
0.0361541
0.0367329
0.0371416
0.0374003
0.0375216
0.0375103
0.0373641
0.0370765
0.0366418
0.0360701
0.0354221
0.0349012
0.0351247
0.0382083
0.0593639
0.041324
0.0286666
0.0288556
0.0302686
0.0317504
0.0330555
0.0341345
0.034995
0.0356613
0.0361596
0.0365127
0.0367384
0.0368485
0.0368493
0.0367432
0.036532
0.0362257
0.035861
0.0355484
0.0356008
0.0369754
0.0434429
0.0811454
0.045475
0.0304122
0.0298965
0.0308901
0.0320785
0.0331681
0.0340857
0.034825
0.0354009
0.0358336
0.036142
0.0363418
0.0364442
0.0364569
0.0363861
0.0362407
0.0360428
0.0358487
0.0358026
0.0362853
0.0384874
0.04825
0.138372
0.00808077
0.041753
0.0677491
0.0852363
0.0965531
0.103694
0.107943
0.110056
0.110447
0.109317
0.10672
0.102608
0.0968436
0.0892061
0.0793846
0.0669487
0.0512871
0.0315161
0.00758027
0.0141797
0.0266081
0.0368234
0.0438803
0.0485439
0.0515367
0.0533469
0.054273
0.0544846
0.054064
0.0530317
0.0513596
0.048978
0.0457769
0.0416018
0.0362467
0.029452
0.020999
0.0118836
0.0239057
0.0270356
0.0327793
0.0370492
0.0400067
0.0419697
0.0431863
0.0438233
0.0439817
0.0437114
0.0430222
0.0418907
0.0402637
0.0380592
0.0351668
0.0314529
0.0267984
0.0213359
0.0185669
0.0336862
0.0297276
0.0325597
0.0351525
0.0371322
0.0385247
0.0394184
0.0398963
0.0400161
0.0398072
0.0392727
0.0383911
0.0371182
0.0353891
0.0331216
0.0302326
0.0267059
0.0229561
0.0246885
0.0440268
0.0333218
0.0335306
0.0347733
0.0360105
0.0369817
0.0376396
0.0379992
0.0380838
0.0379067
0.0374647
0.0367375
0.0356876
0.0342631
0.0324046
0.0300697
0.0273258
0.0248229
0.0301382
0.0568128
0.0375372
0.0349609
0.0350068
0.0356281
0.0362562
0.0367219
0.0369831
0.0370345
0.0368752
0.0364968
0.0358794
0.0349911
0.0337908
0.0322383
0.0303252
0.0281877
0.0266743
0.0349897
0.0782632
0.0421765
0.0364735
0.0354811
0.0355945
0.0359381
0.0362422
0.0364186
0.0364387
0.0362897
0.0359587
0.0354259
0.0346642
0.0336417
0.0323343
0.0307624
0.0291187
0.0284227
0.0393297
0.132106
0.0462987
0.0377347
0.0359963
0.0357218
0.0358357
0.0360045
0.0361079
0.0360993
0.0359565
0.0356627
0.0351985
0.0345405
0.0336649
0.0325616
0.0312743
0.0300436
0.030039
0.0432287
0.0513759
0.0329019
0.0314337
0.0318698
0.0326682
0.033471
0.0341742
0.0347527
0.0352091
0.0355556
0.0358058
0.0359723
0.0360659
0.036096
0.0360735
0.0360161
0.0359588
0.0359778
0.0362411
0.0371372
0.0396482
0.0466629
0.0685428
0.0577667
0.0356121
0.0331721
0.0330564
0.0334702
0.0339886
0.0344778
0.0348953
0.0352322
0.0354925
0.0356848
0.0358187
0.035904
0.0359513
0.0359743
0.035995
0.0360524
0.0362193
0.0366343
0.0375619
0.0395102
0.0434372
0.0509411
0.0629028
0.0377634
0.0345724
0.0340448
0.0341737
0.0344805
0.0348092
0.035105
0.0353507
0.0355448
0.0356922
0.0358002
0.0358772
0.0359338
0.0359837
0.0360479
0.0361605
0.0363779
0.0367925
0.0375498
0.0388603
0.0409603
0.0438794
0.0670158
0.0394585
0.0356806
0.034841
0.0347568
0.034905
0.0351125
0.0353152
0.0354905
0.0356328
0.0357443
0.0358301
0.0358977
0.0359561
0.0360177
0.0360999
0.0362284
0.0364413
0.0367923
0.0373504
0.0381848
0.0393154
0.0405934
0.0702881
0.0407835
0.0365462
0.0354693
0.0352249
0.035254
0.0353697
0.0355013
0.035622
0.0357233
0.0358053
0.0358718
0.0359285
0.0359832
0.0360456
0.036129
0.036251
0.036435
0.0367088
0.0371004
0.0376235
0.0382493
0.0388659
0.0728693
0.04181
0.0372147
0.0359574
0.0355928
0.0355325
0.035579
0.0356562
0.0357344
0.0358032
0.035861
0.0359102
0.0359554
0.0360025
0.0360589
0.036134
0.0362391
0.0363872
0.0365914
0.0368602
0.0371889
0.0375475
0.0378693
0.0748851
0.0425975
0.0377255
0.0363319
0.0358773
0.0357503
0.0357447
0.0357805
0.0358258
0.0358687
0.0359065
0.0359404
0.0359739
0.0360114
0.0360583
0.0361208
0.0362056
0.0363196
0.0364678
0.0366506
0.0368596
0.0370723
0.0372511
0.0764419
0.0431954
0.0381118
0.0366159
0.0360946
0.035918
0.0358734
0.0358779
0.0358978
0.0359202
0.0359414
0.0359619
0.0359842
0.0360115
0.0360475
0.0360962
0.0361614
0.0362462
0.0363517
0.0364758
0.0366104
0.0367405
0.0368451
0.0776301
0.0436441
0.0384007
0.036829
0.0362587
0.0360456
0.0359721
0.0359529
0.0359533
0.0359595
0.0359671
0.0359761
0.0359882
0.0360055
0.0360307
0.0360662
0.036114
0.0361752
0.0362492
0.0363332
0.0364209
0.0365026
0.0365663
0.0785258
0.0439772
0.0386146
0.0369874
0.0363814
0.0361418
0.0360469
0.0360101
0.0359955
0.035989
0.0359857
0.0359849
0.0359878
0.0359961
0.0360114
0.0360352
0.0360684
0.036111
0.0361619
0.0362185
0.0362761
0.0363284
0.0363684
0.0791926
0.0442215
0.0387712
0.0371039
0.0364724
0.0362136
0.0361032
0.0360533
0.0360275
0.036011
0.0359989
0.03599
0.0359851
0.0359854
0.0359921
0.0360059
0.0360272
0.0360556
0.0360897
0.0361273
0.0361652
0.0361991
0.0362247
0.079683
0.0443986
0.0388847
0.0371889
0.0365393
0.0362669
0.0361454
0.0360859
0.0360515
0.0360275
0.0360083
0.0359928
0.0359815
0.0359751
0.0359744
0.0359801
0.0359919
0.0360094
0.0360313
0.0360557
0.0360803
0.0361023
0.0361189
0.0800391
0.0445256
0.0389662
0.0372503
0.0365881
0.0363062
0.0361767
0.0361103
0.0360697
0.0360398
0.0360152
0.0359944
0.0359777
0.0359658
0.0359592
0.0359583
0.0359627
0.035972
0.0359849
0.0360001
0.0360158
0.0360299
0.0360407
0.0802947
0.0446156
0.039024
0.0372942
0.0366234
0.036335
0.0362
0.0361286
0.0360834
0.0360492
0.0360204
0.0359955
0.0359746
0.0359582
0.0359469
0.0359407
0.0359395
0.0359425
0.035949
0.0359576
0.0359671
0.0359759
0.0359828
0.080476
0.0446787
0.0390647
0.0373255
0.0366489
0.036356
0.0362172
0.0361423
0.0360939
0.0360565
0.0360245
0.0359964
0.0359721
0.0359523
0.0359372
0.035927
0.0359215
0.03592
0.0359217
0.0359257
0.0359308
0.0359359
0.0359403
0.0806033
0.0447226
0.0390931
0.0373475
0.0366671
0.0363713
0.0362299
0.0361526
0.0361018
0.0360621
0.0360278
0.0359973
0.0359705
0.035948
0.0359301
0.0359168
0.035908
0.0359031
0.0359014
0.035902
0.0359041
0.0359068
0.0359094
0.0806916
0.0447527
0.0391127
0.037363
0.03668
0.0363823
0.0362393
0.0361604
0.036108
0.0360666
0.0360306
0.0359983
0.0359696
0.0359451
0.035925
0.0359095
0.0358983
0.0358909
0.0358867
0.0358849
0.0358849
0.0358858
0.0358873
0.0807524
0.0447732
0.0391261
0.0373737
0.0366892
0.0363902
0.0362461
0.0361662
0.0361127
0.0360702
0.0360329
0.0359993
0.0359693
0.0359433
0.0359216
0.0359044
0.0358914
0.0358822
0.0358763
0.0358728
0.0358713
0.0358711
0.0358717
0.0807938
0.0447871
0.0391353
0.0373811
0.0366956
0.0363959
0.0362512
0.0361705
0.0361163
0.036073
0.0360349
0.0360004
0.0359694
0.0359423
0.0359195
0.0359011
0.0358868
0.0358764
0.0358691
0.0358645
0.0358619
0.0358609
0.0358609
0.0808217
0.0447964
0.0391415
0.0373862
0.0367001
0.0364
0.0362548
0.0361737
0.0361191
0.0360753
0.0360366
0.0360015
0.0359698
0.0359419
0.0359183
0.035899
0.0358839
0.0358725
0.0358644
0.035859
0.0358557
0.035854
0.0358537
0.0808404
0.0448026
0.0391456
0.0373896
0.0367032
0.0364029
0.0362575
0.0361761
0.0361212
0.0360771
0.0360381
0.0360025
0.0359703
0.035942
0.0359178
0.0358979
0.0358821
0.0358701
0.0358614
0.0358554
0.0358516
0.0358496
0.035849
0.0808528
0.0448066
0.0391483
0.037392
0.0367053
0.0364049
0.0362594
0.0361779
0.0361228
0.0360785
0.0360392
0.0360034
0.0359709
0.0359422
0.0359176
0.0358973
0.0358811
0.0358687
0.0358596
0.0358532
0.0358491
0.0358468
0.035846
0.080861
0.0448093
0.0391502
0.0373935
0.0367068
0.0364063
0.0362607
0.0361792
0.036124
0.0360796
0.0360402
0.0360042
0.0359715
0.0359425
0.0359177
0.0358972
0.0358807
0.035868
0.0358586
0.0358519
0.0358476
0.0358451
0.0358442
0.0808664
0.044811
0.0391514
0.0373946
0.0367078
0.0364073
0.0362617
0.0361802
0.0361249
0.0360804
0.0360409
0.0360048
0.035972
0.0359429
0.035918
0.0358972
0.0358806
0.0358677
0.0358581
0.0358513
0.0358468
0.0358442
0.0358432
0.0808698
0.0448121
0.0391521
0.0373953
0.0367085
0.036408
0.0362624
0.0361808
0.0361256
0.0360811
0.0360415
0.0360054
0.0359725
0.0359433
0.0359183
0.0358974
0.0358806
0.0358676
0.0358579
0.035851
0.0358464
0.0358438
0.0358427
0.0808721
0.0448129
0.0391527
0.0373958
0.036709
0.0364085
0.0362629
0.0361813
0.0361261
0.0360816
0.036042
0.0360058
0.0359729
0.0359437
0.0359185
0.0358976
0.0358808
0.0358677
0.0358579
0.0358509
0.0358463
0.0358436
0.0358426
0.0808735
0.0448133
0.039153
0.0373961
0.0367093
0.0364088
0.0362632
0.0361817
0.0361264
0.0360819
0.0360424
0.0360061
0.0359732
0.035944
0.0359188
0.0358978
0.035881
0.0358678
0.035858
0.035851
0.0358463
0.0358436
0.0358425
0.0808744
0.0448136
0.0391532
0.0373963
0.0367095
0.036409
0.0362634
0.0361819
0.0361267
0.0360822
0.0360426
0.0360064
0.0359734
0.0359442
0.035919
0.035898
0.0358811
0.035868
0.0358581
0.0358511
0.0358464
0.0358437
0.0358426
0.080875
0.0448138
0.0391533
0.0373964
0.0367096
0.0364091
0.0362636
0.0361821
0.0361269
0.0360824
0.0360428
0.0360066
0.0359736
0.0359444
0.0359192
0.0358982
0.0358813
0.0358681
0.0358583
0.0358512
0.0358465
0.0358438
0.0358427
0.0808754
0.0448139
0.0391534
0.0373965
0.0367097
0.0364092
0.0362637
0.0361822
0.036127
0.0360825
0.036043
0.0360067
0.0359738
0.0359445
0.0359193
0.0358983
0.0358814
0.0358682
0.0358584
0.0358513
0.0358466
0.0358439
0.0358428
0.0808756
0.044814
0.0391535
0.0373965
0.0367098
0.0364093
0.0362638
0.0361823
0.0361271
0.0360826
0.0360431
0.0360068
0.0359739
0.0359446
0.0359195
0.0358985
0.0358815
0.0358684
0.0358585
0.0358514
0.0358467
0.035844
0.0358429
0.0808758
0.044814
0.0391535
0.0373966
0.0367098
0.0364093
0.0362638
0.0361823
0.0361271
0.0360827
0.0360431
0.0360069
0.035974
0.0359447
0.0359195
0.0358985
0.0358816
0.0358684
0.0358586
0.0358515
0.0358468
0.035844
0.0358429
0.0808759
0.0448141
0.0391535
0.0373966
0.0367098
0.0364094
0.0362639
0.0361824
0.0361272
0.0360827
0.0360432
0.036007
0.035974
0.0359448
0.0359196
0.0358986
0.0358817
0.0358685
0.0358586
0.0358516
0.0358468
0.0358441
0.035843
0.0808759
0.0448141
0.0391535
0.0373966
0.0367098
0.0364094
0.0362639
0.0361824
0.0361272
0.0360827
0.0360432
0.036007
0.0359741
0.0359448
0.0359196
0.0358986
0.0358817
0.0358685
0.0358587
0.0358516
0.0358469
0.0358441
0.035843
0.0808759
0.0448141
0.0391535
0.0373966
0.0367098
0.0364094
0.0362639
0.0361824
0.0361272
0.0360827
0.0360432
0.036007
0.0359741
0.0359448
0.0359197
0.0358987
0.0358817
0.0358686
0.0358587
0.0358516
0.0358469
0.0358441
0.0358431
0.080876
0.0448141
0.0391535
0.0373966
0.0367099
0.0364094
0.0362639
0.0361824
0.0361272
0.0360828
0.0360432
0.036007
0.0359741
0.0359449
0.0359197
0.0358987
0.0358818
0.0358686
0.0358587
0.0358516
0.0358469
0.0358442
0.0358431
0.080876
0.0448141
0.0391535
0.0373966
0.0367099
0.0364094
0.0362639
0.0361824
0.0361272
0.0360828
0.0360433
0.036007
0.0359741
0.0359449
0.0359197
0.0358987
0.0358818
0.0358686
0.0358587
0.0358517
0.0358469
0.0358442
0.0358431
0.080876
0.0448141
0.0391535
0.0373966
0.0367099
0.0364094
0.0362639
0.0361824
0.0361272
0.0360828
0.0360433
0.036007
0.0359741
0.0359449
0.0359197
0.0358987
0.0358818
0.0358686
0.0358587
0.0358517
0.0358469
0.0358442
0.0358431
0.080876
0.0448141
0.0391535
0.0373966
0.0367099
0.0364094
0.0362639
0.0361824
0.0361272
0.0360828
0.0360433
0.0360071
0.0359741
0.0359449
0.0359197
0.0358987
0.0358818
0.0358686
0.0358587
0.0358516
0.0358469
0.0358442
0.035843
0.080876
0.0448141
0.0391536
0.0373966
0.0367099
0.0364094
0.0362639
0.0361824
0.0361272
0.0360828
0.0360433
0.0360071
0.0359741
0.0359449
0.0359197
0.0358987
0.0358818
0.0358686
0.0358587
0.0358516
0.0358469
0.0358441
0.035843
0.080876
0.0448141
0.0391536
0.0373966
0.0367099
0.0364094
0.0362639
0.0361825
0.0361272
0.0360828
0.0360433
0.0360071
0.0359741
0.0359449
0.0359197
0.0358987
0.0358818
0.0358686
0.0358587
0.0358516
0.0358469
0.0358441
0.035843
0.080876
0.0448141
0.0391536
0.0373966
0.0367099
0.0364094
0.0362639
0.0361825
0.0361272
0.0360828
0.0360433
0.0360071
0.0359741
0.0359449
0.0359197
0.0358987
0.0358818
0.0358686
0.0358587
0.0358516
0.0358469
0.0358441
0.035843
0.169391
0.132163
0.131837
0.167608
0.0602427
0.0608914
0.060857
0.0601643
0.0459122
0.0464969
0.0464902
0.0458952
0.0412777
0.0415083
0.041506
0.0412712
0.0391538
0.0392516
0.0392507
0.0391511
0.0380082
0.0380548
0.0380544
0.038007
0.0373248
0.0373492
0.037349
0.0373243
0.0368869
0.0369007
0.0369007
0.0368869
0.0365913
0.0365996
0.0365997
0.0365916
0.0363839
0.0363891
0.0363894
0.0363846
0.0362347
0.0362381
0.0362384
0.0362356
0.0361256
0.0361279
0.0361283
0.0361267
0.0360452
0.0360469
0.0360473
0.0360466
0.0359859
0.0359872
0.0359877
0.0359876
0.0359425
0.0359435
0.0359441
0.0359443
0.035911
0.0359118
0.0359124
0.0359129
0.0358884
0.0358891
0.0358898
0.0358905
0.0358725
0.0358731
0.0358739
0.0358747
0.0358616
0.0358622
0.0358629
0.0358638
0.0358542
0.0358548
0.0358555
0.0358565
0.0358494
0.03585
0.0358507
0.0358517
0.0358464
0.0358469
0.0358477
0.0358488
0.0358446
0.0358451
0.0358459
0.035847
0.0358436
0.0358441
0.0358449
0.035846
0.0358431
0.0358436
0.0358444
0.0358455
0.0358429
0.0358434
0.0358442
0.0358453
0.0358428
0.0358433
0.0358441
0.0358452
0.0358429
0.0358434
0.0358442
0.0358453
0.035843
0.0358435
0.0358443
0.0358454
0.0358431
0.0358436
0.0358444
0.0358455
0.0358432
0.0358437
0.0358445
0.0358456
0.0358432
0.0358437
0.0358445
0.0358457
0.0358433
0.0358438
0.0358446
0.0358457
0.0358433
0.0358438
0.0358446
0.0358457
0.0358434
0.0358439
0.0358447
0.0358458
0.0358434
0.0358439
0.0358447
0.0358458
0.0358434
0.0358439
0.0358447
0.0358458
0.0358433
0.0358439
0.0358447
0.0358458
0.0358433
0.0358438
0.0358446
0.0358457
0.0358433
0.0358438
0.0358446
0.0358457
0.0358433
0.0358438
0.0358446
0.0358457
0.0358433
0.0358438
0.0358446
0.0358457
0.0666515
0.0452626
0.0388157
0.0366907
0.0360156
0.0358539
0.03585
0.0358567
0.0358083
0.0356718
0.0354257
0.0350511
0.0345299
0.0338492
0.0330167
0.0321077
0.0314256
0.0323514
0.0487672
0.0503792
0.0426709
0.0388764
0.0371223
0.0363493
0.036027
0.0358937
0.0358188
0.035735
0.0356054
0.0354064
0.0351207
0.0347357
0.0342488
0.033685
0.0331489
0.0330079
0.0348762
0.0547572
0.0437042
0.0405693
0.0384426
0.0371989
0.0365252
0.0361748
0.0359894
0.0358743
0.0357738
0.035654
0.035493
0.0352757
0.0349941
0.0346529
0.0342892
0.0340291
0.0342903
0.0368811
0.0595645
0.0405299
0.0391146
0.0379242
0.0370959
0.0365732
0.0362589
0.0360693
0.0359438
0.0358415
0.0357354
0.0356069
0.0354439
0.035242
0.0350114
0.034798
0.0347441
0.0353081
0.0384601
0.0634099
0.0388392
0.0381423
0.0374632
0.0369246
0.0365421
0.0362861
0.0361168
0.035999
0.0359054
0.0358159
0.0357161
0.0355968
0.0354569
0.0353107
0.0352104
0.0353112
0.0361044
0.0396934
0.066467
0.0378566
0.0374882
0.0370903
0.036742
0.0364709
0.0362738
0.0361344
0.0360337
0.0359546
0.0358832
0.0358088
0.0357252
0.0356336
0.0355517
0.0355366
0.0357534
0.0367202
0.0406483
0.0688777
0.0372447
0.0370384
0.0367989
0.036573
0.0363844
0.0362385
0.0361301
0.03605
0.0359879
0.0359345
0.0358825
0.035828
0.0357742
0.0357412
0.0357901
0.0360936
0.0371911
0.0413807
0.0707606
0.0368419
0.0367211
0.0365735
0.0364265
0.0362971
0.0361925
0.0361124
0.0360527
0.0360077
0.0359713
0.0359387
0.0359078
0.0358835
0.0358878
0.0359844
0.0363523
0.0375477
0.0419368
0.0722159
0.0365651
0.036492
0.0363995
0.0363037
0.0362164
0.0361439
0.0360878
0.0360467
0.0360176
0.0359966
0.0359804
0.0359686
0.0359672
0.0359995
0.0361317
0.036547
0.0378149
0.0423546
0.073328
0.0363686
0.0363235
0.0362651
0.0362032
0.0361457
0.0360976
0.0360611
0.0360361
0.0360209
0.0360132
0.0360108
0.0360142
0.0360305
0.0360839
0.0362422
0.0366922
0.0380132
0.0426652
0.0741681
0.0362259
0.0361981
0.0361615
0.0361223
0.036086
0.0360564
0.0360355
0.0360238
0.0360204
0.0360238
0.0360327
0.0360483
0.0360781
0.0361472
0.0363244
0.0367995
0.0381589
0.0428935
0.0747952
0.036121
0.0361041
0.0360818
0.0360582
0.036037
0.0360213
0.0360126
0.0360117
0.036018
0.0360306
0.0360486
0.0360735
0.0361136
0.0361942
0.0363852
0.0368781
0.0382649
0.0430595
0.0752578
0.0360434
0.0360337
0.0360211
0.0360082
0.035998
0.0359925
0.0359933
0.0360009
0.036015
0.0360349
0.0360601
0.0360923
0.03614
0.0362291
0.0364298
0.0369352
0.0383413
0.043179
0.0755952
0.0359861
0.0359813
0.0359752
0.0359699
0.0359675
0.0359697
0.0359777
0.0359919
0.0360122
0.0360379
0.0360686
0.0361064
0.0361597
0.0362548
0.0364624
0.0369764
0.0383959
0.0432641
0.0758385
0.0359441
0.0359425
0.035941
0.0359411
0.0359444
0.0359522
0.0359657
0.035985
0.03601
0.0360401
0.0360751
0.0361169
0.0361744
0.0362737
0.036486
0.0370059
0.0384345
0.0433241
0.076012
0.0359135
0.0359143
0.0359159
0.0359198
0.0359272
0.0359393
0.0359567
0.0359799
0.0360085
0.036042
0.0360801
0.0361249
0.0361853
0.0362876
0.0365031
0.0370269
0.0384617
0.043366
0.0761345
0.0358916
0.035894
0.0358979
0.0359045
0.0359148
0.0359299
0.0359503
0.0359764
0.0360076
0.0360436
0.036084
0.036131
0.0361935
0.0362978
0.0365154
0.0370417
0.0384806
0.043395
0.0762201
0.0358762
0.0358797
0.0358852
0.0358937
0.0359062
0.0359234
0.035946
0.0359741
0.0360073
0.0360451
0.0360872
0.0361357
0.0361995
0.0363052
0.0365242
0.0370522
0.0384937
0.0434149
0.0762794
0.0358656
0.0358699
0.0358765
0.0358864
0.0359003
0.0359191
0.0359433
0.0359728
0.0360075
0.0360465
0.0360897
0.0361393
0.0362041
0.0363106
0.0365304
0.0370594
0.0385027
0.0434284
0.07632
0.0358585
0.0358633
0.0358707
0.0358815
0.0358965
0.0359164
0.0359416
0.0359722
0.0360079
0.0360478
0.0360918
0.0361421
0.0362074
0.0363145
0.0365348
0.0370645
0.0385088
0.0434376
0.0763477
0.0358539
0.0358591
0.035867
0.0358784
0.0358941
0.0359148
0.0359408
0.0359721
0.0360084
0.0360489
0.0360935
0.0361442
0.0362099
0.0363173
0.036538
0.037068
0.038513
0.0434437
0.0763663
0.035851
0.0358564
0.0358647
0.0358766
0.0358928
0.0359139
0.0359404
0.0359723
0.036009
0.0360499
0.0360948
0.0361458
0.0362118
0.0363193
0.0365402
0.0370704
0.0385158
0.0434478
0.0763788
0.0358493
0.0358549
0.0358634
0.0358755
0.0358921
0.0359136
0.0359404
0.0359726
0.0360096
0.0360508
0.0360959
0.036147
0.0362131
0.0363208
0.0365417
0.037072
0.0385176
0.0434505
0.0763871
0.0358484
0.035854
0.0358627
0.035875
0.0358918
0.0359135
0.0359406
0.0359729
0.0360101
0.0360515
0.0360967
0.0361479
0.0362141
0.0363218
0.0365427
0.0370731
0.0385189
0.0434522
0.0763926
0.0358479
0.0358536
0.0358624
0.0358749
0.0358917
0.0359136
0.0359408
0.0359733
0.0360106
0.036052
0.0360973
0.0361486
0.0362148
0.0363225
0.0365435
0.0370739
0.0385197
0.0434534
0.0763962
0.0358477
0.0358535
0.0358623
0.0358749
0.0358918
0.0359138
0.035941
0.0359736
0.036011
0.0360525
0.0360978
0.0361491
0.0362153
0.036323
0.036544
0.0370744
0.0385202
0.0434541
0.0763985
0.0358477
0.0358535
0.0358624
0.035875
0.035892
0.035914
0.0359413
0.0359739
0.0360113
0.0360528
0.0360982
0.0361495
0.0362157
0.0363234
0.0365443
0.0370747
0.0385206
0.0434546
0.0764
0.0358477
0.0358536
0.0358625
0.0358751
0.0358921
0.0359141
0.0359415
0.0359741
0.0360116
0.0360531
0.0360984
0.0361497
0.0362159
0.0363236
0.0365445
0.0370749
0.0385208
0.0434549
0.076401
0.0358478
0.0358537
0.0358626
0.0358752
0.0358923
0.0359143
0.0359417
0.0359743
0.0360118
0.0360533
0.0360986
0.0361499
0.0362161
0.0363238
0.0365447
0.0370751
0.038521
0.0434551
0.0764016
0.0358479
0.0358538
0.0358627
0.0358753
0.0358924
0.0359144
0.0359418
0.0359745
0.0360119
0.0360534
0.0360988
0.0361501
0.0362162
0.0363239
0.0365448
0.0370751
0.0385211
0.0434552
0.076402
0.035848
0.0358539
0.0358628
0.0358754
0.0358925
0.0359146
0.0359419
0.0359746
0.036012
0.0360535
0.0360989
0.0361502
0.0362163
0.036324
0.0365449
0.0370752
0.0385211
0.0434553
0.0764022
0.0358481
0.035854
0.0358629
0.0358755
0.0358926
0.0359146
0.035942
0.0359747
0.0360121
0.0360536
0.0360989
0.0361502
0.0362164
0.036324
0.0365449
0.0370752
0.0385212
0.0434554
0.0764024
0.0358482
0.035854
0.0358629
0.0358756
0.0358926
0.0359147
0.0359421
0.0359747
0.0360121
0.0360536
0.036099
0.0361503
0.0362164
0.0363241
0.0365449
0.0370753
0.0385212
0.0434554
0.0764025
0.0358482
0.0358541
0.035863
0.0358756
0.0358927
0.0359147
0.0359421
0.0359748
0.0360122
0.0360537
0.036099
0.0361503
0.0362165
0.0363241
0.036545
0.0370753
0.0385212
0.0434554
0.0764025
0.0358482
0.0358541
0.035863
0.0358756
0.0358927
0.0359148
0.0359421
0.0359748
0.0360122
0.0360537
0.036099
0.0361503
0.0362165
0.0363241
0.036545
0.0370753
0.0385212
0.0434554
0.0764026
0.0358482
0.0358541
0.035863
0.0358757
0.0358927
0.0359148
0.0359422
0.0359748
0.0360122
0.0360537
0.0360991
0.0361503
0.0362165
0.0363241
0.036545
0.0370753
0.0385212
0.0434554
0.0764026
0.0358482
0.0358541
0.035863
0.0358757
0.0358927
0.0359148
0.0359422
0.0359748
0.0360122
0.0360537
0.0360991
0.0361503
0.0362165
0.0363241
0.036545
0.0370753
0.0385212
0.0434554
0.0764026
0.0358482
0.0358541
0.035863
0.0358757
0.0358927
0.0359148
0.0359422
0.0359748
0.0360122
0.0360537
0.0360991
0.0361503
0.0362165
0.0363241
0.036545
0.0370753
0.0385212
0.0434554
0.0764026
0.0358482
0.0358541
0.035863
0.0358757
0.0358927
0.0359148
0.0359422
0.0359748
0.0360122
0.0360537
0.0360991
0.0361503
0.0362165
0.0363241
0.036545
0.0370753
0.0385212
0.0434554
0.0764026
0.0358482
0.0358541
0.035863
0.0358757
0.0358927
0.0359148
0.0359422
0.0359748
0.0360122
0.0360537
0.0360991
0.0361503
0.0362165
0.0363241
0.036545
0.0370753
0.0385212
0.0434554
0.0764026
0.0358482
0.0358541
0.035863
0.0358756
0.0358927
0.0359148
0.0359422
0.0359748
0.0360122
0.0360537
0.0360991
0.0361503
0.0362165
0.0363241
0.036545
0.0370753
0.0385212
0.0434554
0.0764026
0.0358481
0.035854
0.035863
0.0358756
0.0358927
0.0359148
0.0359422
0.0359748
0.0360122
0.0360537
0.0360991
0.0361503
0.0362165
0.0363241
0.036545
0.0370753
0.0385212
0.0434554
0.0764026
)
;

boundaryField
{
    leftWall
    {
        type            epsilonWallFunction;
        blending        stepwise;
        value           nonuniform List<scalar> 
50
(
0.00691415
0.0120499
0.0192126
0.0257449
0.0315452
0.0367061
0.041324
0.045475
0.0513759
0.0577667
0.0629028
0.0670158
0.0702881
0.0728693
0.0748851
0.0764419
0.0776301
0.0785258
0.0791926
0.079683
0.0800391
0.0802947
0.080476
0.0806033
0.0806916
0.0807524
0.0807938
0.0808217
0.0808404
0.0808528
0.080861
0.0808664
0.0808698
0.0808721
0.0808735
0.0808744
0.080875
0.0808754
0.0808756
0.0808758
0.0808759
0.0808759
0.0808759
0.080876
0.080876
0.080876
0.080876
0.080876
0.080876
0.080876
)
;
    }
    rightWall
    {
        type            epsilonWallFunction;
        blending        stepwise;
        value           nonuniform List<scalar> 
50
(
0.00758027
0.0118836
0.0185669
0.0246885
0.0301382
0.0349897
0.0393297
0.0432287
0.0487672
0.0547572
0.0595645
0.0634099
0.066467
0.0688777
0.0707606
0.0722159
0.073328
0.0741681
0.0747952
0.0752578
0.0755952
0.0758385
0.076012
0.0761345
0.0762201
0.0762794
0.07632
0.0763477
0.0763663
0.0763788
0.0763871
0.0763926
0.0763962
0.0763985
0.0764
0.076401
0.0764016
0.076402
0.0764022
0.0764024
0.0764025
0.0764025
0.0764026
0.0764026
0.0764026
0.0764026
0.0764026
0.0764026
0.0764026
0.0764026
)
;
    }
    lowerWall
    {
        type            epsilonWallFunction;
        blending        stepwise;
        value           nonuniform List<scalar> 
62
(
0.00691415
0.0290134
0.0476604
0.0627077
0.074933
0.0848768
0.0929261
0.0993734
0.104447
0.108323
0.111137
0.11298
0.113896
0.11388
0.112857
0.110666
0.10702
0.101442
0.0931599
0.0809829
0.0632446
0.0382575
0.00739921
0.00739921
0.0145742
0.0249582
0.0353373
0.0461993
0.0593639
0.0811454
0.138372
0.169391
0.132163
0.131837
0.167608
0.00808077
0.0141797
0.0239057
0.0336862
0.0440268
0.0568128
0.0782632
0.132106
0.00808077
0.041753
0.0677491
0.0852363
0.0965531
0.103694
0.107943
0.110056
0.110447
0.109317
0.10672
0.102608
0.0968436
0.0892061
0.0793846
0.0669487
0.0512871
0.0315161
0.00758027
)
;
    }
    atmosphere
    {
        type            inletOutlet;
        inletValue      uniform 0.1;
        value           nonuniform List<scalar> 
46
(
0.080876
0.0448141
0.0391536
0.0373966
0.0367099
0.0364094
0.0362639
0.0361825
0.0361272
0.0360828
0.0360433
0.0360071
0.0359741
0.0359449
0.0359197
0.0358987
0.0358818
0.0358686
0.0358587
0.0358516
0.0358469
0.0358441
0.035843
0.0358433
0.0358438
0.0358446
0.0358457
0.0358481
0.035854
0.035863
0.0358756
0.0358927
0.0359148
0.0359422
0.0359748
0.0360122
0.0360537
0.0360991
0.0361503
0.0362165
0.0363241
0.036545
0.0370753
0.0385212
0.0434554
0.0764026
)
;
    }
    defaultFaces
    {
        type            empty;
    }
}


// ************************************************************************* //
