/*--------------------------------*- C++ -*----------------------------------*\
| =========                 |                                                 |
| \\      /  F ield         | OpenFOAM: The Open Source CFD Toolbox           |
|  \\    /   O peration     | Version:  2406                                  |
|   \\  /    A nd           | Website:  www.openfoam.com                      |
|    \\/     M anipulation  |                                                 |
\*---------------------------------------------------------------------------*/
FoamFile
{
    version     2.0;
    format      ascii;
    arch        "LSB;label=32;scalar=64";
    class       volScalarField;
    location    "0.7";
    object      k;
}
// * * * * * * * * * * * * * * * * * * * * * * * * * * * * * * * * * * * * * //

dimensions      [0 2 -2 0 0 0 0];

internalField   nonuniform List<scalar> 
2268
(
0.1
0.1
0.1
0.1
0.1
0.1
0.1
0.1
0.1
0.1
0.1
0.1
0.1
0.00733443
0.00306948
0.00409659
0.00474261
0.00508305
0.00516433
0.00496761
0.00441287
0.00332409
0.00125413
0.1
0.1
0.1
0.1
0.1
0.1
0.1
0.1
0.1
0.1
0.1
0.1
0.1
0.00636906
0.00705042
0.00930382
0.0106767
0.0114155
0.0115945
0.0111703
0.00997763
0.0076674
0.0030654
0.1
0.1
0.1
0.1
0.1
0.1
0.1
0.1
0.1
0.1
0.1
0.1
0.1
0.00725226
0.00939898
0.0121464
0.0138376
0.0147669
0.015009
0.0145081
0.0130625
0.0102226
0.00423908
0.1
0.1
0.1
0.1
0.1
0.1
0.1
0.1
0.1
0.1
0.1
0.1
0.1
0.00828705
0.0112184
0.0142849
0.0161839
0.0172483
0.0175552
0.0170428
0.0154849
0.012324
0.0052299
0.1
0.1
0.1
0.1
0.1
0.1
0.1
0.1
0.1
0.1
0.1
0.1
0.1
0.00927549
0.0127472
0.016075
0.0181431
0.0193257
0.0197095
0.0192348
0.0176585
0.0143065
0.00617581
0.1
0.1
0.1
0.1
0.1
0.1
0.1
0.1
0.1
0.1
0.1
0.1
0.1
0.0102157
0.0140872
0.0176434
0.0198629
0.021159
0.021635
0.021242
0.0197375
0.0163495
0.00726958
0.1
0.1
0.1
0.1
0.1
0.1
0.1
0.1
0.1
0.1
0.1
0.1
0.1
0.0111211
0.0152952
0.0190522
0.0214108
0.0228193
0.0234022
0.0231313
0.0217924
0.0186039
0.00899198
0.1
0.1
0.1
0.1
0.1
0.1
0.1
0.1
0.1
0.1
0.1
0.1
0.1
0.0120029
0.016404
0.0203342
0.0228202
0.0243402
0.0250416
0.0249252
0.0238369
0.0211715
0.0129195
0.00138955
0.00389635
0.00528375
0.00611492
0.00662787
0.00694693
0.00713822
0.00723699
0.00726155
0.00722008
0.00711381
0.00693854
0.00668513
0.00633902
0.00587814
0.00526733
0.00444323
0.00326751
0.00168923
0.00347334
0.00900205
0.0119494
0.0137373
0.0148477
0.0155399
0.0159546
0.016168
0.0162199
0.016128
0.0158951
0.0155115
0.014957
0.0141986
0.0131871
0.0118447
0.0100364
0.00748286
0.0031295
0.00484072
0.0120267
0.0156543
0.0178437
0.019208
0.020061
0.020572
0.0208328
0.0208918
0.0207703
0.0204713
0.0199824
0.0192778
0.0183161
0.0170349
0.0153374
0.013059
0.00985532
0.00414477
0.00603143
0.0145274
0.0185596
0.020954
0.0224481
0.0233856
0.0239473
0.024231
0.0242881
0.0241414
0.0237929
0.0232285
0.0224184
0.0213154
0.0198485
0.0179087
0.0153116
0.0116585
0.0049644
0.00718886
0.0168804
0.0211485
0.0236277
0.025177
0.0261538
0.0267393
0.0270308
0.0270797
0.0269079
0.0265165
0.0258894
0.0249937
0.0237777
0.0221639
0.0200337
0.0171858
0.0131669
0.00564623
0.00853174
0.0192626
0.0235847
0.0260474
0.0275951
0.028578
0.0291675
0.0294555
0.0294907
0.029293
0.0288621
0.0281796
0.02721
0.0258981
0.0241611
0.0218724
0.0188145
0.0144796
0.00623604
0.0105929
0.0218013
0.0259323
0.0282859
0.0297867
0.0307497
0.0313276
0.0316031
0.03162
0.0313955
0.0309269
0.030194
0.029159
0.0277635
0.0259204
0.0234963
0.0202584
0.0156462
0.00676354
0.0149779
0.0245581
0.0281987
0.0303685
0.031789
0.0327127
0.0332669
0.0335228
0.0335177
0.0332654
0.0327606
0.0319812
0.0308872
0.0294176
0.0274821
0.024941
0.0215481
0.0166935
0.00724677
0.1
0.1
0.1
0.1
0.1
0.1
0.1
0.1
0.1
0.1
0.1
0.1
0.1
0.0133544
0.0180048
0.0221629
0.0248297
0.0265204
0.027418
0.0275732
0.0269452
0.0253525
0.0221773
0.1
0.1
0.1
0.1
0.1
0.1
0.1
0.1
0.1
0.1
0.1
0.1
0.1
0.0149959
0.01979
0.0241906
0.0270761
0.0289927
0.0301641
0.0306965
0.0306503
0.0300749
0.0290513
0.1
0.1
0.1
0.1
0.1
0.1
0.1
0.1
0.1
0.1
0.1
0.1
0.1
0.0164683
0.0212688
0.025867
0.028952
0.0310809
0.0325054
0.0333657
0.0337692
0.0338341
0.0337379
0.1
0.1
0.1
0.1
0.1
0.1
0.1
0.1
0.1
0.1
0.1
0.1
0.1
0.0177991
0.0225136
0.0272686
0.0305294
0.0328475
0.0344899
0.0356135
0.0363404
0.0367948
0.0371295
0.1
0.1
0.1
0.1
0.1
0.1
0.1
0.1
0.1
0.1
0.1
0.1
0.1
0.0190031
0.0235708
0.0284455
0.0318553
0.0343348
0.0361569
0.0374844
0.0384405
0.0391399
0.0397056
0.1
0.1
0.1
0.1
0.1
0.1
0.1
0.1
0.1
0.1
0.1
0.1
0.1
0.0200886
0.0244708
0.0294331
0.0329656
0.0355786
0.0375451
0.0390284
0.0401485
0.0410098
0.0417151
0.1
0.1
0.1
0.1
0.1
0.1
0.1
0.1
0.1
0.1
0.1
0.1
0.1
0.0210613
0.0252358
0.0302592
0.0338902
0.0366115
0.0386925
0.0402948
0.0415341
0.0425072
0.0433043
0.1
0.1
0.1
0.1
0.1
0.1
0.1
0.1
0.1
0.1
0.1
0.1
0.1
0.0219271
0.0258845
0.0309478
0.0346567
0.0374645
0.0396356
0.0413287
0.0426561
0.0437088
0.0445696
0.1
0.1
0.1
0.1
0.1
0.1
0.1
0.1
0.1
0.1
0.1
0.1
0.1
0.0226932
0.0264339
0.0315212
0.0352911
0.0381675
0.0404088
0.0421712
0.0435639
0.0446744
0.0455806
0.1
0.1
0.1
0.1
0.1
0.1
0.1
0.1
0.1
0.1
0.1
0.1
0.1
0.023368
0.0269017
0.0320019
0.0358192
0.0387491
0.0410446
0.0428592
0.0442999
0.045452
0.0463904
0.1
0.1
0.1
0.1
0.1
0.1
0.1
0.1
0.1
0.1
0.1
0.1
0.1
0.023962
0.0273062
0.0324126
0.0362667
0.0392378
0.0415738
0.0434262
0.044901
0.0460817
0.0470418
0.1
0.1
0.1
0.1
0.1
0.1
0.1
0.1
0.1
0.1
0.1
0.1
0.1
0.0244881
0.0276684
0.0327785
0.0366608
0.0396621
0.042026
0.0439035
0.0453998
0.0465979
0.0475705
0.1
0.1
0.1
0.1
0.1
0.1
0.1
0.1
0.1
0.1
0.1
0.1
0.1
0.0249629
0.0280137
0.0331283
0.0370313
0.0400514
0.0424306
0.0443202
0.0458258
0.0470305
0.0480064
0.1
0.1
0.1
0.1
0.1
0.1
0.1
0.1
0.1
0.1
0.1
0.1
0.1
0.0254103
0.0283758
0.0334975
0.037412
0.0404372
0.0428167
0.0447038
0.0462057
0.0474055
0.0483756
0.1
0.1
0.1
0.1
0.1
0.1
0.1
0.1
0.1
0.1
0.1
0.1
0.1
0.0258681
0.0288047
0.0339332
0.0378432
0.0408534
0.0432134
0.0450804
0.0465632
0.0477458
0.0487
0.1
0.1
0.1
0.1
0.1
0.1
0.1
0.1
0.1
0.1
0.1
0.1
0.1
0.0264062
0.029381
0.0345004
0.0383732
0.0413358
0.0436486
0.0454731
0.0469193
0.0480706
0.048998
0.1
0.1
0.1
0.1
0.1
0.1
0.1
0.1
0.1
0.1
0.1
0.1
0.1
0.0271727
0.0302431
0.0352877
0.0390558
0.0419189
0.0441467
0.0459014
0.0472906
0.0483953
0.0492842
0.1
0.1
0.1
0.1
0.1
0.1
0.1
0.1
0.1
0.1
0.1
0.1
0.1
0.0285234
0.0316211
0.0363977
0.0399376
0.0426273
0.044724
0.0463779
0.0476885
0.0487308
0.0495695
0.1
0.1
0.1
0.1
0.1
0.1
0.1
0.1
0.1
0.1
0.1
0.1
0.1
0.0311446
0.0337494
0.0378776
0.0410266
0.0434634
0.0453832
0.0469068
0.0481182
0.0490834
0.0498611
0.1
0.1
0.1
0.1
0.1
0.1
0.1
0.1
0.1
0.1
0.1
0.1
0.0342964
0.0320517
0.0361256
0.0395638
0.0422607
0.0444005
0.0461121
0.0474831
0.0485792
0.0494551
0.0501625
0.0185707
0.0198278
0.0214376
0.0226764
0.023598
0.0243004
0.0248682
0.0253837
0.0259508
0.0267458
0.0281504
0.0308756
0.0319396
0.0353568
0.0386145
0.0413396
0.0435745
0.0454015
0.0468899
0.0480956
0.0490658
0.0498443
0.050475
0.00648346
0.0137317
0.0176898
0.0204588
0.0225344
0.0241616
0.0254999
0.0266801
0.0278397
0.0291592
0.0308998
0.0333129
0.0358985
0.0385253
0.0409514
0.0430791
0.0448966
0.0464242
0.0476913
0.0487293
0.0495703
0.0502476
0.0507982
0.0065886
0.0154526
0.0201052
0.0234031
0.025925
0.0279337
0.0295982
0.0310524
0.0324218
0.0338395
0.0354393
0.0372886
0.0392383
0.0411877
0.0430317
0.0447029
0.0461714
0.0474319
0.0484929
0.0493701
0.0500846
0.0506614
0.0511317
0.00752161
0.017306
0.0223657
0.0259616
0.0287447
0.0309843
0.0328464
0.034457
0.0359247
0.0373474
0.0388043
0.0403271
0.0418736
0.0433976
0.0448469
0.0461788
0.0473671
0.0484002
0.0492779
0.0500076
0.0506031
0.051084
0.0514767
0.00826242
0.0188227
0.0242088
0.0280237
0.0309912
0.0333918
0.035389
0.0371003
0.0386208
0.0400283
0.0413809
0.0427069
0.0440021
0.0452496
0.0464254
0.047506
0.0484737
0.0493188
0.0500388
0.0506376
0.0511251
0.0515172
0.051837
0.00882627
0.0200218
0.025687
0.0296846
0.032799
0.0353241
0.0374225
0.0392063
0.0407611
0.0421545
0.0434363
0.0446367
0.045767
0.0468269
0.0478087
0.0487021
0.049498
0.0501904
0.0507779
0.0512635
0.0516555
0.0519677
0.052221
0.00926037
0.0209679
0.0268736
0.0310323
0.0342741
0.0369043
0.0390865
0.0409291
0.0425126
0.0438991
0.0451353
0.0462532
0.0472721
0.0482012
0.0490432
0.0497966
0.0504591
0.0510291
0.0515072
0.0518971
0.0522065
0.0524484
0.0526425
0.00960017
0.0217239
0.02784
0.0321457
0.0355048
0.0382311
0.0404893
0.0423858
0.0439983
0.0453863
0.0465954
0.0476595
0.0486022
0.0494389
0.050179
0.0508273
0.0513868
0.0518595
0.0522484
0.0525586
0.0527981
0.0529795
0.053122
0.00987422
0.0223478
0.0286547
0.0331007
0.0365738
0.0393938
0.041726
0.0436762
0.0453206
0.0467178
0.0479135
0.0489433
0.0498339
0.0506049
0.0512703
0.0518396
0.0523195
0.0527155
0.0530328
0.0532776
0.0534589
0.0535892
0.0536877
0.0101086
0.0228959
0.0293873
0.0339751
0.0375653
0.0404814
0.0428896
0.0448953
0.0465749
0.0479872
0.049179
0.0501877
0.0510425
0.0517663
0.0523765
0.0528859
0.0533046
0.0536404
0.0539005
0.0540926
0.0542263
0.0543145
0.0543763
0.0103303
0.0234289
0.0301149
0.0348558
0.0385722
0.0415905
0.0440779
0.0461411
0.0478577
0.0492882
0.0504813
0.0514765
0.0523058
0.0529945
0.0535628
0.0540263
0.0543974
0.054686
0.0549011
0.0550513
0.0551469
0.0552013
0.0552334
0.0105708
0.0240189
0.0309292
0.0358455
0.0397028
0.042831
0.0454002
0.0475201
0.0492717
0.050719
0.0519135
0.0528977
0.0537059
0.0543662
0.0549009
0.0553278
0.0556612
0.0559126
0.0560923
0.0562097
0.0562758
0.0563041
0.0563132
0.0108699
0.0247571
0.0319456
0.0370709
0.0410872
0.0443314
0.04698
0.0491499
0.0509282
0.0523842
0.0535741
0.0545435
0.0553298
0.0559631
0.0564679
0.0568636
0.0571658
0.0573873
0.0575392
0.0576316
0.0576757
0.0576849
0.0576774
0.0112811
0.0257645
0.0333126
0.0386903
0.0428821
0.0462405
0.0489563
0.0511588
0.0529457
0.054394
0.0555655
0.0565101
0.0572679
0.057871
0.0583453
0.0587115
0.0589861
0.0591827
0.0593125
0.0593863
0.059415
0.0594116
0.0593936
0.0118775
0.0272023
0.035222
0.040899
0.0452722
0.0487267
0.0514799
0.0536822
0.0554464
0.0568601
0.0579916
0.0588947
0.0596121
0.0601773
0.0606171
0.0609525
0.0612006
0.0613748
0.0614868
0.061547
0.061566
0.061556
0.0615331
0.0127583
0.0292866
0.0379191
0.0439328
0.0484671
0.0519703
0.0547055
0.0568545
0.0585502
0.0598916
0.0609534
0.0617928
0.0624536
0.0629699
0.0633681
0.0636693
0.0638897
0.0640428
0.0641396
0.06419
0.0642039
0.0641924
0.0641695
0.0140616
0.0323135
0.0417193
0.0480701
0.0526939
0.0561526
0.0587808
0.0608009
0.0623675
0.0635898
0.0645468
0.0652965
0.0658822
0.0663366
0.0666849
0.0669467
0.0671372
0.0672689
0.0673519
0.0673951
0.0674074
0.0673983
0.0673794
0.0159936
0.0367154
0.0470347
0.0536287
0.05818
0.0614383
0.0638324
0.0656274
0.0669943
0.0680465
0.068862
0.0694958
0.0699879
0.0703677
0.0706577
0.0708749
0.0710327
0.071142
0.0712114
0.0712489
0.0712616
0.0712575
0.0712452
0.0189147
0.0431765
0.0544034
0.0609415
0.0651189
0.067948
0.0699499
0.0714139
0.0725103
0.0733449
0.0739867
0.0744827
0.0748662
0.0751613
0.0753861
0.0755544
0.075677
0.0757625
0.0758181
0.0758499
0.0758637
0.0758654
0.0758608
0.0236212
0.0528739
0.0644778
0.0702677
0.0735991
0.07572
0.0771701
0.078211
0.0789826
0.0795664
0.0800138
0.0803588
0.0806252
0.08083
0.0809862
0.0811034
0.0811893
0.08125
0.0812908
0.0813161
0.0813301
0.0813365
0.0813388
0.0326393
0.0679921
0.0777914
0.0815647
0.0834939
0.0846732
0.0854728
0.086048
0.0864763
0.0868017
0.0870519
0.0872454
0.0873951
0.0875105
0.0875987
0.0876654
0.0877147
0.0877504
0.0877754
0.0877925
0.0878041
0.0878123
0.0878186
0.0549928
0.0913098
0.0934797
0.0940267
0.0943625
0.0946148
0.0948092
0.0949596
0.0950764
0.0951674
0.0952385
0.0952941
0.0953375
0.0953712
0.0953973
0.0954171
0.0954321
0.0954434
0.0954518
0.0954584
0.0954639
0.095469
0.0954741
0.01522
0.0131269
0.0133375
0.0160147
0.0281656
0.0279425
0.0282703
0.0291542
0.033781
0.0339329
0.0342591
0.0347548
0.0374352
0.0376872
0.0380105
0.0384021
0.0401251
0.040418
0.0407429
0.041098
0.0421981
0.0425145
0.0428431
0.0431829
0.0438284
0.0441607
0.0444938
0.0448268
0.0451226
0.0454665
0.0458038
0.0461339
0.0461542
0.0465067
0.0468476
0.0471766
0.0469786
0.0473372
0.0476808
0.0480091
0.0476395
0.0480019
0.048347
0.0486743
0.0481728
0.0485366
0.0488815
0.0492072
0.0486085
0.0489713
0.0493141
0.0496368
0.0489723
0.0493312
0.0496697
0.0499876
0.0492856
0.0496374
0.049969
0.0502801
0.0495663
0.0499077
0.0502294
0.0505312
0.0498288
0.0501561
0.0504649
0.0507548
0.0500839
0.0503935
0.0506862
0.0509616
0.0503392
0.0506277
0.0509014
0.0511598
0.0505993
0.0508639
0.051116
0.0513554
0.0508667
0.0511052
0.051334
0.0515527
0.0511427
0.051354
0.0515583
0.0517553
0.0514287
0.0516124
0.051792
0.0519671
0.0517272
0.0518839
0.0520394
0.0521929
0.0520436
0.0521747
0.0523071
0.0524402
0.0523871
0.0524945
0.0526055
0.0527195
0.0527722
0.0528582
0.0529498
0.0530465
0.0532196
0.0532867
0.0533612
0.0534425
0.0537577
0.0538085
0.0538681
0.053936
0.0544231
0.0544601
0.054507
0.0545633
0.0552612
0.0552868
0.055323
0.0553696
0.056326
0.0563424
0.0563699
0.0564082
0.0576791
0.0576884
0.0577088
0.0577399
0.0593878
0.0593919
0.0594065
0.0594315
0.061523
0.0615237
0.0615338
0.0615532
0.0641582
0.0641569
0.0641635
0.0641779
0.0673694
0.0673674
0.0673713
0.067381
0.0712382
0.0712364
0.0712384
0.0712439
0.0758576
0.0758567
0.0758573
0.0758594
0.0813394
0.0813395
0.0813394
0.0813388
0.0878218
0.0878228
0.0878224
0.0878205
0.0954772
0.0954782
0.095478
0.0954763
0.0245096
0.0288593
0.0315511
0.0333823
0.0346459
0.0354872
0.0359908
0.0362073
0.0361634
0.0358665
0.0353071
0.03446
0.0332821
0.0317094
0.0296468
0.0269474
0.0233458
0.0181631
0.00794507
0.0311773
0.0335513
0.0354092
0.0368212
0.0378522
0.0385542
0.0389662
0.0391134
0.0390077
0.0386475
0.0380176
0.0370884
0.0358135
0.0341253
0.0319246
0.0290564
0.0252342
0.0197034
0.00866994
0.0357697
0.0372813
0.038619
0.0397071
0.0405304
0.041094
0.041408
0.0414792
0.0413074
0.040883
0.0401853
0.0391807
0.0378197
0.0360318
0.033714
0.0307042
0.0266983
0.0208831
0.00921253
0.0391405
0.040249
0.0412677
0.0421202
0.0427726
0.0432113
0.0434308
0.043426
0.0431877
0.0427
0.0419375
0.0408631
0.0394245
0.0375485
0.0351287
0.031997
0.0278353
0.0217864
0.00962088
0.0417278
0.0426256
0.043444
0.0441279
0.0446451
0.0449768
0.0451102
0.0450333
0.0447311
0.0441828
0.0433592
0.0422204
0.0407115
0.0387568
0.0362474
0.0330102
0.0287163
0.0224766
0.00992863
0.043761
0.0445385
0.0452269
0.0457897
0.0462017
0.0464442
0.046502
0.0463594
0.0459976
0.0453926
0.0445124
0.0433144
0.041742
0.0397174
0.0371292
0.0338008
0.0293956
0.0230018
0.0101598
0.0453775
0.0460815
0.0466829
0.0471581
0.0474884
0.0476579
0.0476507
0.0474496
0.0470338
0.0463768
0.0454447
0.0441932
0.0425638
0.0404773
0.0378204
0.034414
0.0299161
0.0233986
0.0103323
0.046669
0.0473261
0.0478674
0.0482782
0.0485454
0.0486553
0.0485932
0.0483411
0.0478771
0.0471735
0.0461947
0.0448953
0.0432154
0.0410746
0.0383584
0.0348859
0.0303116
0.023696
0.0104598
0.0477023
0.0483279
0.0488266
0.0491896
0.0494075
0.0494693
0.049361
0.0490651
0.0485589
0.047814
0.046794
0.0454522
0.0437281
0.0415404
0.0387737
0.035246
0.0306094
0.0239166
0.010553
0.0485286
0.049132
0.0495995
0.0499262
0.0501055
0.0501283
0.0499818
0.0496485
0.0491059
0.0483251
0.047269
0.0458904
0.0441281
0.0419004
0.0390912
0.0355179
0.0308313
0.0240786
0.0106203
0.0491887
0.0497753
0.0502193
0.0505178
0.0506665
0.0506577
0.0504793
0.0501147
0.049541
0.0487293
0.0476422
0.0462322
0.0444375
0.042176
0.0393317
0.0357213
0.0309949
0.0241961
0.0106684
0.0497164
0.050289
0.050714
0.05099
0.0511141
0.0510794
0.0508749
0.0504839
0.0498841
0.0490462
0.0479328
0.0464961
0.0446743
0.042385
0.0395119
0.0358718
0.0311142
0.0242804
0.0107024
0.0501395
0.0506991
0.0511079
0.0513653
0.051469
0.051413
0.0511867
0.0507738
0.0501521
0.0492923
0.048157
0.0466981
0.0448539
0.0425418
0.0396455
0.0359819
0.0312002
0.0243403
0.010726
0.0504818
0.0510279
0.0514216
0.0516627
0.0517491
0.0516753
0.0514308
0.0509997
0.0503597
0.0494818
0.0483283
0.0468512
0.0449887
0.0426583
0.0397437
0.0360617
0.0312616
0.0243823
0.0107423
0.0507631
0.0512941
0.0516728
0.0518988
0.05197
0.0518809
0.051621
0.0511746
0.0505196
0.0496266
0.0484582
0.0469664
0.0450891
0.0427441
0.0398151
0.036119
0.031305
0.0244114
0.0107535
0.0509998
0.0515133
0.0518763
0.0520875
0.0521447
0.0520421
0.0517691
0.0513098
0.0506422
0.0497368
0.0485563
0.0470525
0.0451635
0.042807
0.0398668
0.0361599
0.0313355
0.0244316
0.010761
0.0512054
0.0516984
0.0520443
0.0522407
0.0522845
0.0521695
0.051885
0.0514147
0.0507364
0.0498209
0.0486304
0.047117
0.0452186
0.042853
0.0399041
0.036189
0.0313569
0.0244454
0.0107661
0.0513904
0.0518599
0.052187
0.052368
0.0523987
0.0522721
0.0519771
0.0514972
0.0508099
0.0498858
0.0486871
0.0471657
0.0452598
0.042887
0.0399313
0.0362099
0.0313719
0.024455
0.0107696
0.0515634
0.0520063
0.0523129
0.0524777
0.0524951
0.0523574
0.0520527
0.0515642
0.050869
0.0499374
0.0487318
0.0472039
0.0452917
0.042913
0.0399518
0.0362253
0.0313829
0.0244618
0.010772
0.0517307
0.0521443
0.0524289
0.0525767
0.0525807
0.0524321
0.0521182
0.0516217
0.0509193
0.0499812
0.0487694
0.0472357
0.045318
0.0429342
0.0399684
0.0362377
0.0313914
0.024467
0.0107737
0.0518975
0.0522798
0.0525411
0.0526713
0.0526618
0.0525023
0.0521795
0.0516753
0.0509662
0.0500219
0.0488044
0.0472652
0.0453425
0.0429539
0.0399836
0.0362489
0.0313991
0.0244715
0.0107753
0.0520683
0.052418
0.0526553
0.0527676
0.0527443
0.0525741
0.0522425
0.0517308
0.051015
0.0500647
0.0488414
0.0472968
0.0453687
0.042975
0.04
0.0362609
0.0314073
0.0244764
0.0107769
0.0522479
0.0525646
0.0527778
0.0528721
0.0528351
0.0526542
0.0523138
0.0517946
0.051072
0.0501153
0.0488859
0.0473351
0.045401
0.0430014
0.0400206
0.0362762
0.0314178
0.0244826
0.0107789
0.052442
0.0527264
0.0529159
0.0529925
0.0529421
0.0527505
0.0524013
0.0518743
0.0511446
0.0501809
0.0489443
0.0473863
0.0454448
0.0430377
0.0400494
0.0362979
0.0314329
0.0244917
0.0107819
0.052659
0.0529124
0.0530791
0.0531387
0.0530752
0.0528731
0.0525149
0.0519799
0.0512423
0.0502706
0.0490257
0.0474587
0.0455076
0.0430905
0.0400921
0.0363305
0.0314559
0.0245057
0.0107867
0.0529102
0.0531346
0.0532799
0.0533235
0.0532474
0.053035
0.0526678
0.0521242
0.051378
0.050397
0.0491419
0.0475636
0.0456
0.0431694
0.0401568
0.0363808
0.031492
0.024528
0.0107943
0.0532116
0.0534095
0.0535352
0.0535638
0.053476
0.0532536
0.0528773
0.0523246
0.0515688
0.050577
0.0493095
0.047717
0.0457371
0.0432882
0.0402557
0.0364588
0.0315489
0.0245638
0.0108068
0.0535848
0.053759
0.053867
0.053882
0.0537831
0.0535512
0.0531659
0.0526039
0.0518376
0.0508335
0.0495514
0.0479412
0.0459403
0.0434671
0.0404071
0.0365802
0.031639
0.0246215
0.0108271
0.0540582
0.0542116
0.0543037
0.0543065
0.0541977
0.0539569
0.053563
0.0529917
0.0522145
0.0511971
0.0498982
0.0482669
0.0462399
0.0437349
0.0406376
0.0367685
0.0317814
0.0247143
0.0108603
0.0546683
0.0548032
0.0548815
0.0548734
0.0547557
0.0545072
0.0541057
0.0535259
0.0527384
0.0517076
0.0503909
0.0487358
0.0466777
0.0441329
0.0409864
0.037059
0.0320053
0.0248632
0.0109145
0.0554596
0.0555783
0.0556441
0.0556265
0.0555014
0.0552467
0.0548394
0.0542533
0.0534577
0.0524155
0.051082
0.0494027
0.0473101
0.0447181
0.0415094
0.0375036
0.0323555
0.025101
0.0110027
0.0564852
0.0565891
0.0566435
0.0566176
0.0564867
0.0562283
0.0558184
0.0552301
0.054431
0.0533824
0.0520371
0.050337
0.0482107
0.0455671
0.042284
0.0381771
0.0328986
0.0254788
0.0111455
0.0578052
0.0578951
0.0579388
0.0579057
0.0577712
0.0575123
0.0571047
0.0565205
0.0557262
0.0546808
0.053334
0.0516234
0.0494712
0.0467785
0.0434138
0.0391835
0.033731
0.0260729
0.0113754
0.0594859
0.0595618
0.0595949
0.0595556
0.05942
0.0591651
0.0587665
0.0581958
0.0574184
0.0563913
0.0550608
0.0533591
0.0512002
0.0484732
0.045031
0.0406611
0.0349868
0.0269945
0.0117412
0.0615971
0.0616585
0.0616808
0.0616365
0.0615027
0.0612573
0.0608763
0.0603312
0.059587
0.0585994
0.0573114
0.0556498
0.0535183
0.0507903
0.0472945
0.0427854
0.036845
0.0283988
0.0123141
0.0642114
0.0642574
0.0642687
0.0642207
0.0640924
0.0638629
0.0635094
0.0630044
0.0623132
0.0613915
0.0601806
0.0586024
0.0565507
0.0538798
0.0503853
0.045769
0.0395364
0.0304959
0.0131923
0.0674042
0.0674345
0.0674351
0.0673852
0.0672662
0.0670595
0.0667441
0.0662945
0.0656781
0.0648522
0.0637588
0.0623182
0.0604169
0.0578908
0.0544963
0.0498597
0.043356
0.0335732
0.0145106
0.0712574
0.0712724
0.0712634
0.0712139
0.0711086
0.0709314
0.0706641
0.0702846
0.0697639
0.0690636
0.0681301
0.0668871
0.065221
0.0629574
0.0598173
0.0553363
0.0486874
0.0380523
0.0164667
0.0758641
0.0758658
0.0758496
0.0758036
0.075716
0.0755742
0.0753635
0.075066
0.0746582
0.0741086
0.0733724
0.072384
0.0710413
0.0691781
0.0665048
0.0624839
0.0560334
0.044623
0.0194132
0.0813368
0.0813287
0.0813091
0.0812704
0.0812046
0.0811025
0.0809536
0.0807451
0.0804605
0.0800771
0.0795629
0.0788701
0.0779225
0.0765893
0.0746243
0.071508
0.0659904
0.0545306
0.0242656
0.0878149
0.0878026
0.0877849
0.087758
0.087717
0.0876567
0.0875709
0.0874523
0.0872914
0.0870758
0.0867878
0.0864017
0.0858767
0.085143
0.0840638
0.0823178
0.0789413
0.0700445
0.0354965
0.0954717
0.0954636
0.0954547
0.0954442
0.0954302
0.0954112
0.0953853
0.0953501
0.0953031
0.0952409
0.095159
0.0950514
0.0949103
0.0947252
0.0944846
0.0941816
0.0938224
0.0932531
0.0865124
)
;

boundaryField
{
    leftWall
    {
        type            kqRWallFunction;
        value           nonuniform List<scalar> 
50
(
0.1
0.1
0.1
0.1
0.1
0.1
0.1
0.1
0.1
0.1
0.1
0.1
0.1
0.1
0.1
0.1
0.1
0.1
0.1
0.1
0.1
0.1
0.1
0.1
0.1
0.1
0.1
0.1
0.0185707
0.00648346
0.0065886
0.00752161
0.00826242
0.00882627
0.00926037
0.00960017
0.00987422
0.0101086
0.0103303
0.0105708
0.0108699
0.0112811
0.0118775
0.0127583
0.0140616
0.0159936
0.0189147
0.0236212
0.0326393
0.0549928
)
;
    }
    rightWall
    {
        type            kqRWallFunction;
        value           nonuniform List<scalar> 
50
(
0.00168923
0.0031295
0.00414477
0.0049644
0.00564623
0.00623604
0.00676354
0.00724677
0.00794507
0.00866994
0.00921253
0.00962088
0.00992863
0.0101598
0.0103323
0.0104598
0.010553
0.0106203
0.0106684
0.0107024
0.010726
0.0107423
0.0107535
0.010761
0.0107661
0.0107696
0.010772
0.0107737
0.0107753
0.0107769
0.0107789
0.0107819
0.0107867
0.0107943
0.0108068
0.0108271
0.0108603
0.0109145
0.0110027
0.0111455
0.0113754
0.0117412
0.0123141
0.0131923
0.0145106
0.0164667
0.0194132
0.0242656
0.0354965
0.0865124
)
;
    }
    lowerWall
    {
        type            kqRWallFunction;
        value           nonuniform List<scalar> 
62
(
0.1
0.1
0.1
0.1
0.1
0.1
0.1
0.1
0.1
0.1
0.1
0.1
0.1
0.00733443
0.00306948
0.00409659
0.00474261
0.00508305
0.00516433
0.00496761
0.00441287
0.00332409
0.00125413
0.00125413
0.0030654
0.00423908
0.0052299
0.00617581
0.00726958
0.00899198
0.0129195
0.01522
0.0131269
0.0133375
0.0160147
0.00138955
0.00347334
0.00484072
0.00603143
0.00718886
0.00853174
0.0105929
0.0149779
0.00138955
0.00389635
0.00528375
0.00611492
0.00662787
0.00694693
0.00713822
0.00723699
0.00726155
0.00722008
0.00711381
0.00693854
0.00668513
0.00633902
0.00587814
0.00526733
0.00444323
0.00326751
0.00168923
)
;
    }
    atmosphere
    {
        type            inletOutlet;
        inletValue      uniform 0.1;
        value           uniform 0.1;
    }
    defaultFaces
    {
        type            empty;
    }
}


// ************************************************************************* //
