/*--------------------------------*- C++ -*----------------------------------*\
| =========                 |                                                 |
| \\      /  F ield         | OpenFOAM: The Open Source CFD Toolbox           |
|  \\    /   O peration     | Version:  2406                                  |
|   \\  /    A nd           | Website:  www.openfoam.com                      |
|    \\/     M anipulation  |                                                 |
\*---------------------------------------------------------------------------*/
FoamFile
{
    version     2.0;
    format      ascii;
    arch        "LSB;label=32;scalar=64";
    class       volScalarField;
    location    "0.7";
    object      k;
}
// * * * * * * * * * * * * * * * * * * * * * * * * * * * * * * * * * * * * * //

dimensions      [0 2 -2 0 0 0 0];

internalField   nonuniform List<scalar> 
2268
(
0.0016289
0.00347677
0.00484871
0.00582978
0.00657259
0.00714966
0.00760238
0.00795728
0.00823253
0.00844101
0.00859179
0.00869083
0.00874116
0.00874277
0.0086919
0.00857981
0.00839039
0.00809563
0.00764757
0.0069637
0.00590231
0.00421665
0.00140185
0.00317846
0.00798769
0.0108765
0.012968
0.0145589
0.0157962
0.0167667
0.017527
0.0181164
0.0185626
0.0188853
0.0190975
0.0192058
0.0192102
0.0191028
0.0188652
0.0184634
0.0178391
0.0168935
0.0154587
0.0132501
0.00978045
0.00363887
0.00434715
0.0105358
0.0140789
0.0166497
0.018616
0.020151
0.0213581
0.0223057
0.0230417
0.0236002
0.0240055
0.0242736
0.0244127
0.0244232
0.0242958
0.0240086
0.0235218
0.0227671
0.0216293
0.0199128
0.0172793
0.0130961
0.00522064
0.00529109
0.012457
0.0164136
0.0192742
0.0214702
0.0231907
0.0245478
0.0256159
0.0264476
0.0270806
0.0275419
0.0278493
0.0280123
0.0280317
0.0278981
0.0275889
0.0270626
0.026249
0.0250296
0.0232011
0.0203938
0.0158248
0.00659281
0.00606482
0.0140405
0.0183158
0.0213855
0.0237459
0.0256009
0.0270683
0.0282266
0.029131
0.0298218
0.0303276
0.0306677
0.0308526
0.0308838
0.0307527
0.0304373
0.0298976
0.0290657
0.0278277
0.0259842
0.0231485
0.0183793
0.00789207
0.00671508
0.0153903
0.0199354
0.0231724
0.0256615
0.0276221
0.0291772
0.0304082
0.0313724
0.0321116
0.0326558
0.0330253
0.0332316
0.0332775
0.0331554
0.0328453
0.0323103
0.0314883
0.0302752
0.0284865
0.0257403
0.0209693
0.00933826
0.00727244
0.016561
0.0213445
0.0247241
0.0273203
0.0293682
0.0309965
0.032289
0.0333046
0.0340862
0.0346649
0.035062
0.0352902
0.0353532
0.0352454
0.0349494
0.0344328
0.0336413
0.032485
0.0308041
0.0282567
0.0237706
0.0115155
0.00775685
0.0175871
0.0225854
0.0260913
0.0287803
0.0309034
0.0325951
0.0339412
0.0350023
0.0358222
0.0364329
0.0368567
0.0371071
0.0371896
0.0371004
0.0368254
0.0363375
0.0355915
0.034514
0.0329779
0.030718
0.0269031
0.0164568
0.00148586
0.00446963
0.00617827
0.00720312
0.00782841
0.00820965
0.00843138
0.00853903
0.00855621
0.00849363
0.00835352
0.00813154
0.00781731
0.00739345
0.00683277
0.00609164
0.00509297
0.00367461
0.00176908
0.00382984
0.0102943
0.0138196
0.0159562
0.0172702
0.0180756
0.0185452
0.0187729
0.0188083
0.0186737
0.0183737
0.0178986
0.0172258
0.0163177
0.015116
0.0135281
0.0113957
0.00839862
0.00337604
0.00543814
0.0137115
0.0179514
0.0204982
0.0220708
0.0230392
0.0236046
0.0238765
0.0239127
0.0237395
0.0233616
0.022767
0.0219276
0.0207972
0.0193048
0.0173396
0.0147135
0.0110333
0.00455586
0.00684656
0.0164975
0.0211029
0.0238118
0.0254864
0.0265229
0.0271287
0.0274161
0.0274445
0.0272406
0.0268086
0.0261344
0.0251866
0.0239142
0.0222393
0.0200414
0.0171155
0.0130063
0.0055174
0.00819485
0.0190886
0.0238566
0.0265835
0.0282704
0.0293205
0.0299345
0.03022
0.0302339
0.0300013
0.0295246
0.0287881
0.027758
0.02638
0.0245719
0.0222066
0.0190647
0.0146285
0.00630907
0.00972471
0.0216917
0.0264154
0.0290476
0.030683
0.0317088
0.0323083
0.0325792
0.0325729
0.0323112
0.0317946
0.0310053
0.0299075
0.0284446
0.0265311
0.0240346
0.020721
0.0160106
0.00697542
0.0120549
0.0244625
0.028867
0.031306
0.0328426
0.0338164
0.0343844
0.0346307
0.0345992
0.0343075
0.0337534
0.0329171
0.031761
0.0302264
0.0282253
0.0256198
0.0221608
0.0172094
0.00754673
0.0171117
0.0274873
0.0312351
0.0334058
0.0348109
0.035713
0.0362371
0.036451
0.0363902
0.0360674
0.0354772
0.0345977
0.0333896
0.0317924
0.0297154
0.0270155
0.0234285
0.0182602
0.00804321
0.00842221
0.0190033
0.0243067
0.0279912
0.0308095
0.0330367
0.0348159
0.036237
0.0373624
0.0382373
0.0388951
0.0393595
0.0396458
0.0397616
0.0397069
0.0394731
0.0390418
0.038383
0.03745
0.0361689
0.0344074
0.0318693
0.0276703
0.00911794
0.0204975
0.0261407
0.0300282
0.0329926
0.0353364
0.0372138
0.0387198
0.0399196
0.0408603
0.0415769
0.0420948
0.0424321
0.0425997
0.0426026
0.0424396
0.042104
0.0415837
0.0408616
0.0399161
0.0387202
0.037238
0.0354259
0.00966143
0.0216708
0.0275935
0.0316534
0.0347438
0.0371886
0.0391516
0.0407323
0.0419985
0.0429993
0.0437712
0.0443417
0.044731
0.0449535
0.0450186
0.0449316
0.0446949
0.0443094
0.0437772
0.0431052
0.0423115
0.0414375
0.040575
0.0100885
0.0225968
0.0287494
0.032956
0.0361561
0.0386902
0.0407293
0.0423773
0.0437041
0.0447606
0.045585
0.0462065
0.0466475
0.0469252
0.0470528
0.0470405
0.0468972
0.0466321
0.0462574
0.0457921
0.0452669
0.0447313
0.0442621
0.0104241
0.023328
0.0296692
0.0340004
0.0372963
0.0399095
0.0420172
0.0437262
0.0451087
0.0462172
0.0470912
0.0477615
0.0482526
0.0485839
0.0487714
0.048829
0.0487696
0.048607
0.0483581
0.048045
0.0476982
0.0473583
0.0470763
0.010687
0.0239039
0.0303995
0.0348361
0.0382152
0.0408986
0.0430678
0.0448323
0.0462661
0.0474228
0.0483434
0.04906
0.0495985
0.0499804
0.0502236
0.0503444
0.0503582
0.0502811
0.0501313
0.0499304
0.0497048
0.0494853
0.0493054
0.0108916
0.0243551
0.0309767
0.0355021
0.0389531
0.0416984
0.0439228
0.0457376
0.0472182
0.0484194
0.0493832
0.050143
0.0507258
0.0511543
0.0514481
0.051625
0.0517017
0.0516951
0.0516233
0.0515062
0.0513656
0.0512251
0.0511072
0.0110497
0.0247064
0.0314301
0.0360299
0.0395427
0.0423422
0.0446156
0.0464757
0.0479988
0.0492407
0.0502443
0.0510437
0.0516671
0.052138
0.0524772
0.0527032
0.0528334
0.0528848
0.0528748
0.0528212
0.0527422
0.0526562
0.0525792
0.0111706
0.0249775
0.0317837
0.0364455
0.040011
0.0428576
0.0451742
0.0470745
0.0486358
0.0499146
0.0509542
0.0517897
0.0524498
0.0529589
0.0533381
0.0536067
0.0537822
0.0538813
0.0539205
0.0539158
0.0538828
0.053836
0.0537875
0.0112622
0.025185
0.0320573
0.0367703
0.0403803
0.0432675
0.0456217
0.0475576
0.0491529
0.0504645
0.0515366
0.0524044
0.0530973
0.0536401
0.0540545
0.0543596
0.0545733
0.0547117
0.0547905
0.0548241
0.054826
0.0548083
0.0547805
0.0113309
0.0253423
0.0322671
0.0370219
0.0406693
0.043591
0.0459777
0.0479446
0.0495698
0.0509105
0.0520113
0.0529078
0.0536296
0.054202
0.0546468
0.0549833
0.055229
0.0553998
0.0555105
0.0555744
0.0556034
0.0556078
0.0555953
0.0113817
0.0254602
0.0324264
0.0372152
0.0408935
0.0438443
0.0462588
0.0482524
0.0499035
0.0512697
0.0523956
0.0533172
0.0540643
0.0546623
0.0551332
0.0554963
0.0557688
0.0559664
0.0561029
0.0561909
0.0562412
0.0562626
0.0562619
0.011419
0.0255478
0.0325462
0.0373624
0.041066
0.044041
0.0464789
0.0484952
0.0501686
0.0515567
0.0527043
0.0536475
0.0544165
0.0550365
0.0555297
0.0559152
0.0562101
0.0564297
0.0565872
0.0566945
0.0567615
0.0567962
0.0568046
0.011446
0.0256121
0.0326355
0.0374733
0.0411975
0.0441924
0.0466497
0.0486852
0.0503774
0.0517841
0.0529503
0.0539121
0.0546996
0.0553383
0.0558503
0.0562546
0.0565681
0.0568056
0.0569802
0.057103
0.0571833
0.0572285
0.0572439
0.0114653
0.0256588
0.0327013
0.0375561
0.0412968
0.0443078
0.0467812
0.0488325
0.0505404
0.0519628
0.0531446
0.054122
0.0549252
0.0555797
0.0561073
0.0565272
0.056856
0.0571083
0.0572967
0.0574319
0.0575228
0.0575762
0.0575971
0.011479
0.0256925
0.0327493
0.0376174
0.041371
0.044395
0.0468814
0.0489457
0.0506666
0.0521019
0.0532967
0.0542872
0.0551034
0.0557709
0.0563116
0.0567443
0.0570856
0.0573499
0.0575494
0.0576945
0.0577938
0.0578538
0.057879
0.0114886
0.0257165
0.0327841
0.0376623
0.041426
0.0444603
0.046957
0.0490318
0.0507633
0.0522093
0.0534147
0.0544159
0.0552429
0.0559211
0.0564724
0.0569156
0.0572671
0.057541
0.0577494
0.0579025
0.0580085
0.0580736
0.0581021
0.0114953
0.0257334
0.032809
0.0376948
0.0414664
0.0445087
0.0470137
0.0490968
0.0508367
0.0522913
0.0535054
0.0545153
0.055351
0.056038
0.0565979
0.0570496
0.0574092
0.0576908
0.0579064
0.0580657
0.0581769
0.0582461
0.0582773
0.0114999
0.0257453
0.0328267
0.0377182
0.0414958
0.0445443
0.0470556
0.0491453
0.050892
0.0523534
0.0535745
0.0545913
0.0554341
0.056128
0.0566949
0.0571533
0.0575195
0.0578072
0.0580283
0.0581926
0.058308
0.0583803
0.0584135
0.0115031
0.0257535
0.0328391
0.0377349
0.0415169
0.0445702
0.0470864
0.0491813
0.0509332
0.0524
0.0536265
0.0546489
0.0554972
0.0561967
0.056769
0.0572328
0.0576041
0.0578967
0.0581222
0.0582904
0.058409
0.0584837
0.0585185
0.0115052
0.0257591
0.0328478
0.0377467
0.041532
0.0445888
0.0471088
0.0492076
0.0509636
0.0524346
0.0536654
0.0546921
0.0555448
0.0562486
0.0568253
0.0572932
0.0576685
0.0579649
0.0581938
0.058365
0.058486
0.0585627
0.0585987
0.0115066
0.0257629
0.0328537
0.037755
0.0415427
0.0446022
0.047125
0.0492268
0.0509859
0.05246
0.0536941
0.0547242
0.0555803
0.0562875
0.0568674
0.0573387
0.0577171
0.0580163
0.0582479
0.0584214
0.0585443
0.0586224
0.0586593
0.0115076
0.0257655
0.0328579
0.0377607
0.0415502
0.0446116
0.0471366
0.0492405
0.051002
0.0524786
0.0537152
0.0547478
0.0556065
0.0563163
0.0568988
0.0573725
0.0577533
0.0580547
0.0582883
0.0584636
0.0585879
0.0586671
0.0587047
0.0115082
0.0257673
0.0328607
0.0377646
0.0415555
0.0446183
0.0471448
0.0492504
0.0510136
0.052492
0.0537305
0.0547651
0.0556257
0.0563374
0.0569219
0.0573974
0.05778
0.0580832
0.0583183
0.0584948
0.0586203
0.0587002
0.0587384
0.0115086
0.0257685
0.0328625
0.0377673
0.0415591
0.0446229
0.0471505
0.0492573
0.0510218
0.0525016
0.0537415
0.0547775
0.0556396
0.0563528
0.0569387
0.0574157
0.0577996
0.058104
0.0583403
0.0585178
0.058644
0.0587246
0.0587632
0.0115089
0.0257692
0.0328638
0.0377692
0.0415616
0.0446261
0.0471545
0.0492622
0.0510276
0.0525084
0.0537493
0.0547864
0.0556496
0.0563639
0.0569509
0.0574289
0.0578138
0.0581191
0.0583562
0.0585345
0.0586613
0.0587424
0.0587812
0.0115091
0.0257697
0.0328647
0.0377704
0.0415632
0.0446283
0.0471573
0.0492656
0.0510317
0.0525132
0.0537549
0.0547928
0.0556567
0.0563718
0.0569596
0.0574384
0.057824
0.05813
0.0583677
0.0585465
0.0586738
0.0587552
0.0587942
0.0115092
0.0257701
0.0328652
0.0377712
0.0415644
0.0446298
0.0471592
0.049268
0.0510346
0.0525166
0.0537588
0.0547972
0.0556617
0.0563774
0.0569657
0.0574451
0.0578313
0.0581378
0.0583759
0.0585551
0.0586827
0.0587643
0.0588035
0.0115093
0.0257703
0.0328656
0.0377718
0.0415651
0.0446308
0.0471605
0.0492696
0.0510365
0.0525189
0.0537615
0.0548003
0.0556652
0.0563813
0.0569701
0.0574499
0.0578364
0.0581433
0.0583818
0.0585612
0.058689
0.0587708
0.0588101
0.0115093
0.0257704
0.0328658
0.0377721
0.0415656
0.0446315
0.0471614
0.0492707
0.0510378
0.0525205
0.0537634
0.0548025
0.0556677
0.0563841
0.0569731
0.0574532
0.05784
0.0581471
0.0583858
0.0585655
0.0586935
0.0587753
0.0588147
0.0115093
0.0257705
0.032866
0.0377724
0.041566
0.0446319
0.0471619
0.0492714
0.0510387
0.0525216
0.0537646
0.054804
0.0556694
0.056386
0.0569752
0.0574555
0.0578425
0.0581498
0.0583887
0.0585684
0.0586966
0.0587785
0.0588179
0.0115094
0.0257706
0.0328661
0.0377725
0.0415662
0.0446322
0.0471623
0.0492719
0.0510393
0.0525223
0.0537655
0.054805
0.0556705
0.0563873
0.0569767
0.0574571
0.0578442
0.0581516
0.0583906
0.0585705
0.0586987
0.0587807
0.0588201
0.0115094
0.0257706
0.0328661
0.0377726
0.0415663
0.0446324
0.0471626
0.0492722
0.0510398
0.0525228
0.0537661
0.0548056
0.0556713
0.0563882
0.0569776
0.0574581
0.0578454
0.0581529
0.0583919
0.0585719
0.0587001
0.0587822
0.0588216
0.0115094
0.0257706
0.0328662
0.0377727
0.0415664
0.0446326
0.0471628
0.0492724
0.05104
0.0525231
0.0537665
0.0548061
0.0556718
0.0563887
0.0569783
0.0574589
0.0578462
0.0581537
0.0583928
0.0585728
0.0587011
0.0587832
0.0588227
0.0115094
0.0257706
0.0328662
0.0377727
0.0415665
0.0446326
0.0471629
0.0492726
0.0510402
0.0525233
0.0537667
0.0548064
0.0556722
0.0563891
0.0569787
0.0574593
0.0578467
0.0581543
0.0583935
0.0585735
0.0587018
0.0587839
0.0588234
0.0115094
0.0257706
0.0328662
0.0377728
0.0415665
0.0446327
0.0471629
0.0492727
0.0510403
0.0525235
0.0537669
0.0548066
0.0556724
0.0563894
0.056979
0.0574597
0.0578471
0.0581547
0.0583939
0.0585739
0.0587022
0.0587843
0.0588238
0.0115094
0.0257706
0.0328662
0.0377728
0.0415666
0.0446327
0.047163
0.0492727
0.0510404
0.0525236
0.053767
0.0548067
0.0556725
0.0563896
0.0569792
0.0574599
0.0578473
0.0581549
0.0583941
0.0585742
0.0587025
0.0587846
0.0588241
0.0115094
0.0257706
0.0328662
0.0377728
0.0415666
0.0446328
0.047163
0.0492728
0.0510404
0.0525236
0.0537671
0.0548068
0.0556726
0.0563897
0.0569794
0.05746
0.0578475
0.0581551
0.0583943
0.0585744
0.0587027
0.0587848
0.0588243
0.0115094
0.0257707
0.0328663
0.0377728
0.0415666
0.0446328
0.047163
0.0492728
0.0510405
0.0525237
0.0537671
0.0548069
0.0556727
0.0563898
0.0569794
0.0574601
0.0578476
0.0581552
0.0583944
0.0585745
0.0587028
0.0587849
0.0588244
0.0115094
0.0257707
0.0328663
0.0377728
0.0415666
0.0446328
0.047163
0.0492728
0.0510405
0.0525237
0.0537672
0.0548069
0.0556727
0.0563898
0.0569795
0.0574602
0.0578476
0.0581553
0.0583945
0.0585745
0.0587029
0.058785
0.0588245
0.0115094
0.0257707
0.0328663
0.0377728
0.0415666
0.0446328
0.0471631
0.0492728
0.0510405
0.0525237
0.0537672
0.0548069
0.0556728
0.0563898
0.0569795
0.0574602
0.0578476
0.0581553
0.0583945
0.0585746
0.0587029
0.058785
0.0588245
0.0115094
0.0257707
0.0328663
0.0377728
0.0415666
0.0446328
0.0471631
0.0492728
0.0510405
0.0525237
0.0537672
0.0548069
0.0556728
0.0563898
0.0569795
0.0574602
0.0578477
0.0581553
0.0583945
0.0585746
0.0587029
0.058785
0.0588245
0.0189253
0.0160467
0.0160198
0.0187902
0.033897
0.0332752
0.0332594
0.0338501
0.040103
0.0399207
0.0399082
0.0400661
0.0440454
0.0439649
0.0439525
0.0440082
0.0469518
0.0469041
0.0468912
0.046913
0.0492245
0.0491913
0.0491778
0.0491839
0.0510508
0.0510254
0.0510114
0.0510084
0.0525382
0.0525176
0.0525029
0.052494
0.0537569
0.0537394
0.0537242
0.0537111
0.0547573
0.0547419
0.0547262
0.0547098
0.0555775
0.0555637
0.0555474
0.0555286
0.0562481
0.0562353
0.0562186
0.0561979
0.0567938
0.0567818
0.0567648
0.0567424
0.0572354
0.057224
0.0572066
0.057183
0.0575904
0.0575795
0.0575618
0.0575371
0.0578737
0.0578631
0.0578451
0.0578196
0.0580979
0.0580875
0.0580693
0.0580431
0.0582738
0.0582636
0.0582452
0.0582185
0.0584107
0.0584006
0.0583821
0.0583549
0.0585162
0.0585062
0.0584875
0.05846
0.0585967
0.0585868
0.058568
0.0585402
0.0586576
0.0586477
0.0586289
0.0586009
0.0587032
0.0586933
0.0586744
0.0586463
0.058737
0.0587272
0.0587083
0.05868
0.0587619
0.0587521
0.0587331
0.0587048
0.05878
0.0587702
0.0587512
0.0587228
0.0587931
0.0587833
0.0587642
0.0587358
0.0588024
0.0587926
0.0587736
0.058745
0.058809
0.0587992
0.0587802
0.0587516
0.0588137
0.0588039
0.0587848
0.0587562
0.0588169
0.0588071
0.058788
0.0587595
0.0588191
0.0588093
0.0587903
0.0587617
0.0588207
0.0588109
0.0587918
0.0587632
0.0588217
0.0588119
0.0587928
0.0587642
0.0588224
0.0588126
0.0587935
0.0587649
0.0588228
0.0588131
0.0587939
0.0587654
0.0588231
0.0588133
0.0587942
0.0587656
0.0588233
0.0588135
0.0587944
0.0587658
0.0588234
0.0588136
0.0587945
0.0587659
0.0588235
0.0588137
0.0587946
0.058766
0.0588235
0.0588137
0.0587946
0.058766
0.0588235
0.0588137
0.0587946
0.058766
0.0279308
0.0322148
0.034761
0.0364698
0.0376423
0.0384127
0.038854
0.0390082
0.0388964
0.0385232
0.0378779
0.0369352
0.0356531
0.0339682
0.031786
0.0289548
0.0251873
0.0197111
0.00872487
0.0354569
0.0373679
0.0388837
0.0400515
0.0409082
0.041481
0.0417901
0.0418475
0.0416567
0.0412111
0.0404929
0.039472
0.0381023
0.0363169
0.0340157
0.031036
0.0270632
0.0212424
0.00943701
0.0405358
0.0414451
0.0423387
0.0431046
0.043693
0.0440812
0.0442579
0.0442147
0.0439415
0.0434221
0.0426327
0.0415381
0.0400888
0.0382141
0.0358085
0.0326998
0.0285514
0.0224453
0.00999278
0.0441996
0.0446726
0.0452019
0.0456865
0.046063
0.0462917
0.0463462
0.046206
0.0458515
0.0452597
0.0444012
0.043237
0.0417141
0.0397582
0.0372592
0.0340369
0.0297374
0.0233952
0.0104292
0.0470028
0.0472606
0.0475701
0.0478597
0.0480733
0.0481694
0.048116
0.0478864
0.047455
0.0467938
0.0458696
0.0446398
0.0430484
0.0410182
0.0384351
0.0351125
0.0306835
0.024146
0.0107719
0.0492247
0.0493617
0.0495314
0.0496835
0.0497726
0.0497604
0.0496141
0.0493042
0.0488019
0.0480759
0.0470899
0.0457988
0.0441442
0.0420461
0.0393874
0.0359764
0.0314366
0.024738
0.0110404
0.0510208
0.0510826
0.0511581
0.0512107
0.051204
0.0511038
0.0508785
0.0504979
0.0499315
0.0491459
0.0481028
0.0467551
0.0450423
0.0428826
0.0401563
0.036668
0.0320337
0.0252029
0.0112495
0.0524878
0.052499
0.0525078
0.0524866
0.0524052
0.0522334
0.0519414
0.0514992
0.0508756
0.0500361
0.0489409
0.0475415
0.045776
0.0435609
0.0407746
0.037219
0.0325048
0.0255657
0.0114112
0.0536917
0.0536667
0.0536267
0.0535493
0.053409
0.0531788
0.0528306
0.0523353
0.0516613
0.0507736
0.0496315
0.0481855
0.0463725
0.044108
0.041269
0.0376553
0.0328739
0.0258466
0.011535
0.0546807
0.0546289
0.0545519
0.0544309
0.0542436
0.0539656
0.0535703
0.0530294
0.0523114
0.0513812
0.0501974
0.0487098
0.0468548
0.0445468
0.0416619
0.0379985
0.0331609
0.0260625
0.011629
0.0554921
0.0554198
0.0553142
0.0551589
0.0549339
0.0546166
0.0541819
0.053602
0.0528461
0.0518786
0.0506582
0.049134
0.0472421
0.0448962
0.0419718
0.0382664
0.0333823
0.0262268
0.0116997
0.0561556
0.0560673
0.0559393
0.0557567
0.0555012
0.0551517
0.054684
0.0540712
0.0532826
0.052283
0.0510307
0.0494748
0.0475509
0.0451723
0.0422143
0.0384738
0.0335516
0.0263506
0.0117522
0.0566955
0.0565947
0.056449
0.0562445
0.0559643
0.0555883
0.0550932
0.0544526
0.0536364
0.0526093
0.0513296
0.0497464
0.0477951
0.0453889
0.0424027
0.0386329
0.0336798
0.0264432
0.0117908
0.0571324
0.0570217
0.0568617
0.0566398
0.0563395
0.0559418
0.055424
0.0547603
0.0539207
0.0528703
0.0515674
0.0499612
0.0479867
0.0455572
0.0425476
0.038754
0.0337761
0.0265115
0.0118189
0.0574836
0.0573649
0.0571937
0.0569576
0.0566411
0.0562257
0.0556892
0.0550063
0.0541472
0.0530773
0.051755
0.0501294
0.0481356
0.045687
0.0426581
0.0388452
0.0338477
0.0265616
0.0118392
0.0577637
0.0576387
0.0574584
0.057211
0.0568815
0.0564517
0.0558999
0.0552012
0.0543261
0.0532401
0.0519017
0.05026
0.0482504
0.045786
0.0427416
0.0389133
0.0339004
0.0265979
0.0118536
0.0579854
0.0578554
0.0576679
0.0574115
0.0570714
0.05663
0.0560659
0.0553543
0.0544661
0.0533669
0.0520153
0.0503606
0.048338
0.045861
0.0428041
0.0389637
0.0339389
0.026624
0.0118638
0.0581593
0.0580253
0.0578321
0.0575685
0.0572201
0.0567693
0.0561953
0.0554733
0.0545746
0.0534646
0.0521024
0.0504372
0.0484043
0.0459171
0.0428505
0.0390007
0.0339667
0.0266426
0.011871
0.0582945
0.0581573
0.0579597
0.0576904
0.0573354
0.0568772
0.0562953
0.0555651
0.0546578
0.0535394
0.0521686
0.050495
0.0484539
0.0459588
0.0428846
0.0390275
0.0339866
0.0266556
0.0118759
0.0583987
0.058259
0.0580579
0.0577842
0.0574239
0.05696
0.0563718
0.055635
0.0547211
0.0535959
0.0522184
0.0505382
0.0484907
0.0459895
0.0429094
0.0390468
0.0340008
0.0266648
0.0118793
0.0584782
0.0583366
0.0581327
0.0578556
0.0574913
0.0570228
0.0564297
0.0556879
0.0547687
0.0536382
0.0522556
0.0505702
0.0485178
0.0460119
0.0429273
0.0390606
0.0340107
0.0266711
0.0118816
0.0585383
0.0583953
0.0581892
0.0579094
0.057542
0.0570701
0.0564732
0.0557274
0.0548042
0.0536697
0.052283
0.0505937
0.0485375
0.046028
0.0429401
0.0390703
0.0340177
0.0266755
0.0118832
0.0585833
0.0584391
0.0582315
0.0579497
0.0575799
0.0571052
0.0565055
0.0557567
0.0548304
0.0536928
0.0523031
0.0506108
0.0485518
0.0460396
0.0429492
0.0390772
0.0340225
0.0266785
0.0118843
0.0586166
0.0584716
0.0582628
0.0579794
0.0576078
0.0571312
0.0565293
0.0557782
0.0548496
0.0537096
0.0523176
0.0506231
0.048562
0.0460478
0.0429556
0.0390819
0.0340258
0.0266805
0.011885
0.0586411
0.0584955
0.0582858
0.0580013
0.0576283
0.0571502
0.0565466
0.0557938
0.0548635
0.0537218
0.052328
0.0506319
0.0485692
0.0460535
0.04296
0.0390852
0.034028
0.0266818
0.0118854
0.058659
0.0585129
0.0583025
0.0580171
0.0576432
0.0571639
0.0565592
0.0558051
0.0548734
0.0537304
0.0523354
0.0506381
0.0485743
0.0460576
0.0429631
0.0390874
0.0340296
0.0266827
0.0118857
0.0586718
0.0585254
0.0583145
0.0580285
0.0576538
0.0571737
0.0565681
0.0558131
0.0548805
0.0537366
0.0523407
0.0506425
0.0485778
0.0460604
0.0429652
0.039089
0.0340306
0.0266833
0.0118859
0.058681
0.0585343
0.0583231
0.0580366
0.0576614
0.0571807
0.0565745
0.0558188
0.0548855
0.0537409
0.0523443
0.0506455
0.0485802
0.0460623
0.0429667
0.03909
0.0340313
0.0266837
0.0118861
0.0586875
0.0585406
0.0583291
0.0580424
0.0576668
0.0571857
0.0565789
0.0558228
0.054889
0.0537439
0.0523469
0.0506476
0.0485819
0.0460636
0.0429676
0.0390907
0.0340317
0.026684
0.0118862
0.0586921
0.0585451
0.0583334
0.0580464
0.0576705
0.0571891
0.0565821
0.0558256
0.0548914
0.053746
0.0523486
0.050649
0.0485831
0.0460645
0.0429683
0.0390911
0.034032
0.0266841
0.0118862
0.0586953
0.0585482
0.0583363
0.0580492
0.0576731
0.0571915
0.0565842
0.0558275
0.0548931
0.0537474
0.0523498
0.05065
0.0485838
0.046065
0.0429687
0.0390914
0.0340322
0.0266843
0.0118862
0.0586975
0.0585503
0.0583384
0.0580511
0.0576749
0.0571931
0.0565857
0.0558288
0.0548942
0.0537484
0.0523506
0.0506507
0.0485844
0.0460654
0.042969
0.0390916
0.0340323
0.0266843
0.0118863
0.058699
0.0585517
0.0583398
0.0580524
0.0576761
0.0571942
0.0565867
0.0558297
0.054895
0.0537491
0.0523512
0.0506511
0.0485847
0.0460657
0.0429692
0.0390918
0.0340324
0.0266844
0.0118863
0.0587
0.0585527
0.0583407
0.0580533
0.057677
0.057195
0.0565874
0.0558303
0.0548955
0.0537495
0.0523515
0.0506514
0.0485849
0.0460659
0.0429693
0.0390919
0.0340325
0.0266844
0.0118863
0.0587006
0.0585534
0.0583413
0.0580539
0.0576775
0.0571955
0.0565878
0.0558307
0.0548959
0.0537498
0.0523518
0.0506516
0.0485851
0.046066
0.0429694
0.0390919
0.0340325
0.0266844
0.0118863
0.0587011
0.0585538
0.0583417
0.0580543
0.0576779
0.0571958
0.0565881
0.0558309
0.0548961
0.05375
0.0523519
0.0506517
0.0485852
0.0460661
0.0429695
0.0390919
0.0340325
0.0266844
0.0118863
0.0587014
0.0585541
0.058342
0.0580545
0.0576781
0.057196
0.0565883
0.0558311
0.0548963
0.0537501
0.052352
0.0506518
0.0485852
0.0460661
0.0429695
0.039092
0.0340326
0.0266844
0.0118863
0.0587016
0.0585543
0.0583422
0.0580547
0.0576783
0.0571962
0.0565884
0.0558312
0.0548963
0.0537502
0.0523521
0.0506518
0.0485853
0.0460661
0.0429695
0.039092
0.0340326
0.0266844
0.0118863
0.0587017
0.0585544
0.0583423
0.0580548
0.0576784
0.0571963
0.0565885
0.0558313
0.0548964
0.0537502
0.0523521
0.0506519
0.0485853
0.0460662
0.0429695
0.039092
0.0340326
0.0266844
0.0118863
0.0587017
0.0585544
0.0583424
0.0580549
0.0576784
0.0571963
0.0565886
0.0558313
0.0548964
0.0537503
0.0523522
0.0506519
0.0485853
0.0460662
0.0429695
0.039092
0.0340326
0.0266844
0.0118863
0.0587017
0.0585545
0.0583424
0.0580549
0.0576785
0.0571964
0.0565886
0.0558314
0.0548965
0.0537503
0.0523522
0.0506519
0.0485853
0.0460662
0.0429695
0.039092
0.0340326
0.0266844
0.0118863
0.0587017
0.0585545
0.0583424
0.0580549
0.0576785
0.0571964
0.0565886
0.0558314
0.0548965
0.0537503
0.0523522
0.0506519
0.0485853
0.0460662
0.0429695
0.039092
0.0340326
0.0266844
0.0118863
)
;

boundaryField
{
    leftWall
    {
        type            kqRWallFunction;
        value           nonuniform List<scalar> 
50
(
0.0016289
0.00317846
0.00434715
0.00529109
0.00606482
0.00671508
0.00727244
0.00775685
0.00842221
0.00911794
0.00966143
0.0100885
0.0104241
0.010687
0.0108916
0.0110497
0.0111706
0.0112622
0.0113309
0.0113817
0.011419
0.011446
0.0114653
0.011479
0.0114886
0.0114953
0.0114999
0.0115031
0.0115052
0.0115066
0.0115076
0.0115082
0.0115086
0.0115089
0.0115091
0.0115092
0.0115093
0.0115093
0.0115093
0.0115094
0.0115094
0.0115094
0.0115094
0.0115094
0.0115094
0.0115094
0.0115094
0.0115094
0.0115094
0.0115094
)
;
    }
    rightWall
    {
        type            kqRWallFunction;
        value           nonuniform List<scalar> 
50
(
0.00176908
0.00337604
0.00455586
0.0055174
0.00630907
0.00697542
0.00754673
0.00804321
0.00872487
0.00943701
0.00999278
0.0104292
0.0107719
0.0110404
0.0112495
0.0114112
0.011535
0.011629
0.0116997
0.0117522
0.0117908
0.0118189
0.0118392
0.0118536
0.0118638
0.011871
0.0118759
0.0118793
0.0118816
0.0118832
0.0118843
0.011885
0.0118854
0.0118857
0.0118859
0.0118861
0.0118862
0.0118862
0.0118862
0.0118863
0.0118863
0.0118863
0.0118863
0.0118863
0.0118863
0.0118863
0.0118863
0.0118863
0.0118863
0.0118863
)
;
    }
    lowerWall
    {
        type            kqRWallFunction;
        value           nonuniform List<scalar> 
62
(
0.0016289
0.00347677
0.00484871
0.00582978
0.00657259
0.00714966
0.00760238
0.00795728
0.00823253
0.00844101
0.00859179
0.00869083
0.00874116
0.00874277
0.0086919
0.00857981
0.00839039
0.00809563
0.00764757
0.0069637
0.00590231
0.00421665
0.00140185
0.00140185
0.00363887
0.00522064
0.00659281
0.00789207
0.00933826
0.0115155
0.0164568
0.0189253
0.0160467
0.0160198
0.0187902
0.00148586
0.00382984
0.00543814
0.00684656
0.00819485
0.00972471
0.0120549
0.0171117
0.00148586
0.00446963
0.00617827
0.00720312
0.00782841
0.00820965
0.00843138
0.00853903
0.00855621
0.00849363
0.00835352
0.00813154
0.00781731
0.00739345
0.00683277
0.00609164
0.00509297
0.00367461
0.00176908
)
;
    }
    atmosphere
    {
        type            inletOutlet;
        inletValue      uniform 0.1;
        value           nonuniform List<scalar> 
46
(
0.0115094
0.0257707
0.0328663
0.0377728
0.0415666
0.0446328
0.0471631
0.0492728
0.0510405
0.0525237
0.0537672
0.0548069
0.0556728
0.0563898
0.0569795
0.0574602
0.0578477
0.0581553
0.0583945
0.0585746
0.0587029
0.058785
0.0588245
0.0588235
0.0588137
0.0587946
0.058766
0.0587017
0.0585545
0.0583424
0.0580549
0.0576785
0.0571964
0.0565886
0.0558314
0.0548965
0.0537503
0.0523522
0.0506519
0.0485853
0.0460662
0.0429695
0.039092
0.0340326
0.0266844
0.0118863
)
;
    }
    defaultFaces
    {
        type            empty;
    }
}


// ************************************************************************* //
