/*--------------------------------*- C++ -*----------------------------------*\
| =========                 |                                                 |
| \\      /  F ield         | OpenFOAM: The Open Source CFD Toolbox           |
|  \\    /   O peration     | Version:  2406                                  |
|   \\  /    A nd           | Website:  www.openfoam.com                      |
|    \\/     M anipulation  |                                                 |
\*---------------------------------------------------------------------------*/
FoamFile
{
    version     2.0;
    format      ascii;
    arch        "LSB;label=32;scalar=64";
    class       volScalarField;
    location    "0.7";
    object      nut;
}
// * * * * * * * * * * * * * * * * * * * * * * * * * * * * * * * * * * * * * //

dimensions      [0 2 -1 0 0 0 0];

internalField   nonuniform List<scalar> 
2268
(
0.000289337
0.000213038
0.000213038
0.000213038
0.000213038
0.000213038
0.000213038
0.000213038
0.000213038
0.000213038
0.000213038
0.000213038
0.000213038
5.73642e-05
3.44731e-05
4.00711e-05
4.32907e-05
4.49205e-05
4.53493e-05
4.45267e-05
4.19923e-05
3.64386e-05
2.23193e-05
0.000450785
0.000254306
0.000232321
0.000225511
0.000222385
0.000220634
0.000219545
0.000218827
0.000218345
0.000218025
0.00021783
0.000217737
0.000217737
3.72462e-05
0.000192831
0.0003056
0.000352037
0.00037447
0.000381236
0.000372207
0.000341073
0.000268663
7.38122e-05
0.000450785
0.000288167
0.000251962
0.000238672
0.000232268
0.000228639
0.000226375
0.000224885
0.000223885
0.000223224
0.000222819
0.000222626
0.000222627
4.45465e-05
0.000289743
0.000507444
0.000609235
0.000659412
0.000675561
0.000657475
0.000591379
0.000438169
8.69927e-05
0.000450785
0.000314823
0.000270613
0.00025196
0.000242449
0.000236938
0.000233468
0.000231176
0.000229635
0.000228616
0.000227992
0.000227696
0.000227696
5.37636e-05
0.000356766
0.000648006
0.000797629
0.000873948
0.000899913
0.000874814
0.000778237
0.00055613
9.68004e-05
0.000450785
0.000335499
0.000287638
0.000264953
0.00025271
0.000245414
0.000240757
0.00023766
0.000235569
0.000234184
0.000233336
0.000232932
0.000232932
6.3022e-05
0.000409563
0.000755805
0.000946276
0.00104703
0.00108353
0.00105418
0.000932466
0.000651253
0.000105364
0.000450785
0.000351572
0.000302834
0.000277373
0.000262866
0.000253958
0.000248176
0.000244294
0.000241659
0.000239907
0.000238832
0.00023832
0.00023832
7.22256e-05
0.000454559
0.00084607
0.00107314
0.00119764
0.00124601
0.00121576
0.00107448
0.000740119
0.000114516
0.000450785
0.000364209
0.000316232
0.000289058
0.00027278
0.000262475
0.000255662
0.000251035
0.000247873
0.000245763
0.000244464
0.000243844
0.000243844
8.14445e-05
0.000495109
0.000927545
0.00118956
0.00133821
0.00140045
0.00137337
0.00121953
0.000836968
0.000127624
0.000450785
0.00037429
0.000327979
0.000299934
0.000282353
0.000270886
0.000263158
0.000257843
0.000254182
0.000251726
0.00025021
0.000249486
0.000249486
9.07546e-05
0.000533336
0.00100598
0.0013034
0.00147761
0.00155627
0.00153731
0.00138183
0.000966229
0.000153281
2.36141e-05
3.98562e-05
4.64811e-05
5.00289e-05
5.20935e-05
5.33333e-05
5.40576e-05
5.44181e-05
5.44888e-05
5.43007e-05
5.38562e-05
5.31354e-05
5.20953e-05
5.06631e-05
4.87181e-05
4.60464e-05
4.22152e-05
3.61131e-05
3.6136e-05
8.79232e-05
0.000313893
0.000401479
0.000446224
0.000471549
0.000486528
0.00049517
0.000499336
0.000499886
0.000497163
0.000491187
0.000481734
0.000468326
0.000450151
0.000425816
0.000392741
0.000345314
0.000267404
8.25987e-05
0.000104144
0.000529303
0.000721955
0.000821114
0.000876848
0.000909595
0.000928361
0.000937241
0.000938087
0.000931623
0.000917914
0.000896532
0.000866565
0.000826441
0.000773434
0.000702357
0.000601679
0.000438664
9.53409e-05
0.000116534
0.000684619
0.00097212
0.00112217
0.00120641
0.00125575
0.00128388
0.00129699
0.00129785
0.00128756
0.00126622
0.00123325
0.00118739
0.00112646
0.00104664
0.000940598
0.000792014
0.000556173
0.000104578
0.000127462
0.000811375
0.00118353
0.00137892
0.00148839
0.00155235
0.00158864
0.00160526
0.00160578
0.0015916
0.00156288
0.00151889
0.00145807
0.00137772
0.0012731
0.00113507
0.000943466
0.000645066
0.000111725
0.000139074
0.000928795
0.00137878
0.00161354
0.00174457
0.00182101
0.00186417
0.00188352
0.00188327
0.00186506
0.00182907
0.00177442
0.00169929
0.00160048
0.0014724
0.0013043
0.00107275
0.000718178
0.000117587
0.000155167
0.00105348
0.001575
0.00184172
0.0019903
0.0020771
0.00212587
0.00214716
0.00214566
0.00212318
0.00207986
0.00201469
0.00192554
0.00180873
0.00165783
0.00146051
0.00119035
0.000782583
0.000122611
0.000184652
0.00121322
0.00178775
0.00207529
0.00223702
0.00233209
0.0023853
0.00240779
0.00240454
0.00237746
0.00232663
0.00225086
0.00214769
0.00201292
0.00183918
0.00161251
0.00130352
0.000842713
0.00012705
0.000450785
0.000387195
0.000344345
0.000315956
0.000296959
0.000284001
0.000275003
0.000268693
0.000264289
0.000261311
0.000259464
0.000258579
0.000258579
0.000105651
0.000591932
0.00113017
0.0014864
0.00170439
0.0018135
0.00181593
0.0016856
0.00136234
0.000788871
0.000450785
0.000399213
0.000361271
0.000333993
0.000314483
0.000300478
0.000290379
0.0002831
0.000277922
0.000274373
0.000272153
0.000271084
0.000271084
0.000124783
0.000654804
0.00126006
0.00168222
0.0019557
0.00211225
0.00216272
0.00210119
0.00191234
0.00159549
0.000450785
0.00040801
0.000374622
0.000349177
0.000330021
0.000315683
0.000304996
0.000297099
0.000291376
0.000287401
0.000284892
0.000283678
0.000283678
0.000142931
0.000705392
0.0013618
0.00183847
0.00216259
0.00236754
0.00247094
0.0024801
0.00240101
0.0022545
0.000450785
0.000414731
0.000385376
0.00036202
0.000343727
0.000329558
0.000318698
0.000310491
0.000304441
0.000300186
0.000297478
0.000296161
0.000296161
0.000160157
0.000747556
0.00144513
0.00196797
0.00233744
0.00258764
0.00274011
0.00280841
0.00280509
0.00274982
0.000450785
0.000420035
0.000394195
0.000372954
0.000355792
0.000342126
0.0003314
0.000323137
0.000316952
0.000312553
0.00030973
0.000308351
0.000308351
0.000176434
0.00078322
0.00151461
0.00207681
0.00248602
0.00277626
0.0029708
0.00308535
0.00313302
0.0031283
0.000450785
0.000424321
0.000401532
0.000382317
0.000366406
0.000353446
0.000343072
0.000334945
0.000328781
0.000324351
0.000321489
0.000320085
0.000320085
0.000191684
0.000813504
0.00157278
0.00216838
0.00261178
0.00293634
0.00316573
0.00331597
0.00339908
0.00342544
0.000450785
0.000427843
0.000407701
0.000390371
0.000375734
0.000363591
0.000353709
0.000345858
0.000339834
0.000335466
0.000332626
0.000331227
0.000331227
0.000205828
0.00083917
0.00162133
0.00224505
0.00271742
0.00307078
0.00332863
0.00350659
0.00361542
0.00366295
0.000450785
0.000430772
0.000412923
0.000397316
0.00038392
0.000372637
0.000363328
0.000355845
0.000350046
0.000345808
0.000343038
0.000341669
0.000341669
0.000218809
0.000860842
0.00166161
0.0023088
0.00280539
0.00318262
0.00346354
0.00366318
0.00379133
0.00385431
0.000450785
0.000433224
0.000417361
0.000403305
0.000391083
0.000380658
0.000371959
0.000364896
0.000359376
0.000355316
0.000352649
0.000351328
0.000351328
0.000230608
0.000879111
0.00169494
0.00236154
0.0028782
0.00327502
0.00357449
0.00379115
0.00393406
0.00400864
0.000450785
0.000435286
0.000421137
0.000408463
0.000397322
0.000387722
0.000379636
0.000373014
0.000367804
0.00036395
0.000361407
0.000360145
0.000360145
0.000241247
0.000894592
0.00172262
0.00240525
0.00293844
0.00335119
0.00366549
0.00389542
0.0040496
0.00413292
0.000450785
0.000437019
0.000424342
0.000412885
0.000402724
0.000393894
0.000386397
0.000380216
0.000375323
0.000371687
0.00036928
0.000368082
0.000368082
0.000250796
0.00090795
0.00174605
0.00244201
0.00298883
0.00341446
0.00374047
0.00398063
0.00414324
0.00423296
0.000450785
0.000438471
0.000427049
0.00041665
0.00040736
0.000399231
0.000392284
0.000386523
0.00038194
0.000378521
0.000376251
0.00037512
0.00037512
0.000259377
0.000919947
0.00176673
0.00247404
0.00303221
0.00346826
0.00380337
0.00405116
0.00421982
0.00431392
0.000450785
0.000439678
0.000429314
0.000419822
0.000411292
0.000403784
0.000397334
0.00039196
0.000387668
0.000384455
0.000382317
0.00038125
0.00038125
0.000267186
0.000931504
0.00178642
0.00250386
0.00307171
0.00351613
0.00385811
0.00411124
0.00428378
0.00438043
0.000450785
0.000440668
0.000431183
0.000422453
0.00041457
0.0004076
0.000401586
0.000396556
0.000392525
0.0003895
0.000387483
0.000386475
0.000386475
0.000274532
0.000943832
0.00180727
0.00253442
0.00311082
0.0035619
0.00390865
0.00416492
0.00433928
0.00443666
0.000450785
0.000441464
0.000432691
0.000424585
0.000417238
0.000410717
0.000405073
0.000400337
0.000396532
0.00039367
0.00039176
0.000390804
0.000390804
0.000281945
0.000958722
0.00183231
0.00256965
0.00315381
0.00360981
0.00395909
0.00421615
0.0043901
0.00448632
0.000450785
0.000442081
0.000433866
0.000426252
0.000419331
0.000413171
0.000407824
0.000403328
0.000399708
0.000396982
0.000395159
0.000394246
0.000394246
0.000290429
0.000979251
0.00186651
0.00261533
0.00320626
0.00366479
0.0040137
0.00426869
0.00443969
0.00453262
0.000450785
0.000442534
0.000434729
0.000427481
0.000420877
0.000414987
0.000409866
0.000405551
0.000402073
0.00039945
0.000397695
0.000396815
0.000396815
0.00030219
0.00101191
0.00191943
0.00268091
0.00327581
0.00373261
0.00407687
0.00432603
0.004491
0.00457822
0.000450785
0.000442831
0.000435297
0.000428289
0.000421896
0.000416187
0.000411216
0.000407024
0.000403641
0.000401087
0.000399378
0.000398521
0.000398522
0.000323282
0.00107441
0.00201209
0.00278236
0.00337271
0.00381962
0.00415272
0.00439112
0.0045464
0.00462518
0.000450785
0.000442978
0.000435578
0.00042869
0.000422402
0.000416783
0.000411887
0.000407757
0.000404422
0.000401904
0.000400217
0.000399372
0.000399372
0.000379921
0.00122873
0.00219142
0.00294392
0.00350831
0.0039313
0.00424419
0.00446587
0.00460736
0.00467486
0.000450785
0.000442978
0.000435578
0.00042869
0.000422402
0.000416783
0.000411888
0.000407757
0.000404422
0.000401904
0.000400218
0.000399372
0.000324099
0.000855145
0.00172313
0.002535
0.00318592
0.00368772
0.00406889
0.00435167
0.00455057
0.00467434
0.00472788
0.000193381
0.000203461
0.000224913
0.000241605
0.000254012
0.000263448
0.000271091
0.000278122
0.000286046
0.000297484
0.000318878
0.000376909
0.000853199
0.00156138
0.00229162
0.00293876
0.00347251
0.0038972
0.00422628
0.00447215
0.00464374
0.00474672
0.00478419
0.000109204
0.000390618
0.000537929
0.000638744
0.000714848
0.000775562
0.000826486
0.000872067
0.000917162
0.000969566
0.00104797
0.00121485
0.00171557
0.00228881
0.00284645
0.00334644
0.0037717
0.00411978
0.00439445
0.00460073
0.00474276
0.0048232
0.00484331
0.000108609
0.000659655
0.00097556
0.00118108
0.00133275
0.0014532
0.00155433
0.00164439
0.00173145
0.00182718
0.0019539
0.0021591
0.00251945
0.00293426
0.00334759
0.00372893
0.00406254
0.00434181
0.00456502
0.00473244
0.00484478
0.0049023
0.00490465
0.000116434
0.000818441
0.00128388
0.00159286
0.00182041
0.00200052
0.00215118
0.00228421
0.00240991
0.00254056
0.00269396
0.00289542
0.00316595
0.00347173
0.00378138
0.00407317
0.00433348
0.00455445
0.00473183
0.00486334
0.00494748
0.00498286
0.00496784
0.000122397
0.000916533
0.00149167
0.00188695
0.00218192
0.0024164
0.00261229
0.00278367
0.00294175
0.00309764
0.00326395
0.00345371
0.00367342
0.0039109
0.00414989
0.00437637
0.00457989
0.00475321
0.00489142
0.00499111
0.00504959
0.00506441
0.00503307
0.000126804
0.000984427
0.0016396
0.00210308
0.00245443
0.00273583
0.00297111
0.00317537
0.00335982
0.00353416
0.00370748
0.00388736
0.00407681
0.00427121
0.00446236
0.00464173
0.00480197
0.00493721
0.00504286
0.00511523
0.00515111
0.00514747
0.00510127
0.000130153
0.00103497
0.0017508
0.00226828
0.00266609
0.0029872
0.00325616
0.00348831
0.00369447
0.00388319
0.00406154
0.00423484
0.00440542
0.00457185
0.0047302
0.00487557
0.0050031
0.00510837
0.00518748
0.00523694
0.00525344
0.00523368
0.00517432
0.000132777
0.00107462
0.00183854
0.0023999
0.00283644
0.00319134
0.00348921
0.00374526
0.0039698
0.00417056
0.00435353
0.00452311
0.00468172
0.00482956
0.00496512
0.00508584
0.00518872
0.00527064
0.00532848
0.00535912
0.00535936
0.00532586
0.00525515
0.000134921
0.00110749
0.00191162
0.00251019
0.00298013
0.00336448
0.0036877
0.0039647
0.00420534
0.00441679
0.00460451
0.00477257
0.00492365
0.00505898
0.00517853
0.00528131
0.00536569
0.00542958
0.0054706
0.00548605
0.00547293
0.00542801
0.00534779
0.000136798
0.00113685
0.00197708
0.00260925
0.00310949
0.00352061
0.00386684
0.00416277
0.00441796
0.00463926
0.00483191
0.00499997
0.00514646
0.00527333
0.00538155
0.00547124
0.00554176
0.00559185
0.00561975
0.00562315
0.00559933
0.00554517
0.00545727
0.000138621
0.00116582
0.00204159
0.00270666
0.00323628
0.00367306
0.004041
0.00435455
0.00462314
0.00485358
0.00505114
0.00522008
0.00536379
0.00548484
0.00558494
0.00566499
0.00572512
0.00576473
0.00578254
0.00577662
0.00574449
0.00568318
0.00558943
0.000140632
0.00119782
0.00211229
0.00281244
0.00337265
0.00383534
0.00422451
0.00455471
0.0048356
0.00507424
0.00527623
0.00544619
0.00558799
0.00570473
0.00579873
0.00587152
0.0059238
0.00595548
0.00596568
0.0059528
0.00591456
0.00584817
0.0057505
0.000143123
0.00123676
0.00219711
0.00293756
0.00353151
0.00402143
0.00443173
0.00477754
0.00506923
0.00531453
0.0055197
0.00568997
0.00582976
0.0059427
0.00603167
0.00609866
0.00614485
0.00617053
0.00617516
0.00615738
0.00611513
0.00604577
0.00594632
0.000146463
0.0012871
0.00230481
0.00309376
0.00372631
0.00424542
0.00467657
0.00503629
0.00533634
0.00558577
0.00579186
0.0059607
0.00609738
0.00620612
0.00629022
0.00635211
0.0063933
0.0064144
0.00641512
0.00639432
0.00635013
0.00628006
0.00618128
0.000151098
0.00135348
0.00244438
0.00329298
0.00397034
0.00452057
0.00497138
0.00534194
0.00564648
0.00589607
0.00609955
0.00626411
0.00639562
0.00649885
0.0065775
0.00663432
0.00667108
0.00668859
0.00668679
0.00666471
0.00662067
0.00655234
0.00645704
0.00015755
0.0014404
0.00262453
0.00354684
0.00427601
0.00485831
0.00532567
0.00570183
0.00600493
0.00624901
0.00644496
0.00660128
0.00672466
0.00682035
0.00689235
0.00694362
0.00697606
0.00699066
0.00698748
0.00696575
0.00692396
0.00685997
0.00677129
0.000166424
0.00155226
0.00285447
0.00386769
0.00465542
0.00526806
0.00574531
0.00611851
0.00641164
0.00664263
0.00682479
0.00696798
0.0070796
0.00716522
0.00722898
0.00727386
0.00730183
0.00731392
0.00731031
0.00729039
0.00725285
0.0071958
0.00711696
0.000178493
0.00169505
0.00314803
0.00427306
0.00512318
0.0057582
0.00623247
0.00658938
0.00686081
0.00706926
0.00723034
0.00735498
0.00745095
0.00752381
0.0075776
0.00761516
0.00763833
0.00764814
0.00764481
0.0076279
0.00759634
0.00754853
0.00748249
0.000194873
0.0018804
0.00353376
0.00479464
0.005701
0.00633745
0.00678561
0.00710654
0.00734129
0.00751633
0.0076487
0.00774949
0.00782618
0.00788389
0.0079262
0.00795557
0.00797362
0.00798123
0.00797865
0.00796559
0.00794123
0.00790433
0.00785329
0.000217142
0.00214047
0.00408164
0.00549468
0.00642172
0.00701336
0.00739753
0.00765617
0.00783716
0.00796801
0.00806488
0.00813757
0.00819231
0.00823321
0.00826305
0.0082837
0.0082964
0.00830182
0.0083002
0.00829134
0.00827472
0.00824945
0.00821442
0.000243782
0.00261394
0.00499844
0.00649979
0.0073276
0.00778371
0.00804994
0.00821695
0.00832872
0.00840732
0.00846451
0.00850697
0.00853871
0.00856232
0.00857951
0.00859141
0.00859876
0.00860198
0.00860124
0.00859643
0.00858728
0.00857329
0.0085538
0.000269176
0.00425275
0.00703259
0.00804561
0.00843722
0.00861303
0.0087048
0.00875916
0.00879451
0.00881902
0.00883673
0.00884983
0.00885961
0.00886688
0.00887218
0.00887586
0.00887815
0.0088792
0.00887905
0.00887768
0.00887502
0.0088709
0.00886506
0.000167866
0.000156222
0.000157651
0.000172831
0.0013061
0.00126016
0.00127611
0.00135442
0.00214319
0.00211391
0.00214299
0.00222761
0.00269744
0.00268626
0.00272316
0.00280315
0.00310126
0.00310017
0.00314272
0.00322294
0.00341268
0.00341806
0.00346519
0.00354765
0.00365997
0.00367016
0.00372115
0.00380621
0.00385868
0.0038727
0.0039269
0.00401441
0.00401869
0.00403576
0.0040926
0.00418224
0.00414728
0.00416671
0.00422565
0.00431705
0.00425045
0.0042716
0.00433212
0.00442488
0.00433345
0.00435572
0.00441729
0.004511
0.00440095
0.00442375
0.00448586
0.00458006
0.00445713
0.00447985
0.00454194
0.00463618
0.00450561
0.00452762
0.00458911
0.00468285
0.0045495
0.00457008
0.00463036
0.00472306
0.00459132
0.00460973
0.00466812
0.00475919
0.00463304
0.00464845
0.00470428
0.00479313
0.00467598
0.0046876
0.00474018
0.00482624
0.00472089
0.00472799
0.00477671
0.0048595
0.004768
0.00477
0.0048144
0.00489351
0.00481722
0.00481375
0.00485353
0.00492872
0.00486842
0.00485934
0.00489438
0.00496557
0.00492163
0.00490704
0.00493742
0.00500467
0.0049774
0.00495757
0.00498352
0.00504702
0.00503692
0.00501226
0.00503413
0.00509417
0.00510223
0.00507327
0.00509148
0.00514842
0.00517636
0.00514366
0.00515869
0.00521289
0.00526339
0.00522755
0.00523984
0.00529169
0.0053684
0.00533003
0.00534004
0.00538983
0.0054973
0.00545704
0.00546518
0.00551314
0.00565646
0.00561499
0.00562162
0.00566783
0.00585195
0.00581004
0.00581546
0.00585983
0.00608847
0.00604705
0.0060515
0.00609372
0.00636809
0.00632821
0.00633188
0.00637141
0.00668883
0.00665171
0.00665473
0.00669079
0.0070438
0.00701074
0.00701319
0.00704487
0.00742127
0.00739349
0.00739543
0.00742181
0.00780604
0.00778451
0.00778596
0.00780631
0.0081821
0.00816729
0.00816827
0.00818227
0.00853598
0.00852775
0.00852831
0.00853615
0.00885979
0.00885743
0.00885763
0.00886005
0.00090774
0.00167325
0.0021719
0.00246576
0.00264152
0.00274702
0.00280579
0.00282917
0.0028224
0.00278741
0.00272414
0.00263103
0.00250503
0.00234095
0.00212978
0.00185473
0.00148159
0.000933889
0.000133214
0.00177184
0.00229323
0.00268053
0.00294239
0.00311296
0.00321941
0.00327831
0.00329871
0.00328498
0.00323858
0.00315905
0.00304433
0.00289067
0.00269183
0.0024371
0.00210692
0.00166276
0.00102365
0.000139415
0.00247727
0.00284192
0.00314172
0.0033641
0.00351841
0.00361744
0.00367097
0.00368499
0.00366241
0.00360392
0.00350851
0.00337362
0.00319496
0.00296553
0.00267349
0.00229754
0.00179675
0.00108854
0.000143961
0.00301099
0.0033006
0.00354476
0.00373399
0.0038697
0.00395737
0.00400216
0.00400744
0.00397469
0.00390374
0.00379297
0.00363939
0.00343826
0.00318206
0.00285825
0.00244449
0.00189851
0.00113712
0.00014735
0.00342188
0.00367792
0.0038893
0.00405401
0.00417267
0.00424792
0.00428239
0.00427767
0.0042341
0.0041507
0.00402536
0.00385467
0.00363357
0.0033542
0.00300361
0.00255884
0.00197683
0.00117415
0.0001499
0.00374661
0.00398778
0.00418008
0.00432741
0.00443171
0.00449503
0.00451887
0.0045038
0.00444934
0.00435394
0.00421503
0.00402892
0.0037903
0.00349111
0.00311815
0.00264811
0.00203745
0.00120256
0.000151824
0.00400757
0.00424218
0.00442317
0.00455821
0.00465087
0.00470344
0.00471712
0.00469199
0.00462708
0.00452044
0.00436919
0.0041694
0.00391561
0.00359966
0.00320819
0.00271771
0.00208434
0.00122437
0.000153273
0.00421862
0.00445048
0.00462455
0.0047508
0.00483412
0.00487737
0.0048818
0.00484734
0.00477276
0.00465589
0.00449363
0.00428191
0.00401518
0.0036852
0.00327858
0.00277169
0.00212045
0.00124103
0.000154358
0.00438917
0.00462008
0.00478976
0.00490963
0.00498552
0.00502085
0.00501714
0.00497431
0.00489108
0.00476513
0.00459325
0.0043713
0.00409367
0.0037521
0.00333319
0.00281325
0.00214804
0.00125367
0.000155164
0.00452636
0.00475714
0.00492396
0.00503909
0.00510907
0.00513782
0.0051271
0.00507699
0.0049862
0.00485237
0.00467225
0.00444166
0.00415497
0.00380395
0.00337517
0.00284495
0.00216893
0.00126316
0.000155757
0.00463613
0.00486706
0.0050319
0.00514345
0.00520873
0.00523204
0.00521543
0.00515911
0.00506185
0.00492132
0.00473427
0.0044965
0.00420239
0.00384373
0.00340713
0.00286888
0.00218457
0.00127021
0.000156188
0.00472364
0.0049547
0.00511803
0.00522676
0.00528825
0.00530711
0.00528559
0.00522407
0.00512139
0.00497527
0.00478247
0.00453881
0.00423869
0.00387394
0.00343119
0.00288674
0.00219614
0.00127538
0.000156498
0.00479348
0.00502437
0.00518636
0.00529276
0.00535116
0.00536635
0.00534078
0.00527495
0.00516779
0.00501706
0.00481956
0.00457113
0.00426621
0.00389666
0.00344913
0.00289994
0.00220462
0.00127912
0.000156719
0.00484967
0.00507992
0.00524051
0.00534484
0.00540061
0.00541275
0.00538384
0.00531446
0.00520362
0.00504914
0.00484784
0.0045956
0.00428688
0.00391358
0.00346237
0.00290959
0.00221075
0.00128181
0.000156874
0.00489565
0.00512466
0.00528364
0.00538597
0.00543941
0.00544895
0.00541725
0.00534495
0.00523112
0.0050736
0.00486925
0.00461398
0.00430229
0.00392607
0.00347205
0.00291657
0.00221514
0.00128371
0.000156983
0.00493433
0.0051614
0.00531841
0.0054187
0.00546996
0.00547723
0.00544315
0.00536843
0.00525215
0.00509217
0.00488539
0.00462773
0.0043137
0.00393525
0.00347909
0.0029216
0.00221827
0.00128505
0.000157057
0.00496809
0.00519245
0.00534708
0.00544517
0.00549432
0.0054995
0.00546336
0.00538659
0.00526829
0.00510632
0.00489759
0.00463802
0.00432218
0.00394199
0.00348421
0.0029252
0.00222049
0.00128599
0.000157109
0.00499879
0.00521967
0.00537148
0.00546716
0.00551417
0.00551739
0.00547941
0.00540087
0.00528086
0.00511724
0.00490692
0.00464583
0.00432854
0.00394699
0.00348796
0.00292782
0.00222207
0.00128666
0.000157145
0.00502787
0.00524453
0.00539307
0.00548613
0.00553095
0.00553227
0.00549257
0.00541246
0.00529097
0.00512595
0.0049143
0.00465196
0.00433348
0.00395084
0.00349081
0.00292978
0.00222324
0.00128714
0.00015717
0.00505637
0.00526819
0.00541307
0.00550331
0.00554586
0.0055453
0.00550397
0.00542241
0.00529959
0.00513334
0.00492053
0.00465709
0.0043376
0.00395402
0.00349314
0.00293136
0.00222417
0.00128751
0.000157189
0.00508509
0.00529157
0.00543251
0.00551976
0.00555999
0.00555754
0.00551464
0.0054317
0.00530763
0.00514023
0.00492633
0.00466188
0.00434143
0.00395697
0.00349529
0.0029328
0.00222501
0.00128785
0.000157206
0.00511467
0.00531552
0.00545233
0.00553651
0.00557438
0.00557005
0.00552559
0.00544129
0.005316
0.00514745
0.00493247
0.00466697
0.00434554
0.00396015
0.00349762
0.00293437
0.00222593
0.00128821
0.000157225
0.00514577
0.00534089
0.00547354
0.00555462
0.00559014
0.00558394
0.00553792
0.00545225
0.0053257
0.00515595
0.00493979
0.00467314
0.00435057
0.00396409
0.00350054
0.00293636
0.00222709
0.00128867
0.000157248
0.00517922
0.00536872
0.00549729
0.00557535
0.00560856
0.00560051
0.00555291
0.00546583
0.00533793
0.00516684
0.00494933
0.0046813
0.00435734
0.00396948
0.00350459
0.00293915
0.00222874
0.00128934
0.000157282
0.00521619
0.00540036
0.00552505
0.00560024
0.00563122
0.00562135
0.00557217
0.00548359
0.00535421
0.00518158
0.00496245
0.00469271
0.00436695
0.00397724
0.00351051
0.0029433
0.00223124
0.00129036
0.000157334
0.00525839
0.00543763
0.00555875
0.00563127
0.00566014
0.0056485
0.0055977
0.00550753
0.00537648
0.00520206
0.00498094
0.00470902
0.0043809
0.00398869
0.00351939
0.00294961
0.0022351
0.00129196
0.000157418
0.00530815
0.00548296
0.00560087
0.00567096
0.00569788
0.00568453
0.0056321
0.00554022
0.00540731
0.00523076
0.00500721
0.00473252
0.00440129
0.00400568
0.00353277
0.00295929
0.00224111
0.00129449
0.000157551
0.00536865
0.00553952
0.00565458
0.0057225
0.00574764
0.00573266
0.00567859
0.00558492
0.00544994
0.00527093
0.00504445
0.00476629
0.00443103
0.00403085
0.00355292
0.0029741
0.00225046
0.00129849
0.000157766
0.00544389
0.00561127
0.0057238
0.00578979
0.0058133
0.00579681
0.00574114
0.00564565
0.00550845
0.0053267
0.0050968
0.00481441
0.00447405
0.00406786
0.00358305
0.00299665
0.00226494
0.00130478
0.000158111
0.00553877
0.0057029
0.00581312
0.00587735
0.0058994
0.00588154
0.0058244
0.00572717
0.00558777
0.00540313
0.00516945
0.00488216
0.00453556
0.00412168
0.00362767
0.00303067
0.00228721
0.00131464
0.000158664
0.00565885
0.00581971
0.00592761
0.00599014
0.00601086
0.00599183
0.00593349
0.00583481
0.00569347
0.00550613
0.00526862
0.00497599
0.00462217
0.00419881
0.00369284
0.00308134
0.00232105
0.00132992
0.000159542
0.00580998
0.00596711
0.0060724
0.00613311
0.00615257
0.00613263
0.00607354
0.00597402
0.00583145
0.00564208
0.00540125
0.00510342
0.0047418
0.00430734
0.00378636
0.00315558
0.00237168
0.00135327
0.000160929
0.00599759
0.00614994
0.00625191
0.00631043
0.00632862
0.00630813
0.00624899
0.00614965
0.00600711
0.00581713
0.00557437
0.00527237
0.00490322
0.00445662
0.00391762
0.00326195
0.00244576
0.00138821
0.000163088
0.00622563
0.00637145
0.00646888
0.00652456
0.00654137
0.00652077
0.00646255
0.00636488
0.00622436
0.00603615
0.00579399
0.00549018
0.00511512
0.00465641
0.00409686
0.00341013
0.00255103
0.00143895
0.000166383
0.00649533
0.0066321
0.00672329
0.00677515
0.00679036
0.00677016
0.00671412
0.00662012
0.00648437
0.00630134
0.00606374
0.00576219
0.00538469
0.00491564
0.00433405
0.00360987
0.00269533
0.00150982
0.000171274
0.00680397
0.00692855
0.00701136
0.00705819
0.00707148
0.00705225
0.00699986
0.00691197
0.00678442
0.00661107
0.00638345
0.00609023
0.00571621
0.00524111
0.00463791
0.00387018
0.00288571
0.00160453
0.00017829
0.0071442
0.00725314
0.00732525
0.00736575
0.00737678
0.00735911
0.00731197
0.00723288
0.00711747
0.00695914
0.00674839
0.00647177
0.00611025
0.00563719
0.00501632
0.00420038
0.00312935
0.00172631
0.00018803
0.00750429
0.00759437
0.00765369
0.0076867
0.00769519
0.00767969
0.00763937
0.00757176
0.00747258
0.00733509
0.0071492
0.00689972
0.00656367
0.00610662
0.00547898
0.00461503
0.00343895
0.00188041
0.00020127
0.00786965
0.00793854
0.00798363
0.00800841
0.00801427
0.00800155
0.00796941
0.00791565
0.00783639
0.00772539
0.0075728
0.00736286
0.00706985
0.00665165
0.00604153
0.00514319
0.00384502
0.00208017
0.000219374
0.0082255
0.00827237
0.00830281
0.00831928
0.00832271
0.00831329
0.0082903
0.00825204
0.00819543
0.00811543
0.00800374
0.00784617
0.00761762
0.00727234
0.00672735
0.00584145
0.00442121
0.0023616
0.000245971
0.00856
0.00858584
0.00860248
0.00861129
0.00861279
0.00860706
0.00859362
0.00857141
0.00853853
0.0084918
0.00842579
0.00833071
0.00818777
0.0079584
0.00755917
0.00680749
0.00534795
0.00283609
0.000298102
0.00886708
0.00887463
0.00887945
0.00888193
0.00888223
0.00888035
0.00887614
0.00886925
0.00885909
0.00884465
0.00882418
0.00879445
0.00874881
0.00867194
0.00852264
0.00816899
0.00713136
0.00405881
0.00046583
)
;

boundaryField
{
    leftWall
    {
        type            nutkWallFunction;
        blending        stepwise;
        value           nonuniform List<scalar> 
50
(
0
0
0
0
0
0
0
0
0
0
0
0
0
0
0
0
0
0
0
0
0
0
0
0
0
0
0
5.36008e-05
1.89929e-05
7.17879e-06
7.32222e-06
8.54123e-06
9.44866e-06
1.01085e-05
1.06003e-05
1.09761e-05
1.12737e-05
1.15245e-05
1.17588e-05
1.20096e-05
1.2317e-05
1.27319e-05
1.33185e-05
1.41551e-05
1.53345e-05
1.69735e-05
1.92501e-05
2.25309e-05
2.79057e-05
3.83346e-05
)
;
    }
    rightWall
    {
        type            nutkWallFunction;
        blending        stepwise;
        value           nonuniform List<scalar> 
50
(
0
3.05038e-06
5.17738e-06
6.68382e-06
7.83135e-06
8.76144e-06
9.55148e-06
1.02448e-05
1.12016e-05
1.21452e-05
1.28223e-05
1.33171e-05
1.36821e-05
1.3952e-05
1.41512e-05
1.42971e-05
1.44032e-05
1.44796e-05
1.45339e-05
1.45722e-05
1.45988e-05
1.46171e-05
1.46297e-05
1.46381e-05
1.46438e-05
1.46477e-05
1.46504e-05
1.46524e-05
1.46541e-05
1.46559e-05
1.46582e-05
1.46616e-05
1.46669e-05
1.46755e-05
1.46894e-05
1.47122e-05
1.47493e-05
1.48097e-05
1.49077e-05
1.50655e-05
1.5317e-05
1.57114e-05
1.6315e-05
1.72103e-05
1.84926e-05
2.02786e-05
2.27545e-05
2.64042e-05
3.35012e-05
5.55345e-05
)
;
    }
    lowerWall
    {
        type            nutkWallFunction;
        blending        stepwise;
        value           nonuniform List<scalar> 
62
(
0
0
0
0
0
0
0
0
0
0
0
0
2.16739e-05
0
0
0
0
0
0
0
0
0
0
0
1.48037e-06
3.72566e-06
5.3546e-06
6.75131e-06
8.2209e-06
1.02979e-05
1.43046e-05
1.64653e-05
1.46208e-05
1.48136e-05
1.71274e-05
0
3.81001e-06
6.46618e-06
8.44473e-06
1.01632e-05
1.19688e-05
1.44486e-05
1.89312e-05
0
0
0
0
0
0
0
0
0
0
0
0
0
0
0
0
0
0
0
)
;
    }
    atmosphere
    {
        type            calculated;
        value           uniform 0.009;
    }
    defaultFaces
    {
        type            empty;
    }
}


// ************************************************************************* //
