/*--------------------------------*- C++ -*----------------------------------*\
| =========                 |                                                 |
| \\      /  F ield         | OpenFOAM: The Open Source CFD Toolbox           |
|  \\    /   O peration     | Version:  2406                                  |
|   \\  /    A nd           | Website:  www.openfoam.com                      |
|    \\/     M anipulation  |                                                 |
\*---------------------------------------------------------------------------*/
FoamFile
{
    version     2.0;
    format      ascii;
    arch        "LSB;label=32;scalar=64";
    class       volScalarField;
    location    "0.7";
    object      nut;
}
// * * * * * * * * * * * * * * * * * * * * * * * * * * * * * * * * * * * * * //

dimensions      [0 2 -1 0 0 0 0];

internalField   nonuniform List<scalar> 
2268
(
3.45375e-05
3.74969e-05
4.43953e-05
4.87782e-05
5.18851e-05
5.42031e-05
5.59763e-05
5.73458e-05
5.84003e-05
5.91984e-05
5.97792e-05
6.01677e-05
6.03769e-05
6.04079e-05
6.02481e-05
5.98664e-05
5.92025e-05
5.81471e-05
5.65016e-05
5.38927e-05
4.9575e-05
4.18275e-05
2.39035e-05
7.54559e-05
0.000287533
0.00038201
0.000440003
0.00048074
0.000511163
0.000534567
0.000552785
0.000566942
0.00057777
0.000585754
0.000591202
0.000594276
0.000594998
0.000593215
0.000588537
0.000580183
0.000566689
0.000545289
0.000510573
0.00045132
0.000340584
8.17693e-05
8.8525e-05
0.000481451
0.000693198
0.000826924
0.000921994
0.000993663
0.00104928
0.00109294
0.00112714
0.00115351
0.00117312
0.00118664
0.00119445
0.00119657
0.00119264
0.0011817
0.00116184
0.0011294
0.00107744
0.000992393
0.000847327
0.000585369
9.82826e-05
9.78685e-05
0.000616507
0.000935034
0.00114323
0.00129346
0.00140776
0.00149709
0.00156762
0.00162318
0.00166622
0.0016984
0.00172076
0.00173384
0.00173767
0.00173164
0.00171417
0.0016821
0.0016294
0.00154459
0.00140573
0.00117111
0.000763571
0.000110701
0.000104941
0.000717195
0.00112826
0.00140542
0.00160839
0.00176417
0.00188666
0.00198387
0.00206076
0.00212059
0.00216552
0.00219693
0.00221553
0.00222135
0.00221352
0.00218985
0.00214599
0.00207361
0.00195702
0.00176651
0.00144707
0.000906748
0.000121336
0.000110562
0.000796387
0.00128719
0.00162708
0.00187944
0.00207472
0.00222918
0.00235231
0.00245009
0.00252646
0.00258406
0.00262458
0.00264889
0.00265701
0.00264787
0.00261873
0.00256418
0.00247396
0.00232886
0.00209257
0.00169768
0.00103574
0.000132206
0.000115186
0.000861075
0.00142097
0.00181757
0.00211574
0.0023483
0.00253324
0.0026813
0.00279933
0.00289186
0.00296195
0.00301159
0.0030418
0.00305261
0.00304278
0.00300918
0.00294558
0.00284031
0.0026717
0.00239883
0.00194344
0.00117058
0.000147077
0.000119081
0.000915337
0.0015356
0.00198341
0.0023239
0.00259141
0.00280526
0.00297719
0.00311474
0.00322298
0.00330535
0.00336409
0.0034004
0.00341434
0.00340459
0.00336775
0.00329712
0.00318026
0.00299446
0.00269747
0.00220653
0.00135005
0.000176152
2.45894e-05
4.30623e-05
5.07076e-05
5.47847e-05
5.71246e-05
5.84979e-05
5.92714e-05
5.96273e-05
5.96555e-05
5.93942e-05
5.88485e-05
5.79971e-05
5.6792e-05
5.51495e-05
5.29297e-05
4.98848e-05
4.55172e-05
3.85595e-05
3.71582e-05
9.30973e-05
0.000358442
0.000466778
0.000522192
0.000552974
0.000570573
0.000580222
0.000584417
0.000584344
0.000580493
0.000572928
0.000561383
0.000545257
0.000523499
0.000494313
0.000454411
0.000396835
0.000302314
8.632e-05
0.000111338
0.000625858
0.000884792
0.00102069
0.00109583
0.00113826
0.00116116
0.00117079
0.00117011
0.00116035
0.00114171
0.00111361
0.00107475
0.0010228
0.000953768
0.000860318
0.000727053
0.000513501
0.000100611
0.000125238
0.000823988
0.00123096
0.00145167
0.00157438
0.00164341
0.00168035
0.00169559
0.00169402
0.00167771
0.00164703
0.00160117
0.00153813
0.0014544
0.00134393
0.00119571
0.000987227
0.000663216
0.000110973
0.00013728
0.00098415
0.00152763
0.00182903
0.00199746
0.00209218
0.0021426
0.00216301
0.00216018
0.00213701
0.00209406
0.0020303
0.00194313
0.00182795
0.00167693
0.00147597
0.0011971
0.000775875
0.000118866
0.000149813
0.00112815
0.00179628
0.00216925
0.00237819
0.00249587
0.00255827
0.00258298
0.00257838
0.00254808
0.00249284
0.00241139
0.00230062
0.00215498
0.00196509
0.0017144
0.0013709
0.000864901
0.000125153
0.000167114
0.00127695
0.00205621
0.002486
0.00272731
0.00286379
0.00293598
0.00296375
0.00295673
0.00291902
0.00285151
0.00275274
0.00261909
0.00244421
0.00221746
0.00192032
0.0015179
0.000937794
0.000130329
0.000199484
0.00146872
0.00232695
0.00279015
0.00305309
0.00320317
0.00328241
0.00331177
0.00330152
0.00325608
0.00317634
0.00306065
0.00290494
0.00270216
0.00244062
0.00210029
0.00164429
0.000999013
0.000134688
0.000124261
0.000987824
0.0016916
0.00221262
0.00261509
0.00293473
0.00319227
0.00340063
0.00356826
0.00370092
0.0038026
0.0038759
0.00392229
0.00394196
0.00393357
0.00389357
0.00381501
0.0036854
0.00348293
0.00317033
0.00268734
0.00195891
0.00100533
0.000129527
0.00106181
0.00185398
0.00245496
0.00292696
0.00330639
0.00361502
0.00386672
0.00407077
0.0042336
0.00435977
0.00445236
0.00451324
0.00454299
0.00454069
0.00450343
0.00442543
0.00429682
0.0041019
0.00381761
0.00341513
0.00287311
0.00221726
0.000133554
0.00111923
0.00198211
0.0026487
0.00317911
0.00360985
0.0039632
0.00425355
0.00449069
0.00468154
0.0048311
0.0049429
0.00501927
0.00506135
0.00506899
0.00504041
0.00497191
0.00485732
0.00468792
0.00445342
0.00414623
0.00377281
0.00337674
0.000136684
0.00116465
0.00208481
0.00280556
0.00338506
0.00385973
0.00425202
0.00457663
0.00484367
0.00506039
0.00523215
0.0053629
0.00545547
0.00551165
0.00553219
0.00551672
0.00546371
0.00537054
0.00523416
0.00505275
0.00482962
0.00458039
0.00434361
0.000139135
0.00120092
0.00216777
0.00293331
0.00355405
0.00406619
0.00449226
0.00484708
0.00514097
0.00538142
0.00557409
0.0057233
0.00583237
0.00590375
0.00593911
0.0059394
0.005905
0.00583609
0.00573337
0.00559965
0.00544237
0.00527729
0.0051319
0.000141061
0.00122998
0.00223491
0.00303748
0.00369277
0.00423676
0.00469197
0.00507329
0.00539115
0.0056532
0.00586535
0.00603225
0.00615767
0.00624467
0.00629572
0.00631289
0.00629804
0.00625321
0.00618131
0.00608717
0.00597895
0.00586967
0.00577755
0.000142571
0.00125325
0.00228916
0.00312222
0.00380632
0.00437725
0.00485747
0.00526189
0.00560098
0.00588254
0.00611263
0.00629622
0.00643743
0.00653983
0.00660658
0.00664058
0.00664471
0.00662218
0.00657696
0.00651448
0.00644225
0.00637027
0.00631055
0.000143751
0.00127181
0.00233278
0.0031908
0.00389882
0.00449239
0.00499394
0.00541834
0.0057761
0.00607508
0.0063215
0.00652054
0.00667664
0.00679377
0.00687558
0.00692557
0.00694728
0.00694453
0.00692173
0.00688421
0.00683842
0.00679197
0.0067529
0.000144666
0.00128652
0.00236763
0.00324594
0.00397364
0.00458613
0.00510572
0.00554728
0.00592129
0.00623568
0.00649677
0.00670989
0.00687972
0.00701053
0.00710633
0.007171
0.00720847
0.00722285
0.00721859
0.00720066
0.00717453
0.00714601
0.00712072
0.000145371
0.00129808
0.00239522
0.0032899
0.00403368
0.00466182
0.00519657
0.00565272
0.00604076
0.00636862
0.0066427
0.00686844
0.00705069
0.00719393
0.0073024
0.00738021
0.0074315
0.00746044
0.00747139
0.00746887
0.00745755
0.00744198
0.00742626
0.00014591
0.00130707
0.00241686
0.00332461
0.00408142
0.00472241
0.00526976
0.00573821
0.00613822
0.00647772
0.00676315
0.00700003
0.00719332
0.00734761
0.00746731
0.00755665
0.00761984
0.00766103
0.0076844
0.00769406
0.00769404
0.00768805
0.00767918
0.000146316
0.001314
0.00243366
0.00335175
0.004119
0.00477044
0.00532818
0.00580689
0.006217
0.00656644
0.00686165
0.00710821
0.00731113
0.0074751
0.00760457
0.00770386
0.00777716
0.00782856
0.00786203
0.00788135
0.00789006
0.00789127
0.00788745
0.00014662
0.00131928
0.00244656
0.00337274
0.00414828
0.00480813
0.00537433
0.00586152
0.00628006
0.00663788
0.00694142
0.00719626
0.00740746
0.00757974
0.0077176
0.00782534
0.00790714
0.00796697
0.00800863
0.00803563
0.00805114
0.00805784
0.0080578
0.000146845
0.00132326
0.00245635
0.00338879
0.00417085
0.0048374
0.00541044
0.00590453
0.00633003
0.00669482
0.00700535
0.00726719
0.0074854
0.00766473
0.00780966
0.00792449
0.00801334
0.0080801
0.00812837
0.00816148
0.00818231
0.00819325
0.00819607
0.00014701
0.00132622
0.0024637
0.00340094
0.00418807
0.0048599
0.00543838
0.00593805
0.00636923
0.00673975
0.00705606
0.00732372
0.00754779
0.007733
0.00788382
0.00800453
0.00809918
0.00817156
0.00822516
0.00826311
0.00828811
0.00830233
0.00830734
0.000147129
0.0013284
0.00246915
0.00341003
0.00420105
0.004877
0.00545979
0.00596391
0.00639965
0.00677483
0.00709586
0.0073683
0.00759719
0.00778724
0.00794291
0.00806843
0.0081678
0.00824471
0.00830256
0.00834435
0.00837262
0.00838938
0.00839607
0.000147215
0.00132998
0.00247315
0.00341676
0.00421075
0.00488987
0.00547601
0.00598364
0.00642301
0.00680193
0.00712678
0.00740309
0.00763589
0.00782988
0.00798948
0.00811889
0.00822205
0.00830259
0.00836382
0.00840862
0.00843944
0.00845818
0.00846616
0.000147275
0.00133112
0.00247606
0.00342169
0.00421791
0.00489946
0.00548818
0.00599855
0.00644078
0.00682265
0.00715053
0.00742994
0.00766588
0.00786303
0.00802578
0.0081583
0.00826447
0.00834789
0.00841178
0.00845895
0.00849175
0.00851201
0.00852098
0.000147318
0.00133194
0.00247815
0.00342526
0.00422315
0.00490652
0.00549722
0.0060097
0.00645414
0.00683833
0.0071686
0.00745045
0.00768888
0.00788853
0.00805377
0.00818875
0.0082973
0.00838297
0.00844893
0.00849794
0.00853227
0.0085537
0.00856344
0.000147348
0.00133251
0.00247963
0.00342782
0.00422694
0.00491167
0.00550387
0.00601795
0.0064641
0.00685007
0.00718219
0.00746595
0.00770632
0.00790793
0.00807513
0.00821202
0.00832243
0.00840985
0.00847742
0.00852784
0.00856335
0.00858567
0.00859598
0.000147368
0.00133291
0.00248068
0.00342965
0.00422966
0.0049154
0.00550871
0.006024
0.00647144
0.00685878
0.00719233
0.00747756
0.00771942
0.00792255
0.00809125
0.00822963
0.00834146
0.00843023
0.00849903
0.00855053
0.00858694
0.00860994
0.00862068
0.000147382
0.00133319
0.00248141
0.00343093
0.00423159
0.00491807
0.0055122
0.00602839
0.0064768
0.00686517
0.0071998
0.00748615
0.00772916
0.00793344
0.0081033
0.00824281
0.00835573
0.00844553
0.00851526
0.00856758
0.00860466
0.00862817
0.00863924
0.000147391
0.00133338
0.00248192
0.00343183
0.00423295
0.00491996
0.0055147
0.00603155
0.00648068
0.00686982
0.00720526
0.00749245
0.00773633
0.00794148
0.00811222
0.00825258
0.00836633
0.00845689
0.00852732
0.00858026
0.00861784
0.00864174
0.00865305
0.000147398
0.00133351
0.00248226
0.00343245
0.0042339
0.0049213
0.00551647
0.0060338
0.00648347
0.00687317
0.00720921
0.00749703
0.00774155
0.00794736
0.00811875
0.00825975
0.00837411
0.00846525
0.00853621
0.00858959
0.00862756
0.00865173
0.00866322
0.000147402
0.00133359
0.0024825
0.00343288
0.00423455
0.00492223
0.00551771
0.00603539
0.00648544
0.00687557
0.00721205
0.00750033
0.00774533
0.00795162
0.00812348
0.00826496
0.00837978
0.00847134
0.00854268
0.00859641
0.00863465
0.00865903
0.00867065
0.000147405
0.00133365
0.00248266
0.00343317
0.00423501
0.00492287
0.00551857
0.00603651
0.00648684
0.00687726
0.00721406
0.00750268
0.00774803
0.00795467
0.00812689
0.00826871
0.00838386
0.00847574
0.00854736
0.00860133
0.00863977
0.0086643
0.00867601
0.000147407
0.00133369
0.00248277
0.00343336
0.00423531
0.00492331
0.00551917
0.00603729
0.00648781
0.00687845
0.00721548
0.00750434
0.00774994
0.00795684
0.00812932
0.00827139
0.00838678
0.00847888
0.00855071
0.00860485
0.00864344
0.00866808
0.00867986
0.000147408
0.00133372
0.00248284
0.0034335
0.00423552
0.00492361
0.00551958
0.00603782
0.00648848
0.00687928
0.00721647
0.00750551
0.00775129
0.00795837
0.00813103
0.00827328
0.00838885
0.00848111
0.00855308
0.00860736
0.00864604
0.00867076
0.00868259
0.000147409
0.00133373
0.00248289
0.00343358
0.00423566
0.00492381
0.00551986
0.00603819
0.00648895
0.00687985
0.00721716
0.00750632
0.00775223
0.00795944
0.00813223
0.00827461
0.0083903
0.00848268
0.00855475
0.00860912
0.00864788
0.00867265
0.00868451
0.000147409
0.00133374
0.00248292
0.00343364
0.00423575
0.00492395
0.00552005
0.00603843
0.00648926
0.00688024
0.00721763
0.00750688
0.00775287
0.00796018
0.00813306
0.00827554
0.00839131
0.00848377
0.00855592
0.00861034
0.00864916
0.00867397
0.00868585
0.000147409
0.00133375
0.00248294
0.00343368
0.00423582
0.00492404
0.00552017
0.0060386
0.00648948
0.0068805
0.00721796
0.00750726
0.00775332
0.00796069
0.00813364
0.00827617
0.00839201
0.00848452
0.00855673
0.0086112
0.00865004
0.00867488
0.00868678
0.00014741
0.00133376
0.00248295
0.0034337
0.00423586
0.0049241
0.00552026
0.00603871
0.00648962
0.00688068
0.00721817
0.00750752
0.00775362
0.00796104
0.00813403
0.00827661
0.00839249
0.00848504
0.00855728
0.00861178
0.00865065
0.00867551
0.00868742
0.00014741
0.00133376
0.00248296
0.00343372
0.00423588
0.00492414
0.00552031
0.00603879
0.00648972
0.0068808
0.00721832
0.0075077
0.00775383
0.00796127
0.0081343
0.00827691
0.00839281
0.00848539
0.00855766
0.00861218
0.00865107
0.00867594
0.00868786
0.00014741
0.00133376
0.00248296
0.00343373
0.0042359
0.00492417
0.00552035
0.00603884
0.00648978
0.00688088
0.00721842
0.00750781
0.00775397
0.00796143
0.00813448
0.00827711
0.00839303
0.00848563
0.00855791
0.00861245
0.00865135
0.00867623
0.00868815
0.00014741
0.00133376
0.00248297
0.00343374
0.00423591
0.00492418
0.00552037
0.00603887
0.00648982
0.00688094
0.00721848
0.00750789
0.00775406
0.00796154
0.0081346
0.00827724
0.00839318
0.00848579
0.00855808
0.00861263
0.00865154
0.00867642
0.00868835
0.00014741
0.00133376
0.00248297
0.00343374
0.00423592
0.00492419
0.00552039
0.00603889
0.00648985
0.00688097
0.00721853
0.00750794
0.00775412
0.00796161
0.00813468
0.00827733
0.00839328
0.0084859
0.0085582
0.00861275
0.00865166
0.00867655
0.00868848
0.00014741
0.00133376
0.00248297
0.00343374
0.00423592
0.0049242
0.0055204
0.0060389
0.00648987
0.006881
0.00721856
0.00750798
0.00775416
0.00796165
0.00813473
0.00827739
0.00839334
0.00848597
0.00855827
0.00861283
0.00865175
0.00867663
0.00868857
0.00014741
0.00133376
0.00248297
0.00343375
0.00423593
0.00492421
0.0055204
0.00603891
0.00648988
0.00688101
0.00721857
0.007508
0.00775418
0.00796168
0.00813476
0.00827743
0.00839338
0.00848601
0.00855832
0.00861288
0.0086518
0.00867669
0.00868862
0.00014741
0.00133376
0.00248297
0.00343375
0.00423593
0.00492421
0.00552041
0.00603892
0.00648989
0.00688102
0.00721859
0.00750801
0.0077542
0.0079617
0.00813479
0.00827745
0.00839341
0.00848604
0.00855835
0.00861291
0.00865183
0.00867672
0.00868866
0.00014741
0.00133376
0.00248297
0.00343375
0.00423593
0.00492421
0.00552041
0.00603892
0.00648989
0.00688102
0.00721859
0.00750802
0.00775421
0.00796171
0.0081348
0.00827747
0.00839343
0.00848606
0.00855837
0.00861293
0.00865186
0.00867675
0.00868868
0.00014741
0.00133376
0.00248297
0.00343375
0.00423593
0.00492421
0.00552041
0.00603892
0.00648989
0.00688103
0.0072186
0.00750803
0.00775422
0.00796172
0.00813481
0.00827748
0.00839344
0.00848607
0.00855838
0.00861294
0.00865187
0.00867676
0.00868869
0.00014741
0.00133376
0.00248297
0.00343375
0.00423593
0.00492421
0.00552041
0.00603892
0.0064899
0.00688103
0.0072186
0.00750803
0.00775422
0.00796172
0.00813481
0.00827748
0.00839344
0.00848608
0.00855839
0.00861295
0.00865187
0.00867676
0.00868869
0.0001903
0.00017535
0.000175193
0.000189587
0.00171657
0.00163654
0.00163592
0.00171405
0.00315259
0.00308471
0.00308323
0.00314796
0.00422989
0.00419102
0.00418888
0.00422341
0.00506726
0.00504437
0.00504171
0.00505923
0.00573756
0.0057228
0.00571973
0.00572828
0.00628421
0.00627386
0.00627042
0.00627386
0.00673473
0.00672694
0.00672319
0.00672343
0.00710777
0.00710155
0.0070975
0.00709559
0.00741679
0.00741158
0.00740727
0.00740382
0.00767213
0.00766759
0.00766304
0.00765844
0.00788212
0.00787804
0.00787328
0.0078678
0.00805374
0.00804997
0.00804502
0.00803885
0.00819294
0.00818939
0.00818428
0.00817756
0.00830491
0.00830152
0.00829627
0.00828911
0.00839417
0.00839089
0.00838553
0.00837802
0.00846466
0.00846146
0.00845599
0.00844821
0.00851978
0.00851663
0.00851109
0.00850309
0.00856245
0.00855935
0.00855374
0.00854557
0.00859517
0.00859209
0.00858643
0.00857813
0.00861999
0.00861694
0.00861124
0.00860283
0.00863864
0.0086356
0.00862987
0.00862138
0.00865252
0.00864949
0.00864373
0.00863518
0.00866274
0.00865972
0.00865394
0.00864535
0.0086702
0.00866718
0.00866138
0.00865276
0.00867559
0.00867258
0.00866677
0.00865812
0.00867946
0.00867644
0.00867063
0.00866196
0.0086822
0.00867918
0.00867336
0.00866468
0.00868413
0.00868112
0.00867529
0.0086666
0.00868548
0.00868247
0.00867664
0.00866794
0.00868641
0.0086834
0.00867757
0.00866887
0.00868706
0.00868404
0.00867821
0.00866951
0.00868749
0.00868448
0.00867865
0.00866994
0.00868779
0.00868477
0.00867894
0.00867023
0.00868799
0.00868497
0.00867914
0.00867043
0.00868812
0.0086851
0.00867927
0.00867056
0.00868821
0.00868519
0.00867936
0.00867065
0.00868826
0.00868525
0.00867941
0.0086707
0.0086883
0.00868528
0.00867945
0.00867074
0.00868832
0.0086853
0.00867947
0.00867075
0.00868833
0.00868531
0.00867947
0.00867076
0.00868833
0.00868531
0.00867948
0.00867077
0.00105341
0.00206355
0.00280169
0.00326253
0.00354082
0.00370387
0.00378986
0.0038193
0.00380258
0.00374422
0.00364499
0.00350286
0.00331315
0.00306789
0.00275409
0.00235003
0.00181686
0.00108087
0.000140486
0.00224591
0.00294515
0.0035002
0.00388907
0.00414349
0.00429846
0.00437895
0.00440019
0.00437038
0.00429294
0.00416792
0.00399261
0.00376156
0.00346589
0.00309146
0.00261519
0.00199702
0.00116445
0.000146376
0.00338374
0.00381058
0.00419666
0.0044953
0.00470407
0.00483441
0.00489834
0.00490448
0.00485765
0.00475945
0.00460877
0.0044021
0.00413328
0.00379272
0.00336557
0.00282802
0.00213956
0.00122939
0.000150879
0.00433814
0.00459185
0.00484886
0.00506399
0.00522137
0.00531904
0.0053596
0.00534584
0.00527914
0.00515902
0.00498309
0.00474693
0.00444374
0.00406337
0.00359051
0.00300096
0.00225411
0.00128081
0.000154377
0.00511941
0.00527028
0.00543632
0.00558298
0.00569189
0.005755
0.00576916
0.00573293
0.00564477
0.0055023
0.00530186
0.0050382
0.00470388
0.00428835
0.00377597
0.00314234
0.00234688
0.00132195
0.000157118
0.00576059
0.00584964
0.00595309
0.00604649
0.00611332
0.00614353
0.00613102
0.00607159
0.00596158
0.00579705
0.00557325
0.00528417
0.00492186
0.00447541
0.00392899
0.00325807
0.00242219
0.00135497
0.00015927
0.00629032
0.0063407
0.00640083
0.00645362
0.00648537
0.00648603
0.00644825
0.00636626
0.00623497
0.0060493
0.00580364
0.00549133
0.00510404
0.00463059
0.00405497
0.00335264
0.00248324
0.00138148
0.00016096
0.00673003
0.00675504
0.0067846
0.00680648
0.00680957
0.00678456
0.00672379
0.00662074
0.00646944
0.00626402
0.00599825
0.005665
0.00525561
0.00475871
0.00415822
0.00342957
0.00253252
0.00140269
0.000162281
0.00709562
0.00710321
0.00711065
0.00710883
0.00708868
0.00704181
0.00696071
0.00683857
0.00666896
0.00644551
0.00616156
0.00580967
0.00538093
0.00486386
0.00424231
0.00349175
0.00257206
0.00141955
0.000163309
0.00739921
0.00739434
0.00738539
0.00736523
0.00732628
0.00726103
0.00716229
0.00702324
0.00683724
0.00659765
0.00629755
0.00592927
0.00548378
0.00494949
0.00431028
0.00354162
0.00260352
0.00143285
0.000164102
0.00765043
0.00763637
0.007615
0.0075805
0.00752636
0.00744578
0.00733197
0.0071782
0.00697781
0.00672403
0.00640979
0.00602731
0.00556746
0.00501865
0.00436474
0.00358126
0.00262833
0.00144325
0.000164709
0.00785721
0.0078362
0.00780527
0.00775947
0.00769305
0.00759978
0.00747323
0.00730687
0.00709405
0.00682799
0.00650156
0.00610692
0.00563493
0.00507398
0.00440796
0.00361247
0.0026477
0.0014513
0.000165169
0.00802627
0.00799991
0.00796155
0.0079068
0.00783045
0.00772675
0.00758956
0.00741255
0.00718915
0.00691263
0.00657584
0.00617095
0.0056888
0.00511781
0.00444193
0.00363678
0.00266266
0.00145746
0.000165515
0.00816343
0.00813291
0.00808872
0.00802686
0.00794252
0.00783029
0.00768431
0.0074984
0.00726614
0.00698082
0.00663535
0.00622191
0.00573137
0.00515219
0.00446834
0.00365553
0.0026741
0.00146213
0.000165772
0.00827377
0.00823999
0.00819121
0.00812371
0.00803296
0.00791381
0.00776062
0.00756738
0.00732777
0.00703517
0.00668252
0.00626205
0.00576467
0.00517887
0.00448868
0.00366984
0.00268274
0.00146562
0.00016596
0.00836171
0.00832538
0.008273
0.00820102
0.00810516
0.00798044
0.00782141
0.0076222
0.00737658
0.00707802
0.00671952
0.00629334
0.00579045
0.00519936
0.00450416
0.00368063
0.0026892
0.00146821
0.000166098
0.00843115
0.00839282
0.0083376
0.00826211
0.00816218
0.00803302
0.00786931
0.00766528
0.00741481
0.00711144
0.00674822
0.00631747
0.00581018
0.00521493
0.00451583
0.00368869
0.00269398
0.00147011
0.000166197
0.00848543
0.00844555
0.00838812
0.00830986
0.00820674
0.00807407
0.00790663
0.00769877
0.00744443
0.00713723
0.00677026
0.00633588
0.00582515
0.00522665
0.00452453
0.00369465
0.00269748
0.00147148
0.000166268
0.00852745
0.00848636
0.00842722
0.00834681
0.00824119
0.00810576
0.0079354
0.00772452
0.00746714
0.00715691
0.00678699
0.00634979
0.00583637
0.00523537
0.00453096
0.00369901
0.00270002
0.00147247
0.000166318
0.00855965
0.00851763
0.00845716
0.00837509
0.00826754
0.00812998
0.00795735
0.00774411
0.00748436
0.00717178
0.00679957
0.00636018
0.0058447
0.00524179
0.00453565
0.00370216
0.00270184
0.00147317
0.000166353
0.00858408
0.00854134
0.00847986
0.00839653
0.00828749
0.00814829
0.00797391
0.00775886
0.00749728
0.00718289
0.00680893
0.00636787
0.00585083
0.00524648
0.00453905
0.00370443
0.00270313
0.00147366
0.000166377
0.00860242
0.00855914
0.0084969
0.0084126
0.00830244
0.00816199
0.00798628
0.00776985
0.00750688
0.00719112
0.00681583
0.00637351
0.00585529
0.00524988
0.00454149
0.00370604
0.00270404
0.00147401
0.000166394
0.00861606
0.00857238
0.00850956
0.00842454
0.00831353
0.00817214
0.00799542
0.00777796
0.00751394
0.00719714
0.00682086
0.0063776
0.00585851
0.0052523
0.00454322
0.00370717
0.00270467
0.00147425
0.000166405
0.00862611
0.00858212
0.00851887
0.00843331
0.00832168
0.00817959
0.00800212
0.00778388
0.00751908
0.00720152
0.00682449
0.00638053
0.0058608
0.00525403
0.00454444
0.00370796
0.00270511
0.00147441
0.000166413
0.00863344
0.00858923
0.00852566
0.0084397
0.0083276
0.008185
0.00800698
0.00778816
0.00752279
0.00720466
0.0068271
0.00638263
0.00586243
0.00525524
0.00454529
0.00370851
0.00270541
0.00147452
0.000166418
0.00863873
0.00859436
0.00853056
0.00844431
0.00833188
0.00818889
0.00801046
0.00779123
0.00752544
0.0072069
0.00682894
0.00638411
0.00586358
0.00525609
0.00454588
0.00370889
0.00270562
0.00147459
0.000166422
0.00864252
0.00859803
0.00853407
0.00844761
0.00833492
0.00819167
0.00801295
0.00779342
0.00752731
0.00720848
0.00683024
0.00638514
0.00586437
0.00525667
0.00454629
0.00370914
0.00270576
0.00147464
0.000166424
0.00864522
0.00860064
0.00853656
0.00844994
0.00833708
0.00819363
0.0080147
0.00779495
0.00752863
0.00720959
0.00683114
0.00638586
0.00586492
0.00525707
0.00454656
0.00370932
0.00270585
0.00147468
0.000166426
0.00864711
0.00860247
0.00853831
0.00845159
0.0083386
0.008195
0.00801593
0.00779602
0.00752955
0.00721035
0.00683177
0.00638635
0.0058653
0.00525735
0.00454675
0.00370943
0.00270591
0.0014747
0.000166427
0.00864843
0.00860375
0.00853952
0.00845273
0.00833965
0.00819596
0.00801678
0.00779677
0.00753019
0.00721088
0.0068322
0.00638669
0.00586555
0.00525753
0.00454688
0.00370951
0.00270595
0.00147471
0.000166427
0.00864935
0.00860464
0.00854037
0.00845352
0.00834038
0.00819662
0.00801736
0.00779728
0.00753062
0.00721125
0.00683249
0.00638692
0.00586572
0.00525765
0.00454696
0.00370956
0.00270598
0.00147472
0.000166428
0.00864998
0.00860525
0.00854094
0.00845406
0.00834088
0.00819707
0.00801776
0.00779762
0.00753092
0.00721149
0.00683269
0.00638707
0.00586584
0.00525774
0.00454701
0.00370959
0.002706
0.00147473
0.000166428
0.0086504
0.00860566
0.00854134
0.00845443
0.00834122
0.00819738
0.00801803
0.00779786
0.00753112
0.00721166
0.00683282
0.00638718
0.00586592
0.00525779
0.00454705
0.00370962
0.00270601
0.00147473
0.000166428
0.00865069
0.00860594
0.0085416
0.00845468
0.00834145
0.00819758
0.00801822
0.00779802
0.00753125
0.00721177
0.00683291
0.00638724
0.00586597
0.00525783
0.00454707
0.00370963
0.00270601
0.00147473
0.000166428
0.00865089
0.00860613
0.00854178
0.00845484
0.0083416
0.00819772
0.00801834
0.00779812
0.00753134
0.00721184
0.00683297
0.00638729
0.005866
0.00525785
0.00454709
0.00370964
0.00270602
0.00147473
0.000166428
0.00865102
0.00860625
0.0085419
0.00845496
0.0083417
0.00819781
0.00801842
0.00779819
0.0075314
0.00721189
0.00683301
0.00638732
0.00586602
0.00525787
0.0045471
0.00370965
0.00270602
0.00147474
0.000166428
0.0086511
0.00860633
0.00854198
0.00845503
0.00834177
0.00819787
0.00801847
0.00779824
0.00753144
0.00721192
0.00683303
0.00638734
0.00586604
0.00525788
0.00454711
0.00370965
0.00270602
0.00147474
0.000166428
0.00865116
0.00860639
0.00854203
0.00845508
0.00834181
0.00819791
0.00801851
0.00779827
0.00753146
0.00721194
0.00683305
0.00638735
0.00586605
0.00525788
0.00454711
0.00370965
0.00270603
0.00147474
0.000166428
0.00865119
0.00860642
0.00854206
0.00845511
0.00834184
0.00819794
0.00801853
0.00779829
0.00753148
0.00721195
0.00683306
0.00638736
0.00586605
0.00525789
0.00454711
0.00370965
0.00270603
0.00147474
0.000166428
0.00865121
0.00860644
0.00854208
0.00845512
0.00834186
0.00819795
0.00801854
0.0077983
0.00753149
0.00721196
0.00683307
0.00638736
0.00586606
0.00525789
0.00454711
0.00370965
0.00270603
0.00147474
0.000166428
0.00865122
0.00860645
0.00854209
0.00845514
0.00834187
0.00819796
0.00801855
0.00779831
0.00753149
0.00721197
0.00683307
0.00638737
0.00586606
0.00525789
0.00454712
0.00370965
0.00270603
0.00147474
0.000166428
0.00865122
0.00860646
0.0085421
0.00845514
0.00834187
0.00819797
0.00801856
0.00779831
0.0075315
0.00721197
0.00683307
0.00638737
0.00586606
0.00525789
0.00454712
0.00370965
0.00270603
0.00147474
0.000166428
)
;

boundaryField
{
    leftWall
    {
        type            nutkWallFunction;
        blending        stepwise;
        value           nonuniform List<scalar> 
50
(
0
1.71618e-06
3.91329e-06
5.44915e-06
6.59409e-06
7.49302e-06
8.22458e-06
8.83471e-06
9.63821e-06
1.04405e-05
1.10431e-05
1.15031e-05
1.1857e-05
1.21296e-05
1.23391e-05
1.24995e-05
1.26213e-05
1.2713e-05
1.27815e-05
1.28321e-05
1.28691e-05
1.28958e-05
1.29149e-05
1.29285e-05
1.2938e-05
1.29446e-05
1.29492e-05
1.29523e-05
1.29544e-05
1.29558e-05
1.29567e-05
1.29573e-05
1.29578e-05
1.2958e-05
1.29582e-05
1.29583e-05
1.29584e-05
1.29584e-05
1.29584e-05
1.29585e-05
1.29585e-05
1.29585e-05
1.29585e-05
1.29585e-05
1.29585e-05
1.29585e-05
1.29585e-05
1.29585e-05
1.29585e-05
1.29585e-05
)
;
    }
    rightWall
    {
        type            nutkWallFunction;
        blending        stepwise;
        value           nonuniform List<scalar> 
50
(
0
3.59962e-06
5.95242e-06
7.62087e-06
8.87305e-06
9.85886e-06
1.0662e-05
1.13321e-05
1.22148e-05
1.30958e-05
1.37574e-05
1.42622e-05
1.46504e-05
1.49495e-05
1.51796e-05
1.53559e-05
1.549e-05
1.55912e-05
1.56669e-05
1.57231e-05
1.57643e-05
1.57942e-05
1.58158e-05
1.58311e-05
1.5842e-05
1.58495e-05
1.58548e-05
1.58584e-05
1.58609e-05
1.58625e-05
1.58636e-05
1.58644e-05
1.58649e-05
1.58652e-05
1.58654e-05
1.58656e-05
1.58656e-05
1.58657e-05
1.58657e-05
1.58658e-05
1.58658e-05
1.58658e-05
1.58658e-05
1.58658e-05
1.58658e-05
1.58658e-05
1.58658e-05
1.58658e-05
1.58658e-05
1.58658e-05
)
;
    }
    lowerWall
    {
        type            nutkWallFunction;
        blending        stepwise;
        value           nonuniform List<scalar> 
62
(
0
0
0
0
0
0
0
0
0
0
0
0
0
0
0
0
0
0
0
0
0
0
0
0
2.62968e-06
5.34025e-06
7.32794e-06
9.0011e-06
1.06872e-05
1.29645e-05
1.73494e-05
1.94048e-05
1.71537e-05
1.71316e-05
1.93037e-05
0
4.55324e-06
7.48998e-06
9.67258e-06
1.15321e-05
1.3441e-05
1.60439e-05
2.08409e-05
0
0
0
0
0
0
0
0
0
0
0
0
0
0
0
0
0
0
0
)
;
    }
    atmosphere
    {
        type            calculated;
        value           nonuniform List<scalar> 
46
(
0.00014741
0.00133376
0.00248297
0.00343375
0.00423593
0.00492421
0.00552041
0.00603892
0.0064899
0.00688103
0.0072186
0.00750803
0.00775422
0.00796172
0.00813481
0.00827748
0.00839344
0.00848608
0.00855839
0.00861295
0.00865187
0.00867676
0.00868869
0.00868833
0.00868531
0.00867948
0.00867077
0.00865122
0.00860646
0.0085421
0.00845514
0.00834187
0.00819797
0.00801856
0.00779831
0.0075315
0.00721197
0.00683307
0.00638737
0.00586606
0.00525789
0.00454712
0.00370965
0.00270603
0.00147474
0.000166428
)
;
    }
    defaultFaces
    {
        type            empty;
    }
}


// ************************************************************************* //
