/*--------------------------------*- C++ -*----------------------------------*\
| =========                 |                                                 |
| \\      /  F ield         | OpenFOAM: The Open Source CFD Toolbox           |
|  \\    /   O peration     | Version:  2406                                  |
|   \\  /    A nd           | Website:  www.openfoam.com                      |
|    \\/     M anipulation  |                                                 |
\*---------------------------------------------------------------------------*/
FoamFile
{
    version     2.0;
    format      ascii;
    arch        "LSB;label=32;scalar=64";
    class       surfaceScalarField;
    location    "0.7";
    object      phi;
}
// * * * * * * * * * * * * * * * * * * * * * * * * * * * * * * * * * * * * * //

dimensions      [0 3 -1 0 0 0 0];

oriented        oriented;

internalField   nonuniform List<scalar> 
4432
(
-3.61324e-304
-1.8209e-304
-7.15154e-304
-8.4993e-304
-1.08166e-303
-1.12154e-303
-1.46637e-303
-1.09907e-303
-1.87575e-303
-7.39544e-304
-2.30823e-303
6.91958e-305
-2.74995e-303
1.50681e-303
-3.16323e-303
3.84715e-303
-3.45226e-303
7.51423e-303
-3.31608e-303
1.32089e-302
-1.55404e-303
2.21768e-302
8.17262e-303
3.62571e-302
1.20034e-302
5.76359e-302
-2.97024e-303
2.24113e-302
-7.06427e-303
4.65924e-303
-4.75764e-303
-9.41137e-304
-2.92769e-303
-1.76531e-303
-1.77123e-303
-1.43142e-303
-1.06119e-303
-8.91542e-304
-6.19439e-304
-4.29213e-304
-3.34817e-304
-9.85917e-305
-1.34786e-304
9.71815e-305
1.24197e-304
-1.11728e-303
-3.34416e-304
-2.19017e-303
-1.52582e-303
-3.2884e-303
-2.05058e-303
-4.44124e-303
-1.99643e-303
-5.66385e-303
-1.26549e-303
-6.94904e-303
3.61566e-304
-8.2532e-303
3.23331e-303
-9.4642e-303
7.87248e-303
-1.03214e-302
1.50741e-302
-1.01891e-302
2.60986e-302
-7.17448e-303
4.30954e-302
-8.96831e-304
7.01748e-302
7.65675e-303
1.10534e-301
-7.2822e-303
3.9266e-302
-9.54038e-303
6.52927e-303
-6.54763e-303
-1.52467e-304
-4.28568e-303
-1.45022e-303
-2.7431e-303
-1.32576e-303
-1.73355e-303
-8.56166e-304
-1.07343e-303
-3.94953e-304
-6.29846e-304
-3.23918e-305
-2.96724e-304
2.11404e-304
2.66251e-304
-1.88502e-303
-5.16507e-304
-3.71288e-303
-2.17521e-303
-5.58635e-303
-2.94658e-303
-7.55611e-303
-2.86398e-303
-9.65094e-303
-1.76567e-303
-1.18659e-302
6.73875e-304
-1.41423e-302
4.96142e-303
-1.63257e-302
1.18499e-302
-1.80752e-302
2.2465e-302
-1.8665e-302
3.85578e-302
-1.62367e-302
6.30471e-302
-1.45845e-302
1.01462e-301
2.72385e-304
1.56978e-301
-1.18754e-302
5.18345e-302
-1.12785e-302
8.34962e-303
-7.85997e-303
7.13154e-304
-5.32522e-303
-9.88152e-304
-3.53142e-303
-1.09007e-303
-2.31017e-303
-7.31304e-304
-1.48548e-303
-3.09599e-304
-9.16186e-304
5.68154e-305
-4.72519e-304
3.34824e-304
4.26616e-304
-2.69293e-303
-7.13278e-304
-5.32751e-303
-2.83393e-303
-8.03364e-303
-3.86003e-303
-1.08841e-302
-3.76144e-303
-1.39255e-302
-2.30578e-303
-1.71635e-302
9.35637e-304
-2.05398e-302
6.61897e-303
-2.38897e-302
1.57053e-302
-2.68602e-302
2.96136e-302
-2.8773e-302
5.05095e-302
-2.80149e-302
8.19052e-302
-3.15932e-302
1.30027e-301
-8.80125e-303
1.96628e-301
-1.65343e-302
6.16079e-302
-1.31739e-302
1.02731e-302
-9.23105e-303
1.55999e-303
-6.3815e-303
-5.21353e-304
-4.33914e-303
-8.33233e-304
-2.91587e-303
-5.8795e-304
-1.93424e-303
-2.15683e-304
-1.24451e-303
1.44856e-304
-6.90932e-304
4.54113e-304
5.99649e-304
-3.56564e-303
-9.27691e-304
-7.07567e-303
-3.53841e-303
-1.06873e-302
-4.84504e-303
-1.44972e-302
-4.75424e-303
-1.85736e-302
-2.96016e-303
-2.29407e-302
1.06754e-303
-2.7555e-302
8.12365e-303
-3.22668e-302
1.93579e-302
-3.67558e-302
3.64416e-302
-4.04452e-302
6.18796e-302
-4.19418e-302
9.96043e-302
-5.09409e-302
1.56099e-301
-1.91786e-302
2.3155e-301
-2.15444e-302
7.0253e-302
-1.54196e-302
1.22242e-302
-1.0792e-302
2.36821e-303
-7.55116e-303
-8.476e-305
-5.22921e-303
-5.89749e-304
-3.59084e-303
-4.52505e-304
-2.44632e-303
-1.33085e-304
-1.63489e-303
2.1311e-304
-9.6824e-304
5.45297e-304
7.50379e-304
-4.52543e-303
-1.16775e-303
-8.99748e-303
-4.32174e-303
-1.36038e-302
-5.95322e-303
-1.84664e-302
-5.90823e-303
-2.36794e-302
-3.80464e-303
-2.9292e-302
9.86641e-304
-3.52869e-302
9.39048e-303
-4.15481e-302
2.27236e-302
-4.7812e-302
4.28708e-302
-5.3615e-302
7.25975e-302
-5.76988e-302
1.16111e-301
-7.21491e-302
1.79978e-301
-3.07323e-302
2.63475e-301
-2.7034e-302
7.83806e-302
-1.80434e-302
1.41761e-302
-1.25837e-302
3.14582e-303
-8.87327e-303
3.18628e-304
-6.2302e-303
-3.69448e-304
-4.35381e-303
-3.35719e-304
-3.03384e-303
-7.29508e-305
-2.098e-303
2.45491e-304
-1.322e-303
5.7574e-304
8.00335e-304
-5.59325e-303
-1.44579e-303
-1.11323e-302
-5.21594e-303
-1.68394e-302
-7.23741e-303
-2.28631e-302
-7.2927e-303
-2.93267e-302
-4.92141e-303
-3.63096e-302
6.03219e-304
-4.38296e-302
1.03264e-302
-5.18158e-302
2.57127e-302
-6.0074e-302
4.88207e-302
-6.82514e-302
8.26039e-302
-7.5167e-302
1.31422e-301
-9.50986e-302
2.01863e-301
-4.34803e-302
2.93071e-301
-3.30464e-302
8.60787e-302
-2.10258e-302
1.61226e-302
-1.46152e-302
3.91088e-303
-1.03647e-302
6.98542e-304
-7.35692e-303
-1.71037e-304
-5.21424e-303
-2.40443e-304
-3.70053e-303
-4.07513e-305
-2.63464e-303
2.30057e-304
-1.77104e-303
5.04414e-304
6.03261e-304
-6.78918e-303
-1.77415e-303
-1.35196e-302
-6.24314e-303
-2.04507e-302
-8.73806e-303
-2.77594e-302
-8.9665e-303
-3.55999e-302
-6.3864e-303
-4.40863e-302
-1.7429e-304
-5.32763e-302
1.08262e-302
-6.31516e-302
2.82093e-302
-7.35926e-302
5.41691e-302
-8.43558e-302
9.17821e-302
-9.42214e-302
1.45452e-301
-1.20025e-301
2.21595e-301
-5.71654e-302
3.18693e-301
-3.95695e-302
9.30423e-302
-2.43143e-302
1.80651e-302
-1.68654e-302
4.68995e-303
-1.20183e-302
1.07654e-303
-8.60624e-303
1.88252e-305
-6.16725e-303
-1.58907e-304
-4.43497e-303
-3.19764e-305
-3.22067e-303
1.69215e-304
-2.32945e-303
3.31773e-304
2.32435e-304
-2.57022e-307
-1.36072e-306
-3.46436e-307
-5.66707e-306
-2.60502e-307
-4.83755e-306
-2.68939e-307
-2.69908e-306
-2.5792e-307
-1.21134e-306
-2.05745e-307
-4.64645e-307
-1.41161e-307
-1.49719e-307
-8.66403e-308
-3.37573e-308
-4.88623e-308
2.116e-309
-2.57371e-308
9.41264e-309
-1.27765e-308
8.19614e-309
-6.00086e-309
5.45232e-309
-2.66528e-309
3.18735e-309
-1.1135e-309
1.7081e-309
-4.32181e-310
8.51072e-310
-1.51798e-310
3.9428e-310
-4.53294e-311
1.66943e-310
-9.42128e-312
5.9482e-311
1.05565e-311
-5.18084e-307
-3.81361e-306
-9.31468e-307
-1.0884e-305
-9.16978e-307
-8.39997e-306
-8.6896e-307
-4.51092e-306
-7.23272e-307
-1.97595e-306
-5.2797e-307
-7.3074e-307
-3.46249e-307
-2.13583e-307
-2.08732e-307
-2.93494e-308
-1.17582e-307
2.20995e-308
-6.25487e-308
2.76285e-308
-3.16087e-308
2.08902e-308
-1.52098e-308
1.32476e-308
-6.96223e-309
7.6029e-309
-3.01706e-309
4.05919e-309
-1.22451e-309
2.03691e-309
-4.55078e-310
9.6142e-310
-1.46715e-310
4.22054e-310
-3.38294e-311
1.62084e-310
3.50081e-311
-9.95231e-307
-8.97456e-306
-1.9218e-306
-1.87591e-305
-2.00472e-306
-1.30462e-305
-1.8002e-306
-6.65976e-306
-1.39938e-306
-2.8239e-306
-9.71509e-307
-1.00504e-306
-6.17866e-307
-2.66424e-307
-3.66608e-307
-1.16398e-308
-2.05423e-307
5.29199e-308
-1.09527e-307
5.34772e-308
-5.57976e-308
3.85263e-308
-2.71958e-308
2.40573e-308
-1.26646e-308
1.37725e-308
-5.60907e-309
7.39096e-309
-2.33987e-309
3.75228e-309
-9.01115e-310
1.80598e-309
-3.0527e-310
8.18743e-310
-7.59127e-311
3.33471e-310
8.32079e-311
-2.14284e-306
-2.00676e-305
-3.83372e-306
-3.13102e-305
-3.93445e-306
-1.95441e-305
-3.33838e-306
-9.43107e-306
-2.46161e-306
-3.86158e-306
-1.6444e-306
-1.3251e-306
-1.02034e-306
-3.19238e-307
-5.97183e-307
1.80351e-308
-3.32808e-307
9.61673e-308
-1.77587e-307
8.89614e-308
-9.0984e-308
6.27317e-308
-4.47794e-308
3.9007e-308
-2.11356e-308
2.24066e-308
-9.5243e-309
1.21249e-308
-4.06124e-309
6.23577e-309
-1.60926e-309
3.05839e-309
-5.67156e-310
1.42674e-309
-1.49913e-310
6.10126e-310
1.70709e-310
-4.9687e-306
-4.38642e-305
-7.55118e-306
-5.07715e-305
-7.3345e-306
-2.83938e-305
-5.85632e-306
-1.29582e-305
-4.12299e-306
-5.13843e-306
-2.66827e-306
-1.71098e-306
-1.62309e-306
-3.78903e-307
-9.39723e-307
5.85427e-308
-5.21589e-307
1.52827e-307
-2.78637e-307
1.3554e-307
-1.43505e-307
9.47999e-308
-7.12453e-308
5.9055e-308
-3.40287e-308
3.4148e-308
-1.55681e-308
1.86642e-308
-6.76581e-309
9.72841e-309
-2.7475e-309
4.85799e-309
-1.00157e-309
2.32514e-309
-2.78852e-310
1.03641e-309
3.19943e-310
-1.19304e-305
-9.39376e-305
-1.46765e-305
-7.91719e-305
-1.31525e-305
-3.97738e-305
-9.8551e-306
-1.72704e-305
-6.65211e-306
-6.67967e-306
-4.19157e-306
-2.17865e-306
-2.50974e-306
-4.52424e-307
-1.4415e-306
1.08156e-307
-7.98269e-307
2.23496e-307
-4.2731e-307
1.94498e-307
-2.21281e-307
1.35981e-307
-1.10781e-307
8.51743e-308
-5.34991e-308
4.96721e-308
-2.48156e-308
2.74442e-308
-1.09707e-308
1.44964e-308
-4.55329e-309
7.36139e-309
-1.71012e-309
3.60354e-309
-4.98641e-310
1.66177e-309
5.56749e-310
-2.88546e-305
-2.02812e-304
-2.8084e-305
-1.1633e-304
-2.27528e-305
-5.31736e-305
-1.59884e-305
-2.22633e-305
-1.03908e-305
-8.48881e-306
-6.40432e-306
-2.74328e-306
-3.78888e-306
-5.49409e-307
-2.16486e-306
1.62637e-307
-1.19837e-306
3.06973e-307
-6.43535e-307
2.65977e-307
-3.35273e-307
1.8684e-307
-1.69275e-307
1.17947e-307
-8.2626e-308
6.9437e-308
-3.8828e-308
3.87816e-308
-1.74387e-308
2.07411e-308
-7.38253e-309
1.06885e-308
-2.8474e-309
5.3284e-309
-8.65444e-310
2.51801e-309
8.94617e-310
-6.77699e-305
-3.2015e-304
-5.2493e-305
-1.52655e-304
-3.75962e-305
-6.66362e-305
-2.48767e-305
-2.7481e-305
-1.56565e-305
-1.04349e-305
-9.48475e-306
-3.36195e-306
-5.56384e-306
-6.55133e-307
-3.17e-306
2.26944e-307
-1.75666e-306
4.04802e-307
-9.47097e-307
3.50379e-307
-4.96513e-307
2.47434e-307
-2.52736e-307
1.57345e-307
-1.24595e-307
9.34066e-308
-5.92426e-308
5.26469e-308
-2.6982e-308
2.8439e-308
-1.16206e-308
1.48189e-308
-4.58514e-309
7.47934e-309
-1.44758e-309
3.58225e-309
1.30539e-309
-1.88135e-302
-2.6255e-303
-3.74795e-302
-8.82996e-303
-5.66785e-302
-1.26244e-302
-7.6884e-302
-1.35362e-302
-9.85354e-302
-1.08448e-302
-1.21999e-301
-3.53736e-303
-1.47543e-301
9.74745e-303
-1.75315e-301
3.08097e-302
-2.05311e-301
6.20221e-302
-2.37371e-301
1.06532e-301
-2.66519e-301
1.68553e-301
-3.46524e-301
2.5362e-301
-1.68821e-301
3.57524e-301
-1.07042e-301
1.0451e-301
-6.32992e-302
2.18056e-302
-4.38165e-302
6.27799e-303
-3.14035e-302
1.86045e-303
-2.27104e-302
4.0942e-304
-1.64589e-302
-4.00259e-306
-1.19572e-302
-4.39245e-305
-8.73716e-303
3.33882e-306
-6.41577e-303
-2.63913e-305
-2.8205e-304
-4.20974e-303
-2.51055e-302
-3.7126e-303
-5.00298e-302
-1.20967e-302
-7.56595e-302
-1.76849e-302
-1.02625e-301
-1.98238e-302
-1.31539e-301
-1.7621e-302
-1.62962e-301
-9.8955e-303
-1.97378e-301
4.87383e-303
-2.35189e-301
2.86163e-302
-2.76701e-301
6.37618e-302
-3.22127e-301
1.13353e-301
-3.65325e-301
1.81187e-301
-4.75042e-301
2.71747e-301
-2.41546e-301
3.78983e-301
-1.40089e-301
1.11595e-301
-7.98807e-302
2.45409e-302
-5.48916e-302
7.495e-303
-3.93567e-302
2.46925e-303
-2.85687e-302
7.05403e-304
-2.07767e-302
9.73088e-305
-1.50696e-302
-7.96726e-305
-1.08449e-302
-1.34594e-304
-7.62338e-303
-2.20019e-304
-4.04676e-304
-4.92937e-303
-3.17219e-302
-5.14277e-303
-6.31832e-302
-1.63978e-302
-9.55283e-302
-2.44877e-302
-1.29563e-301
-2.85853e-302
-1.6609e-301
-2.76334e-302
-2.05868e-301
-2.02969e-302
-2.49593e-301
-4.92476e-303
-2.9789e-301
2.04972e-302
-3.51305e-301
5.8394e-302
-4.10299e-301
1.11641e-301
-4.67805e-301
1.8359e-301
-6.05527e-301
2.77812e-301
-3.16631e-301
3.87038e-301
-1.74685e-301
1.15007e-301
-9.73279e-302
2.60384e-302
-6.62949e-302
8.11479e-303
-4.73701e-302
2.74527e-303
-3.4345e-302
8.09548e-304
-2.49411e-302
9.67689e-305
-1.80067e-302
-1.47838e-304
-1.28134e-302
-2.36585e-304
-8.83253e-303
-3.05533e-304
-3.90082e-304
-5.67206e-303
-3.86879e-302
-7.04171e-303
-7.69675e-302
-2.21117e-302
-1.16296e-301
-3.36457e-302
-1.57668e-301
-4.06428e-302
-2.02091e-301
-4.18801e-302
-2.50519e-301
-3.58737e-302
-3.03846e-301
-2.08523e-302
-3.62886e-301
5.26757e-303
-4.28364e-301
4.48975e-302
-5.00899e-301
1.00764e-301
-5.7237e-301
1.75867e-301
-7.37456e-301
2.73138e-301
-3.93249e-301
3.84576e-301
-2.10737e-301
1.15423e-301
-1.15673e-301
2.62781e-302
-7.81239e-302
8.04013e-303
-5.55572e-302
2.59955e-303
-4.01584e-302
6.56873e-304
-2.90799e-302
-4.80737e-305
-2.0911e-302
-2.77297e-304
-1.47896e-302
-3.36818e-304
-1.01232e-302
-3.51414e-304
-3.51963e-304
-6.5007e-303
-4.60133e-302
-9.54997e-303
-9.13881e-302
-2.96539e-302
-1.37952e-301
-4.58359e-302
-1.86909e-301
-5.69091e-302
-2.39475e-301
-6.14751e-302
-2.96809e-301
-5.7893e-302
-3.5999e-301
-4.42661e-302
-4.29998e-301
-1.84299e-302
-5.07698e-301
2.20405e-302
-5.93821e-301
7.97924e-302
-6.79138e-301
1.57624e-301
-8.71352e-301
2.58109e-301
-4.71844e-301
3.72839e-301
-2.4831e-301
1.13038e-301
-1.34909e-301
2.51848e-302
-9.04199e-302
7.17079e-303
-6.39831e-302
1.94364e-303
-4.60847e-302
1.7708e-304
-3.32715e-302
-3.92162e-304
-2.38529e-302
-5.15002e-304
-1.6817e-302
-4.84134e-304
-1.14845e-302
-4.1414e-304
-3.36088e-304
-7.3877e-303
-5.36949e-302
-1.28272e-302
-1.06427e-301
-3.94938e-302
-1.60465e-301
-6.18237e-302
-2.17239e-301
-7.84202e-302
-2.78197e-301
-8.76858e-302
-3.44708e-301
-8.78052e-302
-4.18038e-301
-7.67364e-302
-4.99324e-301
-5.22087e-302
-5.89553e-301
-1.17321e-302
-6.89548e-301
4.73528e-302
-7.88954e-301
1.27806e-301
-1.00854e-300
2.32108e-301
-5.53371e-301
3.51664e-301
-2.87596e-301
1.07582e-301
-1.55043e-301
2.25419e-302
-1.03199e-301
5.34501e-303
-7.26775e-302
6.55924e-304
-5.21611e-302
-7.21735e-304
-3.75518e-302
-1.00657e-303
-2.68578e-302
-9.19088e-304
-1.89007e-302
-7.29386e-304
-1.28978e-302
-5.36873e-304
-3.66757e-304
-8.31035e-303
-6.17074e-302
-1.70585e-302
-1.22024e-301
-5.21709e-302
-1.83745e-301
-8.24907e-302
-2.48558e-301
-1.06369e-301
-3.18171e-301
-1.21974e-301
-3.94185e-301
-1.2729e-301
-4.78062e-301
-1.20104e-301
-5.71097e-301
-9.80065e-302
-6.74399e-301
-5.8388e-302
-7.88878e-301
1.52264e-303
-9.03047e-301
8.46032e-302
-1.15075e-300
1.93481e-301
-6.39076e-301
3.19549e-301
-3.28889e-301
9.82843e-302
-1.76103e-301
1.7945e-302
-1.16466e-301
2.30609e-303
-8.16467e-302
-1.43834e-303
-5.83971e-302
-2.16256e-303
-4.19298e-302
-1.98041e-303
-2.99286e-302
-1.55636e-303
-2.10333e-302
-1.12358e-303
-1.43475e-302
-7.56116e-304
-4.6308e-304
-9.25489e-303
-6.99859e-302
-2.24627e-302
-1.38038e-301
-6.83174e-302
-2.07592e-301
-1.08866e-301
-2.80638e-301
-1.42144e-301
-3.59185e-301
-1.6604e-301
-4.45097e-301
-1.78301e-301
-5.40055e-301
-1.76526e-301
-6.45522e-301
-1.58138e-301
-7.62731e-301
-1.2036e-301
-8.92679e-301
-6.02258e-302
-1.02275e-300
2.54039e-302
-1.29986e-300
1.39516e-301
-7.30311e-301
2.73661e-301
-3.72529e-301
8.38356e-302
-1.98123e-301
1.07706e-302
-1.30213e-301
-2.3145e-303
-9.08764e-302
-4.57514e-303
-6.47814e-302
-4.3017e-303
-4.63958e-302
-3.41976e-303
-3.30547e-302
-2.50034e-303
-2.32025e-302
-1.7179e-303
-1.58206e-302
-1.10555e-303
-6.43386e-304
-1.02118e-302
-7.83973e-302
-2.93034e-302
-1.54193e-301
-8.86853e-302
-2.31614e-301
-1.42168e-301
-3.13017e-301
-1.8738e-301
-4.0077e-301
-2.21867e-301
-4.97044e-301
-2.4311e-301
-6.03762e-301
-2.48509e-301
-7.22572e-301
-2.35316e-301
-8.54836e-301
-2.00565e-301
-1.00164e-300
-1.41034e-301
-1.14925e-300
-5.32117e-302
-1.45758e-300
6.64383e-302
-8.28357e-301
2.09797e-301
-4.18835e-301
6.23278e-302
-2.21113e-301
1.56352e-304
-1.44404e-301
-9.00028e-303
-1.0033e-301
-9.04802e-303
-7.12834e-302
-7.32283e-303
-5.09258e-302
-5.44179e-303
-3.62166e-302
-3.82709e-303
-2.5392e-302
-2.56191e-303
-1.73043e-302
-1.61639e-303
-9.25375e-304
-1.11723e-302
-8.67012e-302
-3.79065e-302
-1.69997e-301
-1.1419e-301
-2.55113e-301
-1.83866e-301
-3.4486e-301
-2.44021e-301
-4.42044e-301
-2.91779e-301
-5.49188e-301
-3.24342e-301
-6.68485e-301
-3.3893e-301
-8.01779e-301
-3.32656e-301
-9.50563e-301
-3.02384e-301
-1.11601e-300
-2.44621e-301
-1.28327e-300
-1.55416e-301
-1.62518e-300
-3.05392e-302
-9.3418e-301
1.22401e-301
-4.6801e-301
3.12121e-302
-2.45017e-301
-1.49981e-302
-1.58963e-301
-1.83333e-302
-1.09942e-301
-1.51887e-302
-7.78527e-302
-1.14201e-302
-5.5482e-302
-8.16208e-303
-3.93861e-302
-5.60673e-303
-2.75806e-302
-3.69877e-303
-1.87833e-302
-2.31499e-303
-1.32432e-303
-1.21267e-302
-9.44912e-302
-4.8689e-302
-1.8463e-301
-1.45976e-301
-2.76931e-301
-2.35763e-301
-3.74784e-301
-3.14403e-301
-4.81519e-301
-3.78511e-301
-6.00057e-301
-4.25019e-301
-7.32874e-301
-4.51039e-301
-8.82004e-301
-4.5364e-301
-1.04906e-300
-4.29595e-301
-1.23531e-300
-3.75181e-301
-1.42476e-300
-2.86011e-301
-1.80309e-300
-1.57084e-301
-1.04818e-300
4.66743e-303
-5.20028e-301
-1.26911e-302
-2.69674e-301
-3.59898e-302
-1.73755e-301
-3.09445e-302
-1.19611e-301
-2.33243e-302
-8.44161e-302
-1.6766e-302
-6.00116e-302
-1.16731e-302
-4.25249e-302
-7.89005e-303
-2.97407e-302
-5.15736e-303
-2.02383e-302
-3.21824e-303
-1.85021e-303
-1.30623e-302
-1.0111e-301
-6.2209e-302
-1.9678e-301
-1.85524e-301
-2.95242e-301
-3.00135e-301
-4.00628e-301
-4.01382e-301
-5.16879e-301
-4.85289e-301
-6.47329e-301
-5.48589e-301
-7.94716e-301
-5.88447e-301
-9.61223e-301
-6.02061e-301
-1.14856e-300
-5.86265e-301
-1.35806e-300
-5.37231e-301
-1.57259e-300
-4.50219e-301
-1.99054e-300
-3.19487e-301
-1.16984e-300
-1.51183e-301
-5.74499e-301
-7.30691e-302
-2.94771e-301
-6.4189e-302
-1.88566e-301
-4.74089e-302
-1.29191e-301
-3.37008e-302
-9.08724e-302
-2.34615e-302
-6.44428e-302
-1.6013e-302
-4.55811e-302
-1.06902e-302
-3.18348e-302
-6.94193e-303
-2.1643e-302
-4.32781e-303
-2.50432e-303
-1.39616e-302
-1.055e-301
-7.9265e-302
-2.04377e-301
-2.34833e-301
-3.07237e-301
-3.79934e-301
-4.19152e-301
-5.08505e-301
-5.44719e-301
-6.15936e-301
-6.8762e-301
-6.9896e-301
-8.50748e-301
-7.55084e-301
-1.03635e-300
-7.81914e-301
-1.24616e-300
-7.76591e-301
-1.48152e-300
-7.35378e-301
-1.72421e-300
-6.53366e-301
-2.18515e-300
-5.24257e-301
-1.29744e-300
-3.53405e-301
-6.30513e-301
-1.53788e-301
-3.19791e-301
-1.00774e-301
-2.03085e-301
-6.80575e-302
-1.3848e-301
-4.63636e-302
-9.70829e-302
-3.14653e-302
-6.86764e-302
-2.11269e-302
-4.84824e-302
-1.39618e-302
-3.38103e-302
-9.02096e-303
-2.296e-302
-5.62411e-303
-3.27589e-303
-1.47997e-302
-1.05945e-301
-1.01101e-301
-2.0414e-301
-2.96738e-301
-3.0865e-301
-4.79109e-301
-4.25642e-301
-6.40232e-301
-5.60261e-301
-7.74976e-301
-7.16296e-301
-8.80496e-301
-8.96549e-301
-9.55117e-301
-1.10314e-300
-9.97269e-301
-1.33771e-300
-1.00471e-300
-1.60161e-300
-9.74044e-301
-1.87549e-300
-9.0049e-301
-2.38268e-300
-7.77553e-301
-1.42773e-300
-6.09972e-301
-6.8645e-301
-2.58208e-301
-3.43958e-301
-1.46227e-301
-2.16871e-301
-9.26727e-302
-1.47196e-301
-6.09936e-302
-1.02851e-301
-4.05115e-302
-7.25693e-302
-2.68268e-302
-5.11235e-302
-1.75819e-302
-3.55909e-302
-1.13179e-302
-2.41357e-302
-7.06153e-303
-4.13941e-303
-1.55411e-302
-9.94994e-302
-1.29859e-301
-1.90734e-301
-3.75467e-301
-2.92972e-301
-6.03073e-301
-4.13359e-301
-8.02207e-301
-5.5706e-301
-9.67701e-301
-7.27376e-301
-1.09795e-300
-9.26547e-301
-1.19282e-300
-1.15627e-300
-1.25208e-300
-1.41797e-300
-1.27446e-300
-1.71291e-300
-1.25717e-300
-2.02067e-300
-1.19589e-300
-2.5769e-300
-1.08449e-300
-1.55567e-300
-9.27561e-301
-7.39676e-301
-3.87853e-301
-3.66106e-301
-1.99442e-301
-2.29281e-301
-1.20053e-301
-1.54917e-301
-7.67185e-302
-1.07879e-301
-5.00353e-302
-7.59056e-302
-3.27638e-302
-5.33482e-302
-2.13399e-302
-3.70654e-302
-1.37072e-302
-2.50938e-302
-8.56633e-303
-5.05326e-303
-1.61361e-302
-8.06692e-302
-1.69486e-301
-1.55076e-301
-4.77575e-301
-2.50177e-301
-7.59322e-301
-3.72857e-301
-1.00145e-300
-5.26799e-301
-1.20009e-300
-7.13614e-301
-1.35625e-300
-9.34257e-301
-1.47232e-300
-1.18964e-300
-1.54998e-300
-1.48084e-300
-1.58919e-300
-1.80901e-300
-1.58796e-300
-2.15268e-300
-1.54268e-300
-2.75986e-300
-1.44835e-300
-1.67399e-300
-1.31034e-300
-7.85804e-301
-5.39624e-301
-3.84368e-301
-2.56214e-301
-2.39289e-301
-1.47487e-301
-1.60972e-301
-9.19656e-302
-1.11699e-301
-5.9146e-302
-7.83566e-302
-3.84317e-302
-5.4928e-302
-2.4944e-302
-3.80785e-302
-1.60184e-302
-2.57317e-302
-1.00387e-302
-5.96022e-303
-1.65202e-302
-3.78085e-302
-2.27162e-301
-8.08648e-302
-6.13222e-301
-1.64698e-301
-9.57886e-301
-2.91294e-301
-1.2462e-300
-4.59394e-301
-1.47839e-300
-6.66966e-301
-1.66007e-300
-9.12843e-301
-1.79726e-300
-1.19695e-300
-1.894e-300
-1.52002e-300
-1.95157e-300
-1.88316e-300
-1.9687e-300
-2.26384e-300
-1.94251e-300
-2.92259e-300
-1.86991e-300
-1.77198e-300
-1.75858e-300
-8.16493e-301
-6.98891e-301
-3.95491e-301
-3.06881e-301
-2.45149e-301
-1.70361e-301
-1.64259e-301
-1.04502e-301
-1.13587e-301
-6.67095e-302
-7.94462e-302
-4.3221e-302
-5.5553e-302
-2.80505e-302
-3.84314e-302
-1.80509e-302
-2.59249e-302
-1.13596e-302
-6.79052e-303
-1.66181e-302
5.79429e-302
-2.85257e-301
6.25694e-302
-7.70778e-301
-1.27125e-302
-1.18473e-300
-1.52336e-301
-1.51868e-300
-3.43919e-301
-1.78196e-300
-5.79671e-301
-1.98693e-300
-8.56087e-301
-2.14408e-300
-1.17255e-300
-2.26004e-300
-1.52992e-300
-2.33721e-300
-1.92938e-300
-2.37456e-300
-2.34704e-300
-2.36931e-300
-3.05658e-300
-2.31583e-300
-1.83082e-300
-2.26623e-300
-8.12922e-301
-8.1654e-301
-3.9374e-301
-3.33122e-301
-2.43943e-301
-1.82533e-301
-1.63079e-301
-1.11898e-301
-1.1253e-301
-7.15879e-302
-7.85688e-302
-4.65287e-302
-5.48616e-302
-3.03137e-302
-3.79087e-302
-1.95975e-302
-2.55458e-302
-1.24024e-302
-7.46799e-303
-1.6357e-302
2.8792e-301
-6.33356e-301
3.3292e-301
-1.25237e-300
2.38486e-301
-1.73568e-300
6.08028e-302
-2.11131e-300
-1.71828e-301
-2.40187e-300
-4.46643e-301
-2.62753e-300
-7.59867e-301
-2.80344e-300
-1.11237e-300
-2.93866e-300
-1.50651e-300
-3.03643e-300
-1.94393e-300
-3.09536e-300
-2.39352e-300
-3.11205e-300
-3.15834e-300
-3.08885e-300
-1.81589e-300
-1.93392e-300
-7.34111e-301
-7.10062e-301
-3.70373e-301
-3.1487e-301
-2.31151e-301
-1.79971e-301
-1.55207e-301
-1.12666e-301
-1.074e-301
-7.30065e-302
-7.51382e-302
-4.78945e-302
-5.25419e-302
-3.14468e-302
-3.6341e-302
-2.0476e-302
-2.4502e-302
-1.30514e-302
-7.92027e-303
-1.56871e-302
8.52958e-301
-9.26442e-302
7.83958e-301
-5.92217e-301
5.96672e-301
-9.48798e-301
3.41641e-301
-1.21283e-300
4.76956e-302
-1.41215e-300
-2.7545e-301
-1.56465e-300
-6.28938e-301
-1.6823e-300
-1.01872e-300
-1.77167e-300
-1.45121e-300
-1.83409e-300
-1.9295e-300
-1.86493e-300
-2.44894e-300
-1.85052e-300
-2.0541e-300
-1.76595e-300
-1.00925e-300
-9.7364e-301
-4.98856e-301
-4.7132e-301
-3.04634e-301
-2.64926e-301
-2.01591e-301
-1.64555e-301
-1.39018e-301
-1.06896e-301
-9.76264e-302
-7.07596e-302
-6.8939e-302
-4.7108e-302
-4.85094e-302
-3.12854e-302
-3.36959e-302
-2.0568e-302
-2.27823e-302
-1.32243e-302
-8.09278e-303
-1.46062e-302
4.87086e-301
-3.31999e-301
3.59973e-301
-5.30434e-301
2.42125e-301
-6.46147e-301
1.18751e-301
-7.2899e-301
-7.52718e-303
-7.90418e-301
-1.39727e-301
-8.35315e-301
-2.81846e-301
-8.66771e-301
-4.36903e-301
-8.86226e-301
-6.03406e-301
-8.92811e-301
-7.67199e-301
-8.8147e-301
-8.75947e-301
-8.37475e-301
-7.46264e-301
-7.28438e-301
-4.86758e-301
-4.89819e-301
-3.28192e-301
-3.21669e-301
-2.29642e-301
-2.11638e-301
-1.63288e-301
-1.41803e-301
-1.17196e-301
-9.60521e-302
-8.43426e-302
-6.52954e-302
-6.05239e-302
-4.42983e-302
-4.30604e-302
-2.9849e-302
-3.01419e-302
-1.9857e-302
-2.04854e-302
-1.28964e-302
-7.9629e-303
-1.31724e-302
7.88351e-302
-2.37171e-301
4.20925e-302
-3.14676e-301
1.41097e-302
-3.50625e-301
-2.0316e-302
-3.81291e-301
-6.10356e-302
-4.06107e-301
-1.08071e-301
-4.24276e-301
-1.61269e-301
-4.3585e-301
-2.19359e-301
-4.41069e-301
-2.78213e-301
-4.39772e-301
-3.2826e-301
-4.30722e-301
-3.51213e-301
-4.10775e-301
-3.27764e-301
-3.74378e-301
-2.72764e-301
-3.03267e-301
-2.15936e-301
-2.27201e-301
-1.66318e-301
-1.64183e-301
-1.25846e-301
-1.16857e-301
-9.40996e-302
-8.24027e-302
-6.96412e-302
-5.7627e-302
-5.0968e-302
-3.99301e-302
-3.67787e-302
-2.73532e-302
-2.60089e-302
-1.84416e-302
-1.78022e-302
-1.21108e-302
-7.54721e-303
-1.14952e-302
-3.45753e-302
-1.40194e-301
-3.33402e-302
-1.95651e-301
-3.63264e-302
-2.21798e-301
-4.62126e-302
-2.41366e-301
-6.20266e-302
-2.56365e-301
-8.28017e-302
-2.66975e-301
-1.07514e-301
-2.73369e-301
-1.34536e-301
-2.75786e-301
-1.6098e-301
-2.74294e-301
-1.82211e-301
-2.68442e-301
-1.92191e-301
-2.56788e-301
-1.87156e-301
-2.36286e-301
-1.69379e-301
-2.02593e-301
-1.44725e-301
-1.62713e-301
-1.18465e-301
-1.24939e-301
-9.39756e-302
-9.31902e-302
-7.28286e-302
-6.80914e-302
-5.53721e-302
-4.89352e-302
-4.13593e-302
-3.46416e-302
-3.03088e-302
-2.41426e-302
-2.16821e-302
-1.65078e-302
-1.4963e-302
-1.09667e-302
-6.89752e-303
-9.70963e-303
-4.67682e-302
-7.93273e-302
-4.50631e-302
-1.22709e-301
-4.3963e-302
-1.45435e-301
-4.66882e-302
-1.60967e-301
-5.33512e-302
-1.72053e-301
-6.33577e-302
-1.79568e-301
-7.58611e-302
-1.83965e-301
-8.96466e-302
-1.85552e-301
-1.02961e-301
-1.84461e-301
-1.13513e-301
-1.80464e-301
-1.18911e-301
-1.72767e-301
-1.17775e-301
-1.59938e-301
-1.10327e-301
-1.4073e-301
-9.81515e-302
-1.17464e-301
-8.3564e-302
-9.38624e-302
-6.86499e-302
-7.25335e-302
-5.479e-302
-5.45985e-302
-4.26703e-302
-4.02148e-302
-3.24932e-302
-2.90523e-302
-2.41785e-302
-2.05913e-302
-1.75025e-302
-1.42779e-302
-1.21829e-302
-9.59459e-303
-6.08791e-303
-7.94619e-303
-3.85927e-302
-4.52662e-302
-3.94854e-302
-7.69508e-302
-3.88943e-302
-9.56734e-302
-3.97684e-302
-1.08513e-301
-4.27828e-302
-1.17466e-301
-4.77911e-302
-1.23433e-301
-5.43078e-302
-1.26934e-301
-6.15818e-302
-1.28301e-301
-6.86074e-302
-1.2768e-301
-7.42063e-302
-1.24967e-301
-7.72558e-302
-1.19737e-301
-7.70361e-302
-1.11334e-301
-7.34106e-302
-9.9411e-302
-6.68807e-302
-8.49643e-302
-5.8464e-302
-6.97689e-302
-4.92909e-302
-5.53738e-302
-4.02799e-302
-4.27065e-302
-3.20223e-302
-3.21336e-302
-2.48128e-302
-2.36456e-302
-1.87301e-302
-1.70252e-302
-1.37141e-302
-1.19634e-302
-9.62649e-303
-8.12728e-303
-5.19876e-303
-6.30951e-303
-2.80662e-302
-2.61692e-302
-3.0208e-302
-4.82314e-302
-3.05114e-302
-6.2684e-302
-3.10969e-302
-7.30029e-302
-3.26633e-302
-8.03007e-302
-3.52882e-302
-8.52153e-302
-3.87573e-302
-8.81758e-302
-4.26611e-302
-8.94684e-302
-4.64477e-302
-8.92347e-302
-4.94931e-302
-8.74442e-302
-5.12111e-302
-8.38917e-302
-5.11812e-302
-7.82982e-302
-4.92389e-302
-7.05987e-302
-4.55425e-302
-6.1303e-302
-4.05504e-302
-5.13248e-302
-3.48594e-302
-4.15721e-302
-2.90289e-302
-3.26978e-302
-2.34803e-302
-2.50521e-302
-1.84733e-302
-1.87363e-302
-1.41268e-302
-1.36842e-302
-1.04535e-302
-9.73405e-303
-7.39552e-303
-6.67939e-303
-4.30315e-303
-4.86817e-303
-1.92359e-302
-1.52826e-302
-2.15781e-302
-3.01978e-302
-2.23651e-302
-4.08244e-302
-2.29827e-302
-4.87928e-302
-2.39617e-302
-5.46064e-302
-2.54369e-302
-5.86245e-302
-2.73406e-302
-6.11353e-302
-2.94716e-302
-6.23503e-302
-3.15399e-302
-6.23867e-302
-3.32121e-302
-6.12549e-302
-3.41668e-302
-5.88718e-302
-3.41526e-302
-5.51357e-302
-3.30407e-302
-5.00721e-302
-3.08711e-302
-4.39749e-302
-2.78536e-302
-3.73479e-302
-2.43019e-302
-3.073e-302
-2.05444e-302
-2.45564e-302
-1.68584e-302
-1.91022e-302
-1.34387e-302
-1.44884e-302
-1.03954e-302
-1.07161e-302
-7.76589e-303
-7.70694e-303
-5.53302e-303
-5.33599e-303
-3.45847e-303
-3.65506e-303
-1.2702e-302
-8.98413e-303
-1.47516e-302
-1.88685e-302
-1.56559e-302
-2.64076e-302
-1.62842e-302
-3.23369e-302
-1.69895e-302
-3.68233e-302
-1.78903e-302
-4.00254e-302
-1.89813e-302
-4.21063e-302
-2.01731e-302
-4.32024e-302
-2.13194e-302
-4.33998e-302
-2.22435e-302
-4.27246e-302
-2.27671e-302
-4.11555e-302
-2.27404e-302
-3.86701e-302
-2.20748e-302
-3.53187e-302
-2.07709e-302
-3.12845e-302
-1.89249e-302
-2.68612e-302
-1.67018e-302
-2.23754e-302
-1.42913e-302
-1.81112e-302
-1.18681e-302
-1.4268e-302
-9.56715e-303
-1.09526e-302
-7.47494e-303
-8.19056e-303
-5.63128e-303
-5.94776e-303
-4.03695e-303
-4.15033e-303
-2.70312e-303
-2.67384e-303
-8.15857e-303
-5.30245e-303
-9.76238e-303
-1.17518e-302
-1.05825e-302
-1.69541e-302
-1.11523e-302
-2.1227e-302
-1.16909e-302
-2.45797e-302
-1.22822e-302
-2.7054e-302
-1.29398e-302
-2.87243e-302
-1.36281e-302
-2.96675e-302
-1.42763e-302
-2.99398e-302
-1.47922e-302
-2.95683e-302
-1.50774e-302
-2.85583e-302
-1.50442e-302
-2.69198e-302
-1.46353e-302
-2.47038e-302
-1.38407e-302
-2.203e-302
-1.27043e-302
-1.90774e-302
-1.13131e-302
-1.60481e-302
-9.77549e-303
-1.31261e-302
-8.19882e-303
-1.04503e-302
-6.6723e-303
-8.10419e-303
-5.25832e-303
-6.11819e-303
-3.99039e-303
-4.48021e-303
-2.87565e-303
-3.14721e-303
-2.05739e-303
-1.90794e-303
-5.12391e-303
-3.13572e-303
-6.29361e-303
-7.2866e-303
-6.95191e-303
-1.07944e-302
-7.42106e-303
-1.37889e-302
-7.83184e-303
-1.62204e-302
-8.23718e-303
-1.80739e-302
-8.65201e-303
-1.93707e-302
-9.06403e-303
-2.01466e-302
-9.44021e-303
-2.04341e-302
-9.73326e-303
-2.02544e-302
-9.88948e-303
-1.96215e-302
-9.85851e-303
-1.85549e-302
-9.60472e-303
-1.70983e-302
-9.11776e-303
-1.53319e-302
-8.41733e-303
-1.33685e-302
-7.54939e-303
-1.13351e-302
-6.57559e-303
-9.35091e-303
-5.56071e-303
-7.51035e-303
-4.56188e-303
-5.87461e-303
-3.6218e-303
-4.47102e-303
-2.76575e-303
-3.29754e-303
-2.00177e-303
-2.32937e-303
-1.52668e-303
-1.32917e-303
-3.15806e-303
-1.855e-303
-3.96917e-303
-4.49188e-303
-4.45762e-303
-6.80941e-303
-4.81585e-303
-8.85633e-303
-5.12014e-303
-1.05717e-302
-5.40164e-303
-1.19198e-302
-5.67141e-303
-1.2895e-302
-5.92609e-303
-1.35081e-302
-6.15065e-303
-1.37745e-302
-6.32115e-303
-1.37087e-302
-6.40865e-303
-1.33241e-302
-6.38465e-303
-1.26405e-302
-6.2277e-303
-1.16921e-302
-5.92971e-303
-1.05333e-302
-5.49938e-303
-9.23644e-303
-4.96104e-303
-7.88253e-303
-4.34963e-303
-6.54875e-303
-3.70377e-303
-5.29835e-303
-3.05924e-303
-4.17455e-303
-2.44417e-303
-3.199e-303
-1.8764e-303
-2.37367e-303
-1.36282e-303
-1.68438e-303
-1.10561e-303
-9.04774e-304
-1.91648e-303
-1.09623e-303
-2.45727e-303
-2.74974e-303
-2.79936e-303
-4.25224e-303
-3.05668e-303
-5.61984e-303
-3.2733e-303
-6.7996e-303
-3.46684e-303
-7.7536e-303
-3.64426e-303
-8.46535e-303
-3.80511e-303
-8.93261e-303
-3.94259e-303
-9.16025e-303
-4.04458e-303
-9.15617e-303
-4.09556e-303
-8.93095e-303
-4.07955e-303
-8.50058e-303
-3.98388e-303
-7.89041e-303
-3.80294e-303
-7.13738e-303
-3.54045e-303
-6.28851e-303
-3.20933e-303
-5.39575e-303
-2.82933e-303