/*--------------------------------*- C++ -*----------------------------------*\
| =========                 |                                                 |
| \\      /  F ield         | OpenFOAM: The Open Source CFD Toolbox           |
|  \\    /   O peration     | Version:  2406                                  |
|   \\  /    A nd           | Website:  www.openfoam.com                      |
|    \\/     M anipulation  |                                                 |
\*---------------------------------------------------------------------------*/
FoamFile
{
    version     2.0;
    format      ascii;
    arch        "LSB;label=32;scalar=64";
    class       volVectorField;
    location    "0.7";
    object      U;
}
// * * * * * * * * * * * * * * * * * * * * * * * * * * * * * * * * * * * * * //

dimensions      [0 1 -1 0 0 0 0];

internalField   nonuniform List<vector> 
2268
(
(-2.13983e-300 -6.31852e-301 0)
(-6.10975e-300 -2.70483e-300 0)
(-1.02183e-299 -3.46922e-300 0)
(-1.44777e-299 -3.43391e-300 0)
(-1.90018e-299 -2.49682e-300 0)
(-2.38244e-299 -3.48317e-301 0)
(-2.8876e-299 3.51779e-300 0)
(-3.39095e-299 9.87545e-300 0)
(-3.83119e-299 1.9966e-299 0)
(-4.05085e-299 3.5962e-299 0)
(-3.52028e-299 6.20303e-299 0)
(-9.78764e-301 1.00783e-298 0)
(2.09189e-298 1.6139e-298 0)
(2.64544e-299 6.92927e-299 0)
(-9.42696e-299 1.9748e-299 0)
(-6.70186e-299 -6.99928e-300 0)
(-4.16057e-299 -1.0023e-299 0)
(-2.52379e-299 -7.72049e-300 0)
(-1.52021e-299 -4.71405e-300 0)
(-9.02639e-300 -2.29911e-300 0)
(-5.11636e-300 -6.60434e-301 0)
(-2.52803e-300 2.33107e-301 0)
(-5.49345e-301 3.06168e-301 0)
(-6.654e-300 -1.33291e-300 0)
(-1.88552e-299 -6.46593e-300 0)
(-3.11499e-299 -8.63226e-300 0)
(-4.39294e-299 -8.42511e-300 0)
(-5.74709e-299 -5.48287e-300 0)
(-7.18436e-299 1.09494e-300 0)
(-8.68138e-299 1.27407e-299 0)
(-1.0162e-298 3.16354e-299 0)
(-1.14463e-298 6.11127e-299 0)
(-1.2119e-298 1.06562e-298 0)
(-1.11442e-298 1.77258e-298 0)
(-5.53633e-299 2.90432e-298 0)
(1.00637e-298 4.60502e-298 0)
(-3.83859e-299 1.72526e-298 0)
(-1.27878e-298 3.05253e-299 0)
(-8.99436e-299 -3.1556e-300 0)
(-5.95489e-299 -9.02469e-300 0)
(-3.82999e-299 -7.72458e-300 0)
(-2.43292e-299 -4.9057e-300 0)
(-1.52503e-299 -2.3321e-300 0)
(-9.25773e-300 -4.03372e-301 0)
(-5.12263e-300 8.15483e-301 0)
(-1.65204e-300 1.03392e-300 0)
(-1.11319e-299 -2.27545e-300 0)
(-3.19061e-299 -9.99772e-300 0)
(-5.28648e-299 -1.34936e-299 0)
(-7.46802e-299 -1.31164e-299 0)
(-9.78374e-299 -8.17176e-300 0)
(-1.22509e-298 2.80636e-300 0)
(-1.48408e-298 2.21468e-299 0)
(-1.74482e-298 5.33088e-299 0)
(-1.98258e-298 1.01538e-298 0)
(-2.14425e-298 1.75042e-298 0)
(-2.11726e-298 2.87742e-298 0)
(-1.63985e-298 4.66755e-298 0)
(-5.94183e-299 7.32164e-298 0)
(-1.20147e-298 2.51154e-298 0)
(-1.50988e-298 3.99257e-299 0)
(-1.06517e-298 1.51047e-300 0)
(-7.29378e-299 -6.62322e-300 0)
(-4.86451e-299 -6.58036e-300 0)
(-3.19826e-299 -4.33234e-300 0)
(-2.07621e-299 -1.92944e-300 0)
(-1.31536e-299 5.38635e-302 0)
(-7.76434e-300 1.46557e-300 0)
(-3.02399e-300 1.83893e-300 0)
(-1.57907e-299 -3.29768e-300 0)
(-4.5693e-299 -1.34728e-299 0)
(-7.59424e-299 -1.83001e-299 0)
(-1.07478e-298 -1.7786e-299 0)
(-1.41023e-298 -1.08798e-299 0)
(-1.76918e-298 4.46476e-300 0)
(-2.14951e-298 3.13869e-299 0)
(-2.54006e-298 7.45517e-299 0)
(-2.91432e-298 1.4086e-298 0)
(-3.21828e-298 2.40998e-298 0)
(-3.35103e-298 3.92537e-298 0)
(-3.11523e-298 6.2802e-298 0)
(-2.56381e-298 9.61629e-298 0)
(-2.00936e-298 3.08141e-298 0)
(-1.76568e-298 5.01668e-299 0)
(-1.24212e-298 6.18447e-300 0)
(-8.65468e-299 -4.03896e-300 0)
(-5.91528e-299 -5.18149e-300 0)
(-3.99165e-299 -3.55844e-300 0)
(-2.66573e-299 -1.41114e-300 0)
(-1.75044e-299 5.59175e-301 0)
(-1.09096e-299 2.14719e-300 0)
(-4.86541e-300 2.76426e-300 0)
(-2.0808e-299 -4.39861e-300 0)
(-6.0601e-299 -1.71054e-299 0)
(-1.00947e-298 -2.33498e-299 0)
(-1.43061e-298 -2.28e-299 0)
(-1.87931e-298 -1.39995e-299 0)
(-2.36133e-298 5.63078e-300 0)
(-2.87638e-298 4.00318e-299 0)
(-3.41485e-298 9.49089e-299 0)
(-3.95216e-298 1.78671e-298 0)
(-4.43975e-298 3.04001e-298 0)
(-4.79451e-298 4.91222e-298 0)
(-4.87149e-298 7.74969e-298 0)
(-4.7866e-298 1.16e-297 0)
(-2.84534e-298 3.5661e-298 0)
(-2.07358e-298 6.06795e-299 0)
(-1.44695e-298 1.06478e-299 0)
(-1.01703e-298 -1.58646e-300 0)
(-7.07017e-299 -3.8091e-300 0)
(-4.86892e-299 -2.78556e-300 0)
(-3.32952e-299 -9.16082e-301 0)
(-2.2558e-299 1.00383e-300 0)
(-1.47689e-299 2.7527e-300 0)
(-7.33747e-300 3.70596e-300 0)
(-2.63311e-299 -5.61119e-300 0)
(-7.69913e-299 -2.10741e-299 0)
(-1.28435e-298 -2.89284e-299 0)
(-1.82161e-298 -2.84983e-299 0)
(-2.39456e-298 -1.79407e-299 0)
(-3.01182e-298 5.88795e-300 0)
(-3.67598e-298 4.76225e-299 0)
(-4.38056e-298 1.13963e-298 0)
(-5.10551e-298 2.14535e-298 0)
(-5.8107e-298 3.63681e-298 0)
(-6.43043e-298 5.83511e-298 0)
(-6.85313e-298 9.09342e-298 0)
(-7.20878e-298 1.33844e-297 0)
(-3.73668e-298 4.01421e-298 0)
(-2.43561e-298 7.12192e-299 0)
(-1.68398e-298 1.49053e-299 0)
(-1.18908e-298 6.71895e-301 0)
(-8.36822e-299 -2.5543e-300 0)
(-5.8563e-299 -2.09699e-300 0)
(-4.08413e-299 -5.19906e-301 0)
(-2.84259e-299 1.29563e-300 0)
(-1.94746e-299 3.13106e-300 0)
(-1.07086e-299 4.39064e-300 0)
(-3.24901e-299 -6.98882e-300 0)
(-9.52124e-299 -2.55576e-299 0)
(-1.58956e-298 -3.53069e-299 0)
(-2.25512e-298 -3.52516e-299 0)
(-2.96489e-298 -2.31115e-299 0)
(-3.73085e-298 4.75793e-300 0)
(-4.5592e-298 5.3701e-299 0)
(-5.44778e-298 1.31224e-298 0)
(-6.38258e-298 2.48042e-298 0)
(-7.33324e-298 4.19647e-298 0)
(-8.2496e-298 6.69326e-298 0)
(-9.04224e-298 1.03263e-297 0)
(-9.82107e-298 1.50447e-297 0)
(-4.69786e-298 4.44307e-298 0)
(-2.84715e-298 8.17414e-299 0)
(-1.95337e-298 1.90381e-299 0)
(-1.38351e-298 2.76611e-300 0)
(-9.82903e-299 -1.43205e-300 0)
(-6.96795e-299 -1.52543e-300 0)
(-4.93695e-299 -2.67235e-301 0)
(-3.51193e-299 1.35322e-300 0)
(-2.50335e-299 3.08118e-300 0)
(-1.54021e-299 4.24499e-300 0)
(-3.93996e-299 -8.61128e-300 0)
(-1.15608e-298 -3.07225e-299 0)
(-1.93065e-298 -4.27848e-299 0)
(-2.73856e-298 -4.34368e-299 0)
(-3.59934e-298 -2.99907e-299 0)
(-4.52867e-298 1.75081e-300 0)
(-5.5369e-298 5.77214e-299 0)
(-6.62691e-298 1.46217e-298 0)
(-7.79159e-298 2.78735e-298 0)
(-9.01074e-298 4.7165e-298 0)
(-1.0249e-297 7.48723e-298 0)
(-1.14406e-297 1.14548e-297 0)
(-1.2648e-297 1.65777e-297 0)
(-5.73455e-298 4.84484e-298 0)
(-3.29978e-298 9.22216e-299 0)
(-2.25155e-298 2.31603e-299 0)
(-1.59909e-298 4.77117e-300 0)
(-1.14488e-298 -4.13442e-301 0)
(-8.20056e-299 -1.06895e-300 0)
(-5.88023e-299 -1.72472e-301 0)
(-4.24548e-299 1.1291e-300 0)
(-3.1078e-299 2.36145e-300 0)
(-2.2107e-299 2.26421e-300 0)
(-9.27263e-304 -2.63027e-303 0)
(-4.94094e-303 -1.69023e-302 0)
(-2.96874e-303 -1.55975e-302 0)
(-2.97893e-303 -8.88428e-303 0)
(-3.16137e-303 -4.03809e-303 0)
(-2.72734e-303 -1.58936e-303 0)
(-1.97014e-303 -5.4989e-304 0)
(-1.25278e-303 -1.57512e-304 0)
(-7.25349e-304 -2.632e-305 0)
(-3.90253e-304 9.27253e-306 0)
(-1.97364e-304 1.38258e-305 0)
(-9.43436e-305 1.04392e-305 0)
(-4.26654e-305 6.41637e-306 0)
(-1.8187e-305 3.50737e-306 0)
(-7.23594e-306 1.7494e-306 0)
(-2.63142e-306 7.97089e-307 0)
(-8.34361e-307 3.23584e-307 0)
(-2.00578e-307 1.03634e-307 0)
(-1.45241e-308 1.32571e-308 0)
(-9.98087e-304 -1.05846e-302 0)
(-1.08306e-302 -3.81346e-302 0)
(-1.04363e-302 -3.13833e-302 0)
(-1.04997e-302 -1.73283e-302 0)
(-9.33997e-303 -7.72607e-303 0)
(-7.17345e-303 -2.92313e-303 0)
(-4.88093e-303 -9.04136e-304 0)
(-3.02447e-303 -1.70328e-304 0)
(-1.74119e-303 4.687e-305 0)
(-9.4339e-304 8.21402e-305 0)
(-4.84693e-304 6.57726e-305 0)
(-2.36982e-304 4.2512e-305 0)
(-1.10281e-304 2.45382e-305 0)
(-4.86771e-305 1.30812e-305 0)
(-2.02069e-305 6.51595e-306 0)
(-7.75064e-306 3.03204e-306 0)
(-2.6395e-306 1.29772e-306 0)
(-7.10224e-307 4.74038e-307 0)
(-6.21533e-308 8.92646e-308 0)
(-2.0618e-303 -2.6452e-302 0)
(-2.06609e-302 -6.75678e-302 0)
(-2.32168e-302 -5.01947e-302 0)
(-2.2554e-302 -2.64803e-302 0)
(-1.85474e-302 -1.14638e-302 0)
(-1.34026e-302 -4.17359e-303 0)
(-8.77843e-303 -1.17012e-303 0)
(-5.32842e-303 -1.14704e-304 0)
(-3.04181e-303 1.67753e-304 0)
(-1.64831e-303 1.8618e-304 0)
(-8.52368e-304 1.37107e-304 0)
(-4.21578e-304 8.61444e-305 0)
(-1.99343e-304 4.92989e-305 0)
(-8.98087e-305 2.63405e-305 0)
(-3.8255e-305 1.32659e-305 0)
(-1.51678e-305 6.30498e-306 0)
(-5.40609e-306 2.80115e-306 0)
(-1.5637e-306 1.10007e-306 0)
(-1.69508e-307 2.50723e-307 0)
(-8.25334e-303 -6.07061e-302 0)
(-4.0671e-302 -1.14615e-301 0)
(-4.68587e-302 -7.65057e-302 0)
(-4.29709e-302 -3.81973e-302 0)
(-3.32494e-302 -1.59611e-302 0)
(-2.2953e-302 -5.58703e-303 0)
(-1.45912e-302 -1.41731e-303 0)
(-8.70476e-303 1.66182e-306 0)
(-4.92985e-303 3.46189e-304 0)
(-2.66867e-303 3.33175e-304 0)
(-1.38592e-303 2.37048e-304 0)
(-6.91382e-304 1.47493e-304 0)
(-3.31001e-304 8.4455e-305 0)
(-1.51557e-304 4.54383e-305 0)
(-6.58969e-305 2.31751e-305 0)
(-2.68274e-305 1.12342e-305 0)
(-9.9144e-306 5.15024e-306 0)
(-3.03465e-306 2.1385e-306 0)
(-3.88095e-307 5.57367e-307 0)
(-3.13304e-302 -1.34184e-301 0)
(-8.21126e-302 -1.8946e-301 0)
(-9.02924e-302 -1.13301e-301 0)
(-7.71656e-302 -5.33945e-302 0)
(-5.65431e-302 -2.15414e-302 0)
(-3.75911e-302 -7.28198e-303 0)
(-2.33296e-302 -1.68302e-303 0)
(-1.3728e-302 1.7349e-304 0)
(-7.72731e-303 5.87758e-304 0)
(-4.18137e-303 5.30791e-304 0)
(-2.18034e-303 3.72183e-304 0)
(-1.0961e-303 2.31332e-304 0)
(-5.3054e-304 1.33151e-304 0)
(-2.46388e-304 7.23151e-305 0)
(-1.09055e-304 3.73847e-305 0)
(-4.54187e-305 1.84679e-305 0)
(-1.73109e-305 8.70588e-306 0)
(-5.55652e-306 3.78686e-306 0)
(-8.10094e-307 1.1005e-306 0)
(-1.04977e-301 -2.91811e-301 0)
(-1.67412e-301 -3.03618e-301 0)
(-1.67675e-301 -1.62451e-301 0)
(-1.32617e-301 -7.24515e-302 0)
(-9.23907e-302 -2.83615e-302 0)
(-5.94872e-302 -9.3345e-303 0)
(-3.62128e-302 -1.99677e-303 0)
(-2.10885e-302 3.9506e-304 0)
(-1.18231e-302 8.96456e-304 0)
(-6.40259e-303 7.8553e-304 0)
(-3.35355e-303 5.48485e-304 0)
(-1.69864e-303 3.42192e-304 0)
(-8.30663e-304 1.98484e-304 0)
(-3.90804e-304 1.08946e-304 0)
(-1.75775e-304 5.70946e-305 0)
(-7.47022e-305 2.87114e-305 0)
(-2.92564e-305 1.38752e-305 0)
(-9.78836e-306 6.27844e-306 0)
(-1.59637e-306 2.00669e-306 0)
(-3.17866e-301 -6.20482e-301 0)
(-3.4093e-301 -4.65275e-301 0)
(-3.00272e-301 -2.2382e-301 0)
(-2.19209e-301 -9.52738e-302 0)
(-1.45831e-301 -3.65094e-302 0)
(-9.14061e-302 -1.18239e-302 0)
(-5.48144e-302 -2.39703e-303 0)
(-3.16915e-302 6.55317e-304 0)
(-1.77355e-302 1.27407e-303 0)
(-9.62506e-303 1.10338e-303 0)
(-5.06783e-303 7.7212e-304 0)
(-2.58697e-303 4.84995e-304 0)
(-1.27784e-303 2.83917e-304 0)
(-6.08638e-304 1.57584e-304 0)
(-2.77866e-304 8.36899e-305 0)
(-1.20287e-304 4.27802e-305 0)
(-4.82676e-305 2.11213e-305 0)
(-1.67429e-305 9.86015e-306 0)
(-3.01656e-306 3.40029e-306 0)
(-8.60736e-301 -1.34916e-300 0)
(-6.86555e-301 -6.64488e-301 0)
(-5.11941e-301 -2.92586e-301 0)
(-3.46438e-301 -1.20941e-301 0)
(-2.21536e-301 -4.59313e-302 0)
(-1.35927e-301 -1.48181e-302 0)
(-8.06243e-302 -2.93867e-303 0)
(-4.64067e-302 9.24168e-304 0)
(-2.59693e-302 1.70716e-303 0)
(-1.41379e-302 1.47971e-303 0)
(-7.48573e-303 1.04241e-303 0)
(-3.85043e-303 6.60466e-304 0)
(-1.91992e-303 3.90434e-304 0)
(-9.24769e-304 2.19051e-304 0)
(-4.27832e-304 1.17741e-304 0)
(-1.8821e-304 6.10233e-305 0)
(-7.71075e-305 3.06265e-305 0)
(-2.75784e-305 1.4594e-305 0)
(-5.47221e-306 5.28796e-306 0)
(-5.12763e-299 -1.16141e-299 0)
(-1.50667e-298 -3.99762e-299 0)
(-2.51637e-298 -5.64096e-299 0)
(-3.56748e-298 -5.88766e-299 0)
(-4.68523e-298 -4.39498e-299 0)
(-5.89154e-298 -6.66438e-300 0)
(-7.2038e-298 5.98668e-299 0)
(-8.63348e-298 1.64894e-298 0)
(-1.01848e-297 3.20975e-298 0)
(-1.18533e-297 5.45183e-298 0)
(-1.3626e-297 8.61265e-298 0)
(-1.54762e-297 1.30192e-297 0)
(-1.74339e-297 1.85034e-297 0)
(-7.4415e-298 5.39146e-298 0)
(-4.04842e-298 1.08607e-298 0)
(-2.7461e-298 2.98584e-299 0)
(-1.95715e-298 8.01319e-300 0)
(-1.4137e-298 1.19699e-300 0)
(-1.02403e-298 -4.07131e-301 0)
(-7.42658e-299 -1.726e-301 0)
(-5.40831e-299 4.53088e-301 0)
(-3.97014e-299 5.74255e-301 0)
(-2.91653e-299 -8.94798e-301 0)
(-6.83857e-299 -1.67151e-299 0)
(-2.01096e-298 -5.52992e-299 0)
(-3.35923e-298 -7.98078e-299 0)
(-4.76205e-298 -8.71788e-299 0)
(-6.25366e-298 -7.30657e-299 0)
(-7.86574e-298 -3.15038e-299 0)
(-9.62654e-298 4.53083e-299 0)
(-1.156e-297 1.67543e-298 0)
(-1.36851e-297 3.48244e-298 0)
(-1.60159e-297 6.04298e-298 0)
(-1.85612e-297 9.57428e-298 0)
(-2.13254e-297 1.43465e-297 0)
(-2.43115e-297 2.00736e-297 0)
(-9.90529e-298 5.88514e-298 0)
(-5.13186e-298 1.26676e-298 0)
(-3.44252e-298 3.78812e-299 0)
(-2.44953e-298 1.20611e-299 0)
(-1.77501e-298 3.22066e-300 0)
(-1.29156e-298 3.63943e-301 0)
(-9.38611e-299 -3.01347e-301 0)
(-6.7896e-299 -4.17062e-301 0)
(-4.85128e-299 -8.59017e-301 0)
(-3.33164e-299 -2.14852e-300 0)
(-8.64823e-299 -2.33439e-299 0)
(-2.5402e-298 -7.52246e-299 0)
(-4.24188e-298 -1.11013e-298 0)
(-6.01211e-298 -1.26721e-298 0)
(-7.89511e-298 -1.17065e-298 0)
(-9.93297e-298 -7.52688e-299 0)
(-1.21649e-297 7.28037e-300 0)
(-1.46264e-297 1.41227e-298 0)
(-1.7349e-297 3.39746e-298 0)
(-2.03599e-297 6.1878e-298 0)
(-2.36815e-297 9.97584e-298 0)
(-2.73332e-297 1.49751e-297 0)
(-3.12922e-297 2.08187e-297 0)
(-1.24694e-297 6.15593e-298 0)
(-6.28123e-298 1.38121e-298 0)
(-4.16593e-298 4.299e-299 0)
(-2.95016e-298 1.45821e-299 0)
(-2.13454e-298 4.39065e-300 0)
(-1.55204e-298 6.86021e-301 0)
(-1.12513e-298 -5.58322e-301 0)
(-8.07712e-299 -1.03521e-300 0)
(-5.67671e-299 -1.515e-300 0)
(-3.80412e-299 -2.21794e-300 0)
(-1.05671e-298 -3.21466e-299 0)
(-3.09604e-298 -1.01708e-298 0)
(-5.16564e-298 -1.5321e-298 0)
(-7.31751e-298 -1.81715e-298 0)
(-9.6066e-298 -1.81099e-298 0)
(-1.20858e-297 -1.43735e-298 0)
(-1.48049e-297 -6.04186e-299 0)
(-1.78099e-297 7.99391e-299 0)
(-2.11422e-297 2.90326e-298 0)
(-2.48383e-297 5.85828e-298 0)
(-2.89281e-297 9.83351e-298 0)
(-3.34384e-297 1.50009e-297 0)
(-3.83305e-297 2.09427e-297 0)
(-1.5125e-297 6.25339e-298 0)
(-7.49547e-298 1.42834e-298 0)
(-4.92087e-298 4.45687e-299 0)
(-3.46494e-298 1.50394e-299 0)
(-2.49856e-298 4.34439e-300 0)
(-1.81203e-298 3.58117e-301 0)
(-1.3094e-298 -1.03685e-300 0)
(-9.35182e-299 -1.51756e-300 0)
(-6.52335e-299 -1.78171e-300 0)
(-4.34284e-299 -1.99105e-300 0)
(-1.26005e-298 -4.38336e-299 0)
(-3.679e-298 -1.36878e-298 0)
(-6.13058e-298 -2.09828e-298 0)
(-8.67721e-298 -2.56822e-298 0)
(-1.13856e-297 -2.70787e-298 0)
(-1.43197e-297 -2.43343e-298 0)
(-1.75398e-297 -1.64578e-298 0)
(-2.11015e-297 -2.3102e-299 0)
(-2.50545e-297 1.94119e-298 0)
(-2.94418e-297 5.01413e-298 0)
(-3.42989e-297 9.14257e-298 0)
(-3.9656e-297 1.44707e-297 0)
(-4.54677e-297 2.0553e-297 0)
(-1.78811e-297 6.20073e-298 0)
(-8.77243e-298 1.40708e-298 0)
(-5.70869e-298 4.21844e-299 0)
(-3.99696e-298 1.30098e-299 0)
(-2.87097e-298 2.74328e-300 0)
(-2.07575e-298 -8.76833e-301 0)
(-1.4956e-298 -1.95519e-300 0)
(-1.06476e-298 -2.11671e-300 0)
(-7.40377e-299 -2.01004e-300 0)
(-4.92372e-299 -1.80663e-300 0)
(-1.47501e-298 -5.92108e-299 0)
(-4.28859e-298 -1.83089e-298 0)
(-7.13526e-298 -2.84742e-298 0)
(-1.0089e-297 -3.57229e-298 0)
(-1.32294e-297 -3.9253e-298 0)
(-1.66322e-297 -3.81323e-298 0)
(-2.03687e-297 -3.13054e-298 0)
(-2.45035e-297 -1.75757e-298 0)
(-2.90938e-297 4.36988e-299 0)
(-3.41886e-297 3.59548e-298 0)
(-3.98273e-297 7.86506e-298 0)
(-4.60431e-297 1.33793e-297 0)
(-5.27884e-297 1.96764e-297 0)
(-2.07581e-297 5.99613e-298 0)
(-1.01124e-297 1.31036e-298 0)
(-6.52985e-298 3.51886e-299 0)
(-4.54752e-298 7.96212e-300 0)
(-3.25368e-298 -8.32585e-301 0)
(-2.34529e-298 -3.3546e-300 0)
(-1.68552e-298 -3.6017e-300 0)
(-1.1974e-298 -3.10711e-300 0)
(-8.31399e-299 -2.45853e-300 0)
(-5.53046e-299 -1.81976e-300 0)
(-1.70123e-298 -7.91947e-299 0)
(-4.92243e-298 -2.4305e-298 0)
(-8.17557e-298 -3.82337e-298 0)
(-1.15476e-297 -4.88926e-298 0)
(-1.51326e-297 -5.53601e-298 0)
(-1.90198e-297 -5.66096e-298 0)
(-2.32919e-297 -5.14933e-298 0)
(-2.80232e-297 -3.87575e-298 0)
(-3.32783e-297 -1.70288e-298 0)
(-3.91116e-297 1.51389e-298 0)
(-4.55664e-297 5.92521e-298 0)
(-5.26785e-297 1.16652e-297 0)
(-6.04003e-297 1.82682e-297 0)
(-2.37847e-297 5.61197e-298 0)
(-1.15181e-297 1.12192e-298 0)
(-7.38467e-298 2.24841e-299 0)
(-5.11681e-298 -8.84692e-301 0)
(-3.64713e-298 -6.95495e-300 0)
(-2.62121e-298 -7.5063e-300 0)
(-1.87953e-298 -6.31528e-300 0)
(-1.33299e-298 -4.76298e-300 0)
(-9.24719e-299 -3.33434e-300 0)
(-6.15335e-299 -2.13755e-300 0)
(-1.93735e-298 -1.04867e-298 0)
(-5.57493e-298 -3.19876e-298 0)
(-9.24201e-298 -5.0774e-298 0)
(-1.30409e-297 -6.58792e-298 0)
(-1.70827e-297 -7.62505e-298 0)
(-2.14721e-297 -8.07361e-298 0)
(-2.63045e-297 -7.80994e-298 0)
(-3.16649e-297 -6.69917e-298 0)
(-3.76254e-297 -4.5972e-298 0)
(-4.4246e-297 -1.3496e-298 0)
(-5.1574e-297 3.20349e-298 0)
(-5.96481e-297 9.21146e-298 0)
(-6.8418e-297 1.62112e-297 0)
(-2.69937e-297 4.99293e-298 0)
(-1.29935e-297 8.14357e-299 0)
(-8.27299e-298 2.39866e-300 0)
(-5.70402e-298 -1.4635e-299 0)
(-4.05064e-298 -1.63791e-299 0)
(-2.90298e-298 -1.38624e-299 0)
(-2.07714e-298 -1.04778e-299 0)
(-1.47094e-298 -7.36051e-300 0)
(-1.01961e-298 -4.82416e-300 0)
(-6.7857e-299 -2.85909e-300 0)
(-2.18033e-298 -1.37505e-298 0)
(-6.23482e-298 -4.1727e-298 0)
(-1.03162e-297 -6.66924e-298 0)
(-1.45452e-297 -8.74943e-298 0)
(-1.90539e-297 -1.02907e-297 0)
(-2.39646e-297 -1.11651e-297 0)
(-2.93879e-297 -1.12372e-297 0)
(-3.54198e-297 -1.03639e-297 0)
(-4.2141e-297 -8.38965e-298 0)
(-4.9617e-297 -5.14877e-298 0)
(-5.78992e-297 -4.6241e-299 0)
(-6.70291e-297 5.8423e-298 0)
(-7.69493e-297 1.33168e-297 0)
(-3.04167e-297 4.05295e-298 0)
(-1.45409e-297 3.47789e-299 0)
(-9.19324e-298 -2.73721e-299 0)
(-6.30703e-298 -3.47308e-299 0)
(-4.46237e-298 -3.00363e-299 0)
(-3.18917e-298 -2.30369e-299 0)
(-2.2772e-298 -1.65009e-299 0)
(-1.61029e-298 -1.11757e-299 0)
(-1.11528e-298 -7.10471e-300 0)
(-7.42157e-299 -4.08306e-300 0)
(-2.42439e-298 -1.78678e-298 0)
(-6.8821e-298 -5.39645e-298 0)
(-1.13653e-297 -8.67073e-298 0)
(-1.60184e-297 -1.14689e-297 0)
(-2.09988e-297 -1.36488e-297 0)
(-2.64502e-297 -1.50665e-297 0)
(-3.24995e-297 -1.55769e-297 0)
(-3.92556e-297 -1.50267e-297 0)
(-4.68072e-297 -1.32514e-297 0)
(-5.5226e-297 -1.00688e-297 0)
(-6.45668e-297 -5.27914e-298 0)
(-7.48747e-297 1.3264e-298 0)
(-8.60759e-297 9.32032e-298 0)
(-3.40772e-297 2.67223e-298 0)
(-1.61589e-297 -3.30918e-299 0)
(-1.01412e-297 -6.97411e-299 0)
(-6.92191e-298 -6.28975e-299 0)
(-4.87924e-298 -4.89772e-299 0)
(-3.47746e-298 -3.56801e-299 0)
(-2.47797e-298 -2.47934e-299 0)
(-1.74973e-298 -1.64673e-299 0)
(-1.21077e-298 -1.03362e-299 0)
(-8.05433e-299 -5.90175e-300 0)
(-2.65959e-298 -2.30334e-298 0)
(-7.48308e-298 -6.92468e-298 0)
(-1.23351e-297 -1.11684e-297 0)
(-1.73906e-297 -1.48609e-297 0)
(-2.28387e-297 -1.78343e-297 0)
(-2.88475e-297 -1.99301e-297 0)
(-3.55625e-297 -2.09937e-297 0)
(-4.31041e-297 -2.08669e-297 0)
(-5.15701e-297 -1.93759e-297 0)
(-6.10364e-297 -1.63258e-297 0)
(-7.15619e-297 -1.14902e-297 0)
(-8.31952e-297 -4.62159e-298 0)
(-9.58347e-297 3.88678e-298 0)
(-3.79814e-297 6.95561e-299 0)
(-1.78383e-297 -1.28738e-298 0)
(-1.11085e-297 -1.28075e-298 0)
(-7.54234e-298 -1.00989e-298 0)
(-5.29666e-298 -7.42455e-299 0)
(-3.76455e-298 -5.23889e-299 0)
(-2.67708e-298 -3.57033e-299 0)
(-1.88753e-298 -2.34425e-299 0)
(-1.30483e-298 -1.46426e-299 0)
(-8.67554e-299 -8.3877e-300 0)
(-2.86966e-298 -2.95021e-298 0)
(-7.98342e-298 -8.82615e-298 0)
(-1.31389e-297 -1.42705e-297 0)
(-1.85523e-297 -1.90631e-297 0)
(-2.4451e-297 -2.30072e-297 0)
(-3.10307e-297 -2.59294e-297 0)
(-3.84535e-297 -2.76736e-297 0)
(-4.68511e-297 -2.8081e-297 0)
(-5.63265e-297 -2.69775e-297 0)
(-6.69602e-297 -2.41563e-297 0)
(-7.88133e-297 -1.93705e-297 0)
(-9.19397e-297 -1.23278e-297 0)
(-1.06193e-296 -3.38316e-298 0)
(-4.21076e-297 -2.06494e-298 0)
(-1.95591e-297 -2.59592e-298 0)
(-1.20816e-297 -2.05816e-298 0)
(-8.15906e-298 -1.5068e-298 0)
(-5.70825e-298 -1.0666e-298 0)
(-4.04597e-298 -7.35641e-299 0)
(-2.87131e-298 -4.94305e-299 0)
(-2.02136e-298 -3.22056e-299 0)
(-1.39578e-298 -2.00823e-299 0)
(-9.27372e-299 -1.1576e-299 0)
(-3.02838e-298 -3.76215e-298 0)
(-8.29602e-298 -1.11919e-297 0)
(-1.36417e-297 -1.81142e-297 0)
(-1.9337e-297 -2.42461e-297 0)
(-2.56547e-297 -2.93556e-297 0)
(-3.28153e-297 -3.32634e-297 0)
(-4.09937e-297 -3.582e-297 0)
(-5.03254e-297 -3.68815e-297 0)
(-6.09159e-297 -3.62806e-297 0)
(-7.28463e-297 -3.3811e-297 0)
(-8.61799e-297 -2.92082e-297 0)
(-1.00976e-296 -2.2145e-297 0)
(-1.17029e-296 -1.29295e-297 0)
(-4.63928e-297 -5.81924e-298 0)
(-2.12864e-297 -4.33008e-298 0)
(-1.30399e-297 -3.05728e-298 0)
(-8.75912e-298 -2.12951e-298 0)
(-6.10532e-298 -1.4649e-298 0)
(-4.31555e-298 -9.92169e-299 0)
(-3.05616e-298 -6.5917e-299 0)
(-2.14793e-298 -4.2698e-299 0)
(-1.48127e-298 -2.66148e-299 0)
(-9.83254e-299 -1.54456e-299 0)
(-3.09261e-298 -4.79056e-298 0)
(-8.2795e-298 -1.41466e-297 0)
(-1.36329e-297 -2.28808e-297 0)
(-1.94975e-297 -3.06217e-297 0)
(-2.61908e-297 -3.7104e-297 0)
(-3.39475e-297 -4.21545e-297 0)
(-4.29396e-297 -4.56537e-297 0)
(-5.32958e-297 -4.74872e-297 0)
(-6.51146e-297 -4.75137e-297 0)
(-7.84754e-297 -4.55363e-297 0)
(-9.34412e-297 -4.12901e-297 0)
(-1.10081e-296 -3.44224e-297 0)
(-1.28109e-296 -2.5203e-297 0)
(-5.07175e-297 -1.07745e-297 0)
(-2.29659e-297 -6.54344e-298 0)
(-1.39545e-297 -4.28614e-298 0)
(-9.32445e-298 -2.87313e-298 0)
(-6.47555e-298 -1.93021e-298 0)
(-4.56444e-298 -1.28743e-298 0)
(-3.22513e-298 -8.47312e-299 0)
(-2.26246e-298 -5.46383e-299 0)
(-1.55786e-298 -3.40694e-299 0)
(-1.03286e-298 -1.99013e-299 0)
(-2.98618e-298 -6.11828e-298 0)
(-7.69407e-298 -1.78715e-297 0)
(-1.27793e-297 -2.88151e-297 0)
(-1.86683e-297 -3.84595e-297 0)
(-2.57016e-297 -4.6516e-297 0)
(-3.40931e-297 -5.28511e-297 0)
(-4.39833e-297 -5.74036e-297 0)
(-5.54721e-297 -6.01184e-297 0)
(-6.86416e-297 -6.08942e-297 0)
(-8.35631e-297 -5.95632e-297 0)
(-1.00301e-296 -5.5873e-297 0)
(-1.18933e-296 -4.94757e-297 0)
(-1.39087e-296 -4.0613e-297 0)
(-5.48816e-297 -1.70862e-297 0)
(-2.45151e-297 -9.23445e-298 0)
(-1.47826e-297 -5.71326e-298 0)
(-9.82838e-298 -3.70809e-298 0)
(-6.80043e-298 -2.44099e-298 0)
(-4.77924e-298 -1.60719e-298 0)
(-3.36845e-298 -1.04978e-298 0)
(-2.35794e-298 -6.74821e-299 0)
(-1.62066e-298 -4.21246e-299 0)
(-1.0729e-298 -2.4763e-299 0)
(-2.55294e-298 -7.8935e-298 0)
(-6.10607e-298 -2.26414e-297 0)
(-1.05398e-297 -3.62566e-297 0)
(-1.63142e-297 -4.80987e-297 0)
(-2.37082e-297 -5.78991e-297 0)
(-3.28383e-297 -6.56174e-297 0)
(-4.37609e-297 -7.13015e-297 0)
(-5.6522e-297 -7.49816e-297 0)
(-7.11739e-297 -7.66199e-297 0)
(-8.77787e-297 -7.60859e-297 0)
(-1.064e-296 -7.31635e-297 0)
(-1.27132e-296 -6.75406e-297 0)
(-1.4951e-296 -5.9471e-297 0)
(-5.8547e-297 -2.47632e-297 0)
(-2.5801e-297 -1.22854e-297 0)
(-1.5457e-297 -7.24052e-298 0)
(-1.02282e-297 -4.56984e-298 0)
(-7.05052e-298 -2.95783e-298 0)
(-4.93919e-298 -1.92804e-298 0)
(-3.47159e-298 -1.2528e-298 0)
(-2.42437e-298 -8.04184e-299 0)
(-1.66297e-298 -5.03063e-299 0)
(-1.09907e-298 -2.97617e-299 0)
(-1.39292e-298 -1.0394e-297 0)
(-2.66543e-298 -2.8889e-297 0)
(-6.01458e-298 -4.56744e-297 0)
(-1.16641e-297 -5.99584e-297 0)
(-1.96034e-297 -7.15912e-297 0)
(-2.97079e-297 -8.07218e-297 0)
(-4.1884e-297 -8.75617e-297 0)
(-5.61004e-297 -9.22617e-297 0)
(-7.23804e-297 -9.4854e-297 0)
(-9.07783e-297 -9.52554e-297 0)
(-1.11359e-296 -9.3292e-297 0)
(-1.34231e-296 -8.8737e-297 0)
(-1.5886e-296 -8.19153e-297 0)
(-6.1052e-297 -3.34624e-297 0)
(-2.65902e-297 -1.53602e-297 0)
(-1.58617e-297 -8.67338e-298 0)
(-1.04525e-297 -5.35327e-298 0)
(-7.17902e-298 -3.42404e-298 0)
(-5.0134e-298 -2.21875e-298 0)
(-3.51434e-298 -1.43866e-298 0)
(-2.44871e-298 -9.24202e-299 0)
(-1.67651e-298 -5.80116e-299 0)
(-1.10626e-298 -3.45491e-299 0)
(1.80198e-298 -1.41168e-297 0)
(4.4176e-298 -3.72777e-297 0)
(2.29859e-298 -5.76817e-297 0)
(-3.66315e-298 -7.45063e-297 0)
(-1.26886e-297 -8.79272e-297 0)
(-2.42277e-297 -9.84002e-297 0)
(-3.79941e-297 -1.06363e-296 0)
(-5.38981e-297 -1.12101e-296 0)
(-7.19636e-297 -1.15721e-296 0)
(-9.22579e-297 -1.17167e-296 0)
(-1.14842e-296 -1.16306e-296 0)
(-1.39809e-296 -1.13026e-296 0)
(-1.66639e-296 -1.07835e-296 0)
(-6.07926e-297 -4.1948e-297 0)
(-2.64662e-297 -1.77524e-297 0)
(-1.57978e-297 -9.70856e-298 0)
(-1.0387e-297 -5.92254e-298 0)
(-7.11782e-298 -3.77392e-298 0)
(-4.96117e-298 -2.4448e-298 0)
(-3.47239e-298 -1.58799e-298 0)
(-2.41645e-298 -1.02349e-298 0)
(-1.65266e-298 -6.45582e-299 0)
(-1.08942e-298 -3.87207e-299 0)
(1.18758e-297 -1.89089e-297 0)
(1.90296e-297 -4.87804e-297 0)
(1.6706e-297 -7.3042e-297 0)
(8.89306e-298 -9.22502e-297 0)
(-2.3665e-298 -1.07238e-296 0)
(-1.60775e-297 -1.18881e-296 0)
(-3.18651e-297 -1.27875e-296 0)
(-4.9699e-297 -1.34649e-296 0)
(-6.97022e-297 -1.39356e-296 0)
(-9.20065e-297 -1.41939e-296 0)
(-1.16655e-296 -1.42235e-296 0)
(-1.43586e-296 -1.40229e-296 0)
(-1.72287e-296 -1.36691e-296 0)
(-5.39824e-297 -4.61568e-297 0)
(-2.48169e-297 -1.81915e-297 0)
(-1.49388e-297 -9.98677e-298 0)
(-9.87291e-298 -6.15127e-298 0)
(-6.78695e-298 -3.95043e-298 0)
(-4.74133e-298 -2.57565e-298 0)
(-3.32399e-298 -1.68286e-298 0)
(-2.31585e-298 -1.09108e-298 0)
(-1.58499e-298 -6.92643e-299 0)
(-1.04505e-298 -4.18591e-299 0)
(4.56378e-297 -2.68254e-297 0)
(4.59185e-297 -6.31007e-297 0)
(3.82314e-297 -9.0989e-297 0)
(2.58153e-297 -1.12311e-296 0)
(1.08564e-297 -1.28675e-296 0)
(-5.73672e-298 -1.4138e-296 0)
(-2.38301e-297 -1.51367e-296 0)
(-4.368e-297 -1.59184e-296 0)
(-6.56694e-297 -1.65025e-296 0)
(-9.01028e-297 -1.68801e-296 0)
(-1.17009e-296 -1.70298e-296 0)
(-1.4586e-296 -1.69307e-296 0)
(-7.46266e-297 -7.1979e-297 0)
(-3.37063e-297 -3.0459e-297 0)
(-1.98408e-297 -1.5783e-297 0)
(-1.28585e-297 -9.43208e-298 0)
(-8.7802e-298 -6.00545e-298 0)
(-6.14194e-298 -3.92699e-298 0)
(-4.33726e-298 -2.59217e-298 0)
(-3.06264e-298 -1.71025e-298 0)
(-2.14435e-298 -1.11828e-298 0)
(-1.47257e-298 -7.15603e-299 0)
(-9.72879e-299 -4.36008e-299 0)
(2.99254e-297 -1.98991e-297 0)
(2.23583e-297 -3.6254e-297 0)
(1.62811e-297 -4.63578e-297 0)
(9.7086e-298 -5.31851e-297 0)
(3.03811e-298 -5.80881e-297 0)
(-3.84608e-298 -6.16594e-297 0)
(-1.11522e-297 -6.42258e-297 0)
(-1.91011e-297 -6.59274e-297 0)
(-2.77961e-297 -6.66893e-297 0)
(-3.69735e-297 -6.60667e-297 0)
(-4.53775e-297 -6.27092e-297 0)
(-4.86465e-297 -5.34986e-297 0)
(-3.14574e-297 -3.30769e-297 0)
(-2.07912e-297 -2.03965e-297 0)
(-1.44369e-297 -1.28026e-297 0)
(-1.02129e-297 -8.3234e-298 0)
(-7.31441e-298 -5.52866e-298 0)
(-5.26541e-298 -3.70799e-298 0)
(-3.7879e-298 -2.49079e-298 0)
(-2.70872e-298 -1.66545e-298 0)
(-1.91337e-298 -1.101e-298 0)
(-1.32205e-298 -7.11299e-299 0)
(-8.76854e-299 -4.37205e-299 0)
(5.54038e-298 -1.59236e-297 0)
(2.92177e-298 -2.09799e-297 0)
(1.59643e-298 -2.33616e-297 0)
(-8.19005e-300 -2.54731e-297 0)
(-2.09882e-298 -2.71981e-297 0)
(-4.45273e-298 -2.84712e-297 0)
(-7.14756e-298 -2.92989e-297 0)
(-1.0163e-297 -2.96965e-297 0)
(-1.33829e-297 -2.96452e-297 0)
(-1.64803e-297 -2.90441e-297 0)
(-1.8755e-297 -2.76545e-297 0)
(-1.89441e-297 -2.51e-297 0)
(-1.6238e-297 -1.97746e-297 0)
(-1.30404e-297 -1.43116e-297 0)
(-1.01381e-297 -1.00332e-297 0)
(-7.71448e-298 -6.97722e-298 0)
(-5.79383e-298 -4.83538e-298 0)
(-4.3068e-298 -3.3374e-298 0)
(-3.16847e-298 -2.289e-298 0)
(-2.30242e-298 -1.55526e-298 0)
(-1.6454e-298 -1.04157e-298 0)
(-1.14639e-298 -6.80229e-299 0)
(-7.64499e-299 -4.21994e-299 0)
(-1.9035e-298 -9.66723e-298 0)
(-1.8078e-298 -1.29738e-297 0)
(-1.77093e-298 -1.4471e-297 0)
(-2.12834e-298 -1.56683e-297 0)
(-2.83211e-298 -1.6621e-297 0)
(-3.82581e-298 -1.73082e-297 0)
(-5.06211e-298 -1.77294e-297 0)
(-6.47847e-298 -1.78949e-297 0)
(-7.96265e-298 -1.78063e-297 0)
(-9.31688e-298 -1.74308e-297 0)
(-1.02416e-297 -1.66683e-297 0)
(-1.03881e-297 -1.52955e-297 0)
(-9.70123e-298 -1.2948e-297 0)
(-8.47992e-298 -1.02034e-297 0)
(-7.05485e-298 -7.68224e-298 0)
(-5.66112e-298 -5.63164e-298 0)
(-4.4262e-298 -4.05589e-298 0)
(-3.3912e-298 -2.88056e-298 0)
(-2.55243e-298 -2.01946e-298 0)
(-1.88707e-298 -1.39616e-298 0)
(-1.36627e-298 -9.48287e-299 0)
(-9.61087e-299 -6.26525e-299 0)
(-6.45038e-299 -3.92352e-299 0)
(-2.52541e-298 -5.45969e-298 0)
(-2.49468e-298 -8.137e-298 0)
(-2.34239e-298 -9.46111e-298 0)
(-2.37659e-298 -1.03751e-297 0)
(-2.63491e-298 -1.10409e-297 0)
(-3.0918e-298 -1.14984e-297 0)
(-3.70901e-298 -1.17672e-297 0)
(-4.43391e-298 -1.18624e-297 0)
(-5.18874e-298 -1.17901e-297 0)
(-5.86303e-298 -1.15341e-297 0)
(-6.32144e-298 -1.10392e-297 0)
(-6.44249e-298 -1.01998e-297 0)
(-6.1995e-298 -8.91187e-298 0)
(-5.64293e-298 -7.35335e-298 0)
(-4.89263e-298 -5.79868e-298 0)
(-4.07712e-298 -4.4236e-298 0)
(-3.29175e-298 -3.29119e-298 0)
(-2.5894e-298 -2.39956e-298 0)
(-1.99082e-298 -1.71837e-298 0)
(-1.49699e-298 -1.20884e-298 0)
(-1.09832e-298 -8.32909e-299 0)
(-7.80392e-299 -5.56788e-299 0)
(-5.27314e-299 -3.51892e-299 0)
(-1.99649e-298 -3.09974e-298 0)
(-2.14604e-298 -5.10337e-298 0)
(-2.09232e-298 -6.23135e-298 0)
(-2.08259e-298 -6.99319e-298 0)
(-2.18615e-298 -7.52362e-298 0)
(-2.40616e-298 -7.87704e-298 0)
(-2.72373e-298 -8.08261e-298 0)
(-3.10565e-298 -8.15871e-298 0)
(-3.50452e-298 -8.11325e-298 0)
(-3.85978e-298 -7.93798e-298 0)
(-4.10551e-298 -7.60244e-298 0)
(-4.18712e-298 -7.05751e-298 0)
(-4.08192e-298 -6.27295e-298 0)
(-3.79796e-298 -5.32098e-298 0)
(-3.38101e-298 -4.32909e-298 0)
(-2.89451e-298 -3.40277e-298 0)
(-2.39637e-298 -2.60001e-298 0)
(-1.92727e-298 -1.93963e-298 0)
(-1.51e-298 -1.41638e-298 0)
(-1.15341e-298 -1.01297e-298 0)
(-8.57073e-299 -7.07683e-299 0)
(-6.14993e-299 -4.7847e-299 0)
(-4.18313e-299 -3.04995e-299 0)
(-1.40335e-298 -1.78449e-298 0)
(-1.60927e-298 -3.19964e-298 0)
(-1.63325e-298 -4.09183e-298 0)
(-1.64183e-298 -4.71535e-298 0)
(-1.69611e-298 -5.15095e-298 0)
(-1.80996e-298 -5.44141e-298 0)
(-1.97786e-298 -5.61365e-298 0)
(-2.18234e-298 -5.68495e-298 0)
(-2.3969e-298 -5.66345e-298 0)
(-2.58879e-298 -5.546e-298 0)
(-2.72379e-298 -5.3172e-298 0)
(-2.7732e-298 -4.95547e-298 0)
(-2.72058e-298 -4.45351e-298 0)
(-2.56472e-298 -3.84668e-298 0)
(-2.3238e-298 -3.19898e-298 0)