# Solver information
# Time        	alpha.grout_solver	alpha.grout_initial	alpha.grout_final	alpha.grout_iters	alpha.grout_converged	p_rgh_solver  	p_rgh_initial 	p_rgh_final   	p_rgh_iters   	p_rgh_converged
0.1           	smoothSolver	0.000000e+00	0.000000e+00	0	true	DICPCG	1.000000e+00	4.798910e-02	26	true
0.2           	smoothSolver	1.397440e-08	3.382000e-17	1	true	DICPCG	2.874200e-07	7.571750e-08	32	true
0.3           	smoothSolver	2.176440e-08	3.500870e-17	1	true	DICPCG	2.463910e-07	9.947050e-08	25	true
0.4           	smoothSolver	8.705560e-09	8.705560e-09	0	true	DICPCG	1.831470e-07	8.280290e-08	31	true
0.5           	smoothSolver	1.255900e-08	3.525070e-17	1	true	DICPCG	1.830470e-07	9.861750e-08	31	true
0.6           	smoothSolver	2.484390e-09	2.484390e-09	0	true	DICPCG	1.151840e-07	8.181040e-08	20	true
0.7           	smoothSolver	4.489420e-09	4.489420e-09	0	true	DICPCG	1.271260e-07	8.333900e-08	23	true
0.8           	smoothSolver	7.619340e-09	7.619340e-09	0	true	DICPCG	1.430850e-07	8.310100e-08	41	true
0.9           	smoothSolver	1.325220e-08	3.378990e-17	1	true	DICPCG	1.660630e-07	9.989160e-08	42	true
1             	smoothSolver	3.127630e-09	3.127630e-09	0	true	DICPCG	1.640410e-07	9.609110e-08	26	true
1.1           	smoothSolver	5.095790e-09	5.095790e-09	0	true	DICPCG	1.499560e-07	8.452430e-08	41	true
1.2           	smoothSolver	8.787120e-09	8.787120e-09	0	true	DICPCG	1.475130e-07	6.846700e-08	47	true
1.3           	smoothSolver	1.609480e-08	3.439410e-17	1	true	DICPCG	1.369460e-07	7.954800e-08	47	true
1.4           	smoothSolver	1.467100e-09	1.467100e-09	0	true	DICPCG	1.145230e-07	9.475800e-08	8	true
1.5           	smoothSolver	2.430510e-09	2.430510e-09	0	true	DICPCG	1.464910e-07	8.324890e-08	4	true
1.6           	smoothSolver	4.768630e-09	4.768630e-09	0	true	DICPCG	1.216050e-07	9.612840e-08	4	true
1.7           	smoothSolver	9.086800e-09	9.086800e-09	0	true	DICPCG	1.320560e-07	5.543760e-08	6	true
1.8           	smoothSolver	1.655510e-08	3.410990e-17	1	true	DICPCG	1.082100e-07	9.714400e-08	7	true
1.9           	smoothSolver	3.213710e-09	3.213710e-09	0	true	DICPCG	1.694420e-07	8.930360e-08	4	true
2             	smoothSolver	5.608100e-09	5.608100e-09	0	true	DICPCG	1.387480e-07	9.111140e-08	4	true
2.1           	smoothSolver	9.919860e-09	9.919860e-09	0	true	DICPCG	1.426590e-07	6.725820e-08	4	true
2.2           	smoothSolver	1.760160e-08	3.427020e-17	1	true	DICPCG	9.665030e-08	9.665030e-08	0	true
2.3           	smoothSolver	3.754810e-08	3.417900e-17	1	true	DICPCG	1.415020e-07	5.248430e-08	6	true
2.4           	smoothSolver	6.657630e-08	3.407650e-17	1	true	DICPCG	1.285330e-07	8.898390e-08	6	true
2.5           	smoothSolver	4.731860e-09	4.731860e-09	0	true	DICPCG	1.344620e-07	5.734510e-08	5	true
2.6           	smoothSolver	6.842080e-09	6.842080e-09	0	true	DICPCG	1.171810e-07	8.918290e-08	5	true
2.7           	smoothSolver	1.172050e-08	3.377120e-17	1	true	DICPCG	1.679810e-07	7.467420e-08	6	true
2.8           	smoothSolver	1.989740e-08	3.428310e-17	1	true	DICPCG	1.379300e-07	7.959460e-08	7	true
2.9           	smoothSolver	3.498130e-08	3.367930e-17	1	true	DICPCG	1.542870e-07	8.651180e-08	8	true
3             	smoothSolver	1.529800e-09	1.529800e-09	0	true	DICPCG	1.331590e-07	5.632420e-08	7	true
3.1           	smoothSolver	4.072860e-09	4.072860e-09	0	true	DICPCG	1.434030e-07	6.394420e-08	5	true
3.2           	smoothSolver	6.756870e-09	6.756870e-09	0	true	DICPCG	1.247080e-07	6.329690e-08	6	true
3.3           	smoothSolver	1.174410e-08	3.439310e-17	1	true	DICPCG	1.225680e-07	5.019040e-08	8	true
3.4           	smoothSolver	2.101590e-08	3.482280e-17	1	true	DICPCG	9.340600e-08	9.340600e-08	0	true
3.5           	smoothSolver	4.714780e-08	3.436580e-17	1	true	DICPCG	1.404620e-07	9.539940e-08	9	true
3.6           	smoothSolver	2.762130e-09	2.762130e-09	0	true	DICPCG	1.315600e-07	9.730330e-08	4	true
3.7           	smoothSolver	4.971880e-09	4.971880e-09	0	true	DICPCG	1.214320e-07	7.365850e-08	4	true
3.8           	smoothSolver	8.430920e-09	8.430920e-09	0	true	DICPCG	9.798110e-08	9.798110e-08	0	true
3.9           	smoothSolver	1.843570e-08	3.458870e-17	1	true	DICPCG	1.268710e-07	7.193980e-08	4	true
4             	smoothSolver	3.332700e-08	3.390380e-17	1	true	DICPCG	1.221600e-07	7.570350e-08	4	true
4.1           	smoothSolver	5.989760e-08	3.398200e-17	1	true	DICPCG	1.153410e-07	7.317480e-08	4	true
4.2           	smoothSolver	4.443500e-09	4.443500e-09	0	true	DICPCG	7.818230e-08	7.818230e-08	0	true
4.3           	smoothSolver	4.754450e-09	4.754450e-09	0	true	DICPCG	6.771200e-08	6.771200e-08	0	true
4.4           	smoothSolver	2.395300e-08	3.436080e-17	1	true	DICPCG	1.284080e-07	5.385850e-08	4	true
4.5           	smoothSolver	4.072750e-08	3.368760e-17	1	true	DICPCG	6.624760e-08	6.624760e-08	0	true
4.6           	smoothSolver	8.322850e-08	3.433020e-17	1	true	DICPCG	7.737540e-08	7.737540e-08	0	true
4.7           	smoothSolver	1.169680e-07	3.393750e-17	1	true	DICPCG	8.926220e-08	8.926220e-08	0	true
4.8           	smoothSolver	1.436350e-07	3.359240e-17	1	true	DICPCG	1.018820e-07	4.734480e-08	3	true
4.9           	smoothSolver	5.771880e-08	3.368800e-17	1	true	DICPCG	1.285650e-07	5.104540e-08	2	true
5             	smoothSolver	1.162850e-07	3.384640e-17	1	true	DICPCG	1.163020e-07	4.129900e-08	4	true
5.1           	smoothSolver	1.791150e-07	3.410340e-17	1	true	DICPCG	1.268320e-07	5.299380e-08	4	true
5.2           	smoothSolver	1.630060e-08	3.428320e-17	1	true	DICPCG	1.534470e-07	5.845210e-08	5	true
5.3           	smoothSolver	2.537780e-08	3.420640e-17	1	true	DICPCG	1.495990e-07	5.463500e-08	5	true
5.4           	smoothSolver	4.086460e-08	3.443070e-17	1	true	DICPCG	1.377370e-07	8.665860e-08	6	true
5.5           	smoothSolver	4.022080e-09	4.022080e-09	0	true	DICPCG	2.094070e-07	4.488320e-08	7	true
5.6           	smoothSolver	5.004470e-09	5.004470e-09	0	true	DICPCG	1.459910e-07	7.076450e-08	4	true
5.7           	smoothSolver	8.088030e-09	8.088030e-09	0	true	DICPCG	1.075460e-07	9.123930e-08	4	true
5.8           	smoothSolver	1.360500e-08	3.397680e-17	1	true	DICPCG	1.358840e-07	4.540840e-08	6	true
5.9           	smoothSolver	2.331360e-08	3.405780e-17	1	true	DICPCG	3.956250e-08	3.956250e-08	0	true
6             	smoothSolver	5.173040e-08	3.372150e-17	1	true	DICPCG	5.825990e-08	5.825990e-08	0	true
6.1           	smoothSolver	7.537280e-08	3.394950e-17	1	true	DICPCG	9.041210e-08	9.041210e-08	0	true
6.2           	smoothSolver	9.520020e-08	3.371800e-17	1	true	DICPCG	1.251280e-07	6.900660e-08	6	true
6.3           	smoothSolver	6.770890e-09	6.770890e-09	0	true	DICPCG	1.144130e-07	8.509790e-08	5	true
6.4           	smoothSolver	9.330170e-09	9.330170e-09	0	true	DICPCG	2.080840e-07	7.594570e-08	7	true
6.5           	smoothSolver	1.529160e-08	3.443440e-17	1	true	DICPCG	2.077420e-07	7.438150e-08	7	true
6.6           	smoothSolver	2.617460e-08	3.443770e-17	1	true	DICPCG	1.928160e-07	5.323240e-08	9	true
6.7           	smoothSolver	4.591100e-08	3.390420e-17	1	true	DICPCG	1.757690e-07	5.871800e-08	10	true
6.8           	smoothSolver	8.186710e-08	3.359630e-17	1	true	DICPCG	9.573560e-08	9.573560e-08	0	true
6.9           	smoothSolver	6.832820e-10	6.832820e-10	0	true	DICPCG	7.213300e-08	7.213300e-08	0	true
7             	smoothSolver	9.812970e-09	9.812970e-09	0	true	DICPCG	8.462040e-08	8.462040e-08	0	true
7.1           	smoothSolver	1.732200e-08	3.415780e-17	1	true	DICPCG	9.705640e-08	9.705640e-08	0	true
7.2           	smoothSolver	2.333990e-08	3.473360e-17	1	true	DICPCG	1.091450e-07	6.855510e-08	12	true
7.3           	smoothSolver	4.011350e-08	3.361650e-17	1	true	DICPCG	7.987080e-08	7.987080e-08	0	true
7.4           	smoothSolver	9.050570e-08	3.428300e-17	1	true	DICPCG	9.266660e-08	9.266660e-08	0	true
7.5           	smoothSolver	1.325470e-07	3.451770e-17	1	true	DICPCG	1.076070e-07	9.160940e-08	19	true
7.6           	smoothSolver	2.267380e-07	3.421510e-17	1	true	DICPCG	1.616680e-07	6.154160e-08	18	true
7.7           	smoothSolver	1.290170e-08	3.363700e-17	1	true	DICPCG	1.116590e-07	9.067980e-08	13	true
7.8           	smoothSolver	2.021020e-09	2.021020e-09	0	true	DICPCG	1.111580e-07	5.819930e-08	6	true
7.9           	smoothSolver	2.998870e-09	2.998870e-09	0	true	DICPCG	5.506320e-08	5.506320e-08	0	true
8             	smoothSolver	5.867420e-09	5.867420e-09	0	true	DICPCG	5.973910e-08	5.973910e-08	0	true
8.1           	smoothSolver	8.257500e-09	8.257500e-09	0	true	DICPCG	6.685790e-08	6.685790e-08	0	true
8.2           	smoothSolver	1.030550e-08	3.408620e-17	1	true	DICPCG	7.414100e-08	7.414100e-08	0	true
8.3           	smoothSolver	1.214940e-08	3.416140e-17	1	true	DICPCG	8.258490e-08	8.258490e-08	0	true
8.4           	smoothSolver	1.384690e-08	3.375740e-17	1	true	DICPCG	9.142450e-08	9.142450e-08	0	true
8.5           	smoothSolver	1.542360e-08	3.437690e-17	1	true	DICPCG	1.003320e-07	8.496510e-08	37	true
8.6           	smoothSolver	2.851460e-08	3.415480e-17	1	true	DICPCG	6.241710e-08	6.241710e-08	0	true
8.7           	smoothSolver	6.719570e-08	3.338110e-17	1	true	DICPCG	9.461190e-08	9.461190e-08	0	true
8.8           	smoothSolver	1.026260e-07	3.376370e-17	1	true	DICPCG	1.256110e-07	8.794210e-08	40	true
8.9           	smoothSolver	1.943730e-07	3.397320e-17	1	true	DICPCG	5.494200e-08	5.494200e-08	0	true
9             	smoothSolver	4.638830e-07	3.440570e-17	1	true	DICPCG	8.894080e-08	8.894080e-08	0	true
9.1           	smoothSolver	7.131210e-07	3.658270e-17	1	true	DICPCG	1.216720e-07	8.191230e-08	41	true
9.2           	smoothSolver	1.361620e-06	7.178660e-17	1	true	DICPCG	2.051410e-08	2.051410e-08	0	true
9.3           	smoothSolver	3.252610e-06	6.986660e-16	1	true	DICPCG	3.171110e-08	3.171110e-08	0	true
9.4           	smoothSolver	5.005590e-06	2.578550e-15	1	true	DICPCG	1.178690e-07	9.945450e-08	40	true
9.5           	smoothSolver	9.639690e-06	1.767280e-14	1	true	DICPCG	2.758670e-08	2.758670e-08	0	true
9.6           	smoothSolver	2.309280e-05	2.420750e-13	1	true	DICPCG	4.294700e-08	4.294700e-08	0	true
9.7           	smoothSolver	3.561770e-05	9.114810e-13	1	true	DICPCG	9.168030e-07	8.230520e-08	41	true
9.8           	smoothSolver	6.864480e-05	6.793930e-12	1	true	DICPCG	1.635930e-08	1.635930e-08	0	true
9.9           	smoothSolver	1.645580e-04	9.756810e-11	1	true	DICPCG	2.190720e-08	2.190720e-08	0	true
10            	smoothSolver	2.537970e-04	3.677070e-10	1	true	DICPCG	2.178040e-06	8.992650e-08	48	true
