/*--------------------------------*- C++ -*----------------------------------*\
| =========                 |                                                 |
| \\      /  F ield         | OpenFOAM: The Open Source CFD Toolbox           |
|  \\    /   O peration     | Version:  2406                                  |
|   \\  /    A nd           | Website:  www.openfoam.com                      |
|    \\/     M anipulation  |                                                 |
\*---------------------------------------------------------------------------*/
FoamFile
{
    version     2.0;
    format      ascii;
    arch        "LSB;label=32;scalar=64";
    class       volScalarField;
    location    "0.15";
    object      epsilon;
}
// * * * * * * * * * * * * * * * * * * * * * * * * * * * * * * * * * * * * * //

dimensions      [0 2 -3 0 0 0 0];

internalField   nonuniform List<scalar> 
2268
(
3.11056
4.22461
4.22461
4.22461
4.22461
4.22461
4.22461
4.22461
4.22461
4.22461
4.22461
4.22461
4.22461
0.280794
0.322862
0.380588
0.408704
0.418523
0.41471
0.394841
0.349475
0.263141
0.129866
1.99652
3.53904
3.87395
3.99094
4.04704
4.07914
4.09939
4.11283
4.12192
4.12796
4.13166
4.13343
4.13343
0.331848
0.216369
0.216834
0.220194
0.221371
0.22033
0.216078
0.205754
0.184956
0.174239
1.99652
3.12319
3.57196
3.77086
3.87483
3.93633
3.9757
4.00203
4.01992
4.03183
4.03915
4.04264
4.04264
0.382069
0.211572
0.189751
0.183974
0.181973
0.181604
0.182118
0.182724
0.18326
0.225359
1.99652
2.85875
3.32578
3.57199
3.71211
3.79846
3.85491
3.89312
3.91925
3.93672
3.94749
3.95263
3.95263
0.412743
0.213602
0.178084
0.166421
0.162262
0.162125
0.165328
0.172342
0.185823
0.259307
1.99652
2.68257
3.12892
3.39682
3.5614
3.66727
3.7382
3.78691
3.82052
3.84312
3.85709
3.86378
3.86378
0.43095
0.21508
0.170321
0.154416
0.148583
0.148447
0.153361
0.164765
0.187905
0.286075
1.99652
2.55993
2.97192
3.24472
3.42379
3.54389
3.62644
3.68408
3.72425
3.75144
3.76832
3.77641
3.77641
0.441549
0.215402
0.164258
0.145235
0.138057
0.137745
0.143659
0.158086
0.189466
0.313251
1.99652
2.47111
2.84601
3.11356
3.29936
3.42889
3.52026
3.58514
3.63087
3.66206
3.68151
3.69086
3.69086
0.44744
0.214887
0.159318
0.138011
0.129734
0.129078
0.135354
0.151527
0.190593
0.359326
1.99652
2.40455
2.74407
3.00066
3.18749
3.32242
3.41999
3.49048
3.54075
3.5753
3.59696
3.6074
3.6074
0.450309
0.213782
0.15522
0.132288
0.123104
0.121939
0.127939
0.144241
0.188786
0.501468
0.138659
0.27752
0.362936
0.405261
0.423751
0.431009
0.433629
0.434516
0.434788
0.434821
0.434677
0.434205
0.432905
0.429494
0.420986
0.401166
0.358674
0.276866
0.161263
0.174414
0.188531
0.208852
0.218103
0.221767
0.223108
0.223576
0.223735
0.223785
0.223793
0.223768
0.223688
0.223469
0.222882
0.221334
0.217403
0.208055
0.188822
0.182725
0.224613
0.183583
0.182556
0.18145
0.180487
0.179957
0.179734
0.179659
0.179639
0.179638
0.179653
0.1797
0.179833
0.180155
0.18081
0.181828
0.182772
0.183605
0.22565
0.256834
0.184203
0.170195
0.163008
0.159328
0.157662
0.156998
0.156765
0.156696
0.156691
0.156734
0.156875
0.157255
0.158184
0.160236
0.164259
0.171285
0.183904
0.25394
0.281878
0.184752
0.161144
0.149803
0.144303
0.141848
0.140859
0.1405
0.14039
0.140381
0.140454
0.140682
0.141279
0.142708
0.145834
0.152046
0.163352
0.184136
0.273898
0.307751
0.184836
0.153279
0.139119
0.132448
0.129465
0.128238
0.127779
0.127634
0.127625
0.127729
0.128045
0.128845
0.130708
0.134704
0.142587
0.157055
0.183816
0.288235
0.352549
0.184295
0.145795
0.130047
0.122774
0.119488
0.118102
0.117567
0.117393
0.117386
0.117526
0.117932
0.118928
0.121175
0.125878
0.135032
0.151821
0.18303
0.298476
0.484287
0.180794
0.137983
0.122086
0.11475
0.111364
0.10989
0.109302
0.109105
0.109104
0.109283
0.109785
0.110971
0.113558
0.118823
0.128887
0.14726
0.181713
0.305741
1.99652
2.32441
2.61365
2.84849
3.03071
3.16899
3.27268
3.34953
3.40534
3.44415
3.46867
3.48055
3.48055
0.451247
0.211188
0.149791
0.125172
0.114805
0.112603
0.117212
0.130294
0.158842
0.231159
1.99652
2.25443
2.4912
2.69465
2.86182
2.99521
3.09938
3.17907
3.23829
3.28018
3.30694
3.31998
3.31997
0.449731
0.209357
0.145975
0.119864
0.108208
0.104534
0.106789
0.114906
0.130299
0.15595
1.99652
2.20583
2.40241
2.57748
2.72708
2.85094
2.95083
3.02927
3.08877
3.13149
3.15906
3.17258
3.17258
0.447103
0.208211
0.143828
0.116738
0.104062
0.0990578
0.0991839
0.10344
0.11136
0.122152
1.99652
2.17008
2.33537
2.48604
2.61834
2.73091
2.82397
2.89861
2.95621
2.9981
3.0254
3.03885
3.03885
0.444071
0.207339
0.142518
0.114818
0.101388
0.0953229
0.0938043
0.0954247
0.0992186
0.104097
1.99652
2.14267
2.28312
2.41315
2.52955
2.63059
2.71572
2.78516
2.83951
2.87948
2.90572
2.91872
2.91871
0.440978
0.20663
0.141679
0.113624
0.0996798
0.0928568
0.0902012
0.090162
0.0917112
0.0939653
1.99652
2.12103
2.2414
2.35405
2.45627
2.54633
2.62333
2.68697
2.73735
2.77473
2.79943
2.81171
2.81171
0.437974
0.206029
0.141117
0.112879
0.0986189
0.091307
0.0879339
0.0869156
0.0872727
0.0883232
1.99652
2.10357
2.20749
2.30548
2.39529
2.47528
2.54443
2.60219
2.64831
2.68279
2.7057
2.71712
2.71712
0.435133
0.205502
0.140719
0.112413
0.0979811
0.0903854
0.0865975
0.085038
0.0847867
0.0852965
1.99652
2.08927
2.17957
2.26518
2.34421
2.41519
2.47706
2.52915
2.57105
2.60255
2.62357
2.63408
2.63408
0.432493
0.20503
0.140421
0.112113
0.0976062
0.0898649
0.0858585
0.084021
0.0834763
0.0837573
1.99652
2.07744
2.15639
2.23154
2.30128
2.3643
2.41958
2.46642
2.5043
2.53291
2.55206
2.56166
2.56166
0.430074
0.204604
0.140184
0.11191
0.097385
0.0895814
0.0854724
0.083504
0.0828277
0.0830206
1.99652
2.0676
2.13706
2.20336
2.26514
2.32121
2.37065
2.41273
2.44691
2.47282
2.49021
2.49894
2.49894
0.427887
0.20422
0.139986
0.111763
0.0972485
0.0894276
0.0852784
0.0832552
0.0825254
0.0826891
1.99652
2.0594
2.12092
2.17976
2.23475
2.28484
2.32917
2.36703
2.39788
2.42134
2.43712
2.44505
2.44505
0.425937
0.203874
0.139815
0.111647
0.0971561
0.0893398
0.085181
0.0831394
0.0823913
0.082548
1.99652
2.05258
2.10747
2.16006
2.20931
2.2543
2.29421
2.3284
2.35634
2.37762
2.39196
2.39917
2.39917
0.424223
0.203567
0.139664
0.111547
0.0970838
0.0892818
0.0851276
0.0830844
0.0823329
0.0824903
1.99652
2.04694
2.09635
2.14374
2.1882
2.22888
2.26505
2.2961
2.32152
2.34092
2.354
2.36059
2.36059
0.422745
0.203293
0.13952
0.111449
0.097014
0.0892317
0.0850899
0.0830534
0.0823055
0.0824664
1.99652
2.04234
2.08726
2.13039
2.17089
2.20801
2.24107
2.26949
2.29279
2.31059
2.32262
2.32867
2.32867
0.421507
0.203043
0.139362
0.111328
0.0969244
0.0891699
0.0850493
0.0830269
0.0822877
0.0824543
1.99652
2.03866
2.07999
2.11969
2.15701
2.19125
2.22178
2.24805
2.26962
2.28612
2.29726
2.30288
2.30288
0.420533
0.202782
0.139131
0.111129
0.096775
0.0890694
0.0849874
0.0829913
0.0822682
0.0824443
1.99652
2.03581
2.07435
2.1114
2.14624
2.17823
2.20678
2.23138
2.25158
2.26704
2.2775
2.28277
2.28277
0.41991
0.202394
0.138671
0.110733
0.096489
0.0888855
0.0848794
0.0829328
0.0822388
0.0824309
1.99652
2.03373
2.07023
2.10533
2.13836
2.1687
2.19579
2.21914
2.23834
2.25304
2.26298
2.26799
2.26799
0.419795
0.201442
0.137583
0.109891
0.0959317
0.0885499
0.0846923
0.0828355
0.0821918
0.0824105
1.99652
2.03237
2.06754
2.10136
2.13319
2.16245
2.18858
2.21112
2.22964
2.24384
2.25344
2.25828
2.25828
0.419032
0.198152
0.134899
0.108158
0.0949074
0.0879783
0.0843901
0.0826847
0.0821211
0.0823804
1.99652
2.03169
2.0662
2.09939
2.13064
2.15935
2.18501
2.20714
2.22534
2.23928
2.24871
2.25347
2.25346
0.398686
0.186109
0.128707
0.104947
0.0932266
0.0871082
0.0839525
0.0824736
0.0820246
0.08234
1.99652
2.03169
2.0662
2.09939
2.13063
2.15935
2.18501
2.20714
2.22534
2.23927
2.24871
2.25346
0.511298
0.235516
0.152426
0.117393
0.100087
0.0909093
0.0859703
0.0833993
0.0822129
0.0819073
0.0822914
0.342512
0.36663
0.392482
0.404114
0.4095
0.412302
0.414009
0.415232
0.416278
0.417379
0.417364
0.39723
0.235169
0.163016
0.126483
0.106382
0.0949352
0.0883893
0.0847286
0.0827981
0.0819312
0.0817812
0.0822394
0.287407
0.216384
0.21004
0.207015
0.204739
0.203206
0.202316
0.201833
0.201444
0.200562
0.197326
0.185344
0.152061
0.126357
0.10893
0.0975854
0.0904301
0.0860798
0.0835642
0.0822282
0.0816628
0.0816608
0.0821896
0.307188
0.191282
0.166543
0.154453
0.147377
0.143196
0.140809
0.139443
0.138463
0.137165
0.134413
0.12825
0.117096
0.106229
0.097529
0.0912124
0.0869324
0.0842094
0.0825971
0.0817475
0.0814342
0.0815574
0.0821466
0.319687
0.184444
0.150647
0.13352
0.123536
0.117642
0.114241
0.11229
0.111023
0.109784
0.107897
0.104663
0.0998642
0.0947922
0.0903528
0.0869009
0.084446
0.0828348
0.0818703
0.0813806
0.0812577
0.0814768
0.0821129
0.325821
0.181913
0.143674
0.123758
0.112012
0.105009
0.100921
0.0985761
0.0971578
0.0960589
0.094803
0.0930496
0.090741
0.0882591
0.08599
0.0841526
0.082805
0.0819045
0.0813692
0.081124
0.0811327
0.0814192
0.0820886
0.328624
0.180837
0.140431
0.118987
0.106186
0.0984747
0.0939308
0.0913243
0.0898177
0.0888299
0.0879638
0.0869807
0.0858174
0.0845865
0.0834436
0.0824982
0.0817928
0.0813196
0.0810493
0.0809581
0.0810509
0.081381
0.0820723
0.329844
0.180367
0.13893
0.116673
0.103262
0.0951154
0.0902801
0.0875038
0.085941
0.0850218
0.084378
0.0837971
0.0831953
0.0825868
0.0820251
0.0815575
0.081207
0.080976
0.0808588
0.080858
0.0810011
0.0813576
0.0820623
0.330354
0.180169
0.13826
0.11559
0.101844
0.0934443
0.0884332
0.0855516
0.0839522
0.0830695
0.0825442
0.0821686
0.0818439
0.081543
0.0812738
0.081052
0.080888
0.0807865
0.0807525
0.0808016
0.0809726
0.081344
0.0820565
0.330561
0.180089
0.137975
0.115108
0.101188
0.0926515
0.0875409
0.084598
0.0829755
0.0821097
0.0816434
0.0813684
0.0811769
0.0810236
0.0808962
0.0807951
0.080724
0.080688
0.0806967
0.0807716
0.0809574
0.0813368
0.0820533
0.330643
0.18006
0.13786
0.114904
0.100902
0.092295
0.0871322
0.084156
0.0825198
0.0816606
0.0812218
0.0809934
0.0808633
0.080778
0.0807162
0.0806716
0.0806446
0.0806399
0.0806693
0.0807569
0.08095
0.0813333
0.0820519
0.330676
0.180049
0.137817
0.114823
0.100783
0.0921439
0.0869556
0.0839626
0.082319
0.081462
0.0810349
0.0808271
0.0807239
0.0806685
0.0806357
0.0806163
0.080609
0.0806186
0.0806574
0.0807509
0.0809474
0.0813324
0.0820518
0.330692
0.180046
0.137801
0.114793
0.100738
0.0920848
0.0868853
0.0838847
0.0822374
0.0813811
0.0809589
0.0807596
0.0806676
0.0806247
0.0806041
0.0805953
0.0805964
0.0806121
0.080655
0.0807509
0.0809486
0.0813341
0.0820534
0.330704
0.180047
0.137797
0.114784
0.100724
0.0920667
0.0868637
0.0838607
0.0822124
0.0813565
0.0809363
0.0807405
0.0806529
0.080615
0.0805992
0.0805946
0.080599
0.080617
0.0806613
0.0807578
0.0809554
0.0813402
0.0820582
0.330729
0.180051
0.137798
0.114784
0.100726
0.0920704
0.0868694
0.0838681
0.0822212
0.0813666
0.0809477
0.0807534
0.0806676
0.0806314
0.0806173
0.0806141
0.0806195
0.080638
0.0806821
0.080778
0.0809742
0.0813567
0.0820712
0.330793
0.180063
0.137802
0.114791
0.10074
0.0920939
0.0869024
0.0839087
0.0822672
0.0814159
0.0809991
0.080806
0.0807211
0.0806855
0.0806717
0.0806685
0.0806736
0.0806914
0.0807342
0.080828
0.0810208
0.081398
0.0821044
0.330979
0.180099
0.13781
0.114799
0.100767
0.0921473
0.0869809
0.0840072
0.0823793
0.0815363
0.081124
0.0809331
0.080849
0.0808135
0.0807994
0.0807955
0.0807994
0.0808154
0.0808555
0.0809449
0.081131
0.0814973
0.0821867
0.331536
0.180214
0.137819
0.114798
0.100809
0.0922538
0.0871483
0.0842214
0.0826248
0.0818002
0.0813977
0.0812113
0.081129
0.0810937
0.0810789
0.0810737
0.0810757
0.0810887
0.0811242
0.0812062
0.08138
0.0817262
0.0823822
0.333283
0.180607
0.137828
0.11474
0.100856
0.0924549
0.0874896
0.0846657
0.083135
0.0823484
0.0819656
0.0817885
0.0817098
0.0816754
0.08166
0.0816532
0.0816525
0.0816613
0.0816902
0.0817609
0.0819151
0.0822272
0.0828249
0.339085
0.182054
0.137823
0.114485
0.100862
0.092824
0.0881627
0.0855487
0.0841465
0.0834313
0.0830848
0.0829247
0.0828532
0.0828211
0.0828056
0.0827974
0.082794
0.0827982
0.0828187
0.0828744
0.0830008
0.0832622
0.0837689
0.360763
0.187339
0.137631
0.113638
0.100721
0.0934993
0.0894507
0.0872292
0.0860546
0.0854611
0.0851752
0.0850432
0.0849838
0.0849565
0.0849425
0.084934
0.0849289
0.084929
0.0849412
0.0849796
0.0850717
0.0852671
0.0856503
0.47449
0.203395
0.13553
0.111154
0.100273
0.0947733
0.0918471
0.0902858
0.0894732
0.0890663
0.088871
0.0887809
0.08874
0.0887209
0.0887106
0.0887038
0.0886991
0.0886974
0.0887028
0.0887245
0.0887798
0.0888998
0.0891375
1.58529
0.217364
0.122139
0.104944
0.0996031
0.0973248
0.0961899
0.0955983
0.0952931
0.0951407
0.0950676
0.0950337
0.0950183
0.095011
0.095007
0.0950042
0.0950022
0.0950012
0.0950025
0.0950095
0.0950282
0.0950697
0.0951537
0.527883
0.409706
0.409001
0.523565
0.185621
0.188969
0.189
0.186293
0.130117
0.132887
0.132831
0.130185
0.107267
0.108484
0.108415
0.107165
0.0954947
0.0960974
0.0960419
0.0953887
0.089244
0.0896355
0.0895918
0.0891663
0.0860121
0.086347
0.0863093
0.0859583
0.0844226
0.0847541
0.0847183
0.0843823
0.0836866
0.0840277
0.0839919
0.0836522
0.0833665
0.0837167
0.0836805
0.0833341
0.0832352
0.0835913
0.0835549
0.0832036
0.0831839
0.0835434
0.0835069
0.0831529
0.0831641
0.0835255
0.0834892
0.0831341
0.0831555
0.0835185
0.0834826
0.0831272
0.0831498
0.0835145
0.0834795
0.0831243
0.083143
0.0835104
0.0834769
0.0831224
0.0831329
0.0835045
0.0834734
0.0831203
0.0831181
0.083496
0.0834685
0.0831173
0.0830982
0.0834846
0.0834619
0.0831134
0.0830744
0.0834709
0.083454
0.0831087
0.0830488
0.0834563
0.0834455
0.0831037
0.0830243
0.0834422
0.0834374
0.0830988
0.0830032
0.0834301
0.0834303
0.0830947
0.0829866
0.0834205
0.0834248
0.0830914
0.0829746
0.0834137
0.0834209
0.083089
0.0829666
0.0834092
0.0834182
0.0830874
0.0829617
0.0834063
0.0834166
0.0830865
0.0829588
0.0834047
0.0834157
0.0830859
0.0829573
0.0834039
0.0834152
0.0830857
0.0829567
0.0834036
0.0834151
0.0830857
0.0829568
0.0834038
0.0834154
0.0830861
0.0829579
0.0834047
0.0834164
0.0830872
0.0829613
0.0834076
0.0834192
0.0830903
0.0829706
0.0834153
0.0834267
0.0830985
0.0829951
0.0834361
0.0834468
0.0831204
0.0830581
0.0834905
0.0834999
0.0831774
0.0832148
0.0836291
0.0836355
0.0833216
0.0835863
0.0839661
0.0839672
0.0836704
0.0844152
0.0847373
0.0847306
0.0844651
0.0861354
0.0863756
0.0863615
0.0861469
0.0894309
0.0895742
0.0895587
0.0894165
0.0952527
0.095298
0.0952902
0.0952376
0.225683
0.153069
0.124414
0.110934
0.104222
0.100943
0.0994287
0.0987873
0.0985662
0.0985814
0.0988324
0.0994921
0.100967
0.104014
0.109924
0.120827
0.140464
0.178287
0.313897
0.154207
0.126315
0.109907
0.1005
0.095291
0.0925528
0.0912091
0.0906109
0.0904062
0.090455
0.090787
0.0916108
0.0933758
0.0968813
0.103447
0.115239
0.136164
0.176409
0.318805
0.121046
0.108561
0.099312
0.09321
0.0895164
0.0874502
0.0863868
0.0858989
0.0857424
0.0858308
0.0862267
0.0871689
0.0891385
0.0929659
0.0999978
0.11243
0.134237
0.17578
0.32089
0.103304
0.0971606
0.0919791
0.0882163
0.0857775
0.0843432
0.0835774
0.0832217
0.0831258
0.0832536
0.0836984
0.0847223
0.0868283
0.0908661
0.0981968
0.111027
0.133342
0.175527
0.321771
0.0933576
0.0900858
0.0871745
0.0849369
0.0834173
0.0824901
0.0819826
0.0817499
0.0817121
0.0818742
0.082354
0.0834308
0.0856218
0.0897876
0.0972953
0.110352
0.132936
0.175421
0.322138
0.0878127
0.085874
0.084197
0.0828909
0.0819843
0.0814195
0.0811074
0.0809724
0.080982
0.0811706
0.0816737
0.0827825
0.0850228
0.0892608
0.0968657
0.110041
0.132758
0.175377
0.32229
0.0848252
0.0834884
0.0824562
0.0816841
0.0811541
0.0808243
0.0806446
0.0805784
0.0806222
0.0808293
0.081347
0.0824738
0.0847407
0.0890165
0.0966711
0.109905
0.132683
0.175359
0.322351
0.083294
0.0822112
0.0814979
0.0810128
0.0806971
0.080507
0.0804091
0.0803866
0.0804526
0.0806716
0.0811978
0.0823342
0.0846144
0.0889089
0.0965871
0.109848
0.132653
0.175352
0.322375
0.0825533
0.081567
0.0810014
0.0806605
0.0804582
0.0803451
0.0802936
0.0802968
0.080376
0.080602
0.0811329
0.0822741
0.0845607
0.0888637
0.0965525
0.109825
0.132641
0.17535
0.322385
0.0822159
0.0812609
0.0807591
0.080486
0.0803397
0.080266
0.080239
0.0802561
0.0803427
0.0805725
0.0811058
0.0822494
0.0845388
0.0888455
0.0965389
0.109816
0.132637
0.175349
0.322389
0.0820709
0.0811236
0.0806475
0.0804042
0.0802838
0.080229
0.0802142
0.0802382
0.0803286
0.0805605
0.081095
0.0822396
0.0845302
0.0888386
0.0965337
0.109813
0.132635
0.175349
0.32239
0.082012
0.0810653
0.0805987
0.0803677
0.0802587
0.0802124
0.0802032
0.0802307
0.0803229
0.0805558
0.0810909
0.0822359
0.084527
0.088836
0.0965318
0.109812
0.132635
0.175349
0.322391
0.0819893
0.0810418
0.0805784
0.0803523
0.0802479
0.0802053
0.0801986
0.0802275
0.0803206
0.0805539
0.0810893
0.0822345
0.0845259
0.088835
0.0965312
0.109811
0.132635
0.175349
0.322391
0.0819808
0.0810328
0.0805703
0.080346
0.0802435
0.0802023
0.0801967
0.0802263
0.0803197
0.0805533
0.0810888
0.0822341
0.0845255
0.0888347
0.0965309
0.109811
0.132634
0.175349
0.322391
0.0819776
0.0810294
0.0805673
0.0803436
0.0802417
0.0802011
0.0801959
0.0802258
0.0803194
0.080553
0.0810886
0.0822339
0.0845254
0.0888346
0.0965309
0.109811
0.132634
0.175349
0.322391
0.0819761
0.081028
0.0805661
0.0803427
0.080241
0.0802007
0.0801957
0.0802256
0.0803193
0.080553
0.0810885
0.0822339
0.0845253
0.0888346
0.0965308
0.109811
0.132634
0.175349
0.322391
0.081975
0.0810274
0.0805657
0.0803423
0.0802408
0.0802005
0.0801955
0.0802256
0.0803192
0.0805529
0.0810885
0.0822338
0.0845253
0.0888346
0.0965308
0.109811
0.132634
0.175349
0.322391
0.0819736
0.0810269
0.0805654
0.0803422
0.0802407
0.0802005
0.0801955
0.0802255
0.0803192
0.0805529
0.0810885
0.0822338
0.0845253
0.0888346
0.0965308
0.109811
0.132634
0.175349
0.322391
0.081972
0.0810263
0.0805652
0.0803421
0.0802407
0.0802004
0.0801955
0.0802255
0.0803192
0.0805529
0.0810885
0.0822338
0.0845253
0.0888346
0.0965308
0.109811
0.132634
0.175349
0.322391
0.08197
0.0810256
0.080565
0.080342
0.0802406
0.0802004
0.0801955
0.0802255
0.0803192
0.0805529
0.0810885
0.0822338
0.0845253
0.0888346
0.0965308
0.109811
0.132634
0.175349
0.322391
0.0819679
0.081025
0.0805648
0.080342
0.0802406
0.0802004
0.0801955
0.0802255
0.0803192
0.0805529
0.0810885
0.0822338
0.0845253
0.0888346
0.0965308
0.109811
0.132634
0.175349
0.322391
0.0819659
0.0810243
0.0805646
0.0803419
0.0802406
0.0802004
0.0801955
0.0802255
0.0803192
0.0805529
0.0810885
0.0822338
0.0845253
0.0888346
0.0965308
0.109811
0.132634
0.175349
0.322391
0.0819642
0.0810237
0.0805644
0.0803418
0.0802406
0.0802004
0.0801955
0.0802255
0.0803192
0.0805529
0.0810885
0.0822338
0.0845253
0.0888346
0.0965308
0.109811
0.132634
0.175349
0.322391
0.0819628
0.0810233
0.0805643
0.0803418
0.0802406
0.0802004
0.0801955
0.0802255
0.0803192
0.0805529
0.0810885
0.0822338
0.0845253
0.0888346
0.0965308
0.109811
0.132634
0.175349
0.322391
0.0819618
0.0810229
0.0805642
0.0803418
0.0802406
0.0802004
0.0801955
0.0802255
0.0803192
0.0805529
0.0810885
0.0822338
0.0845253
0.0888346
0.0965308
0.109811
0.132634
0.175349
0.322391
0.0819611
0.0810227
0.0805641
0.0803417
0.0802406
0.0802004
0.0801955
0.0802255
0.0803192
0.0805529
0.0810885
0.0822338
0.0845253
0.0888346
0.0965308
0.109811
0.132634
0.175349
0.322391
0.0819607
0.0810226
0.080564
0.0803417
0.0802406
0.0802004
0.0801955
0.0802255
0.0803192
0.0805529
0.0810885
0.0822338
0.0845253
0.0888346
0.0965308
0.109811
0.132634
0.175349
0.322391
0.0819605
0.0810225
0.080564
0.0803418
0.0802406
0.0802004
0.0801955
0.0802255
0.0803192
0.0805529
0.0810885
0.0822338
0.0845253
0.0888346
0.0965308
0.109811
0.132634
0.175349
0.322391
0.0819604
0.0810226
0.0805641
0.0803418
0.0802407
0.0802005
0.0801956
0.0802256
0.0803193
0.0805529
0.0810885
0.0822338
0.0845253
0.0888346
0.0965308
0.109811
0.132634
0.175349
0.322391
0.0819606
0.0810228
0.0805644
0.0803421
0.0802408
0.0802006
0.0801957
0.0802257
0.0803193
0.080553
0.0810885
0.0822339
0.0845253
0.0888346
0.0965308
0.109811
0.132634
0.175349
0.322391
0.0819612
0.0810235
0.080565
0.0803427
0.0802414
0.0802011
0.0801961
0.080226
0.0803196
0.0805532
0.0810886
0.0822339
0.0845254
0.0888346
0.0965308
0.109811
0.132634
0.175349
0.322391
0.0819628
0.0810253
0.0805668
0.0803443
0.0802429
0.0802024
0.0801971
0.0802268
0.0803202
0.0805536
0.081089
0.0822342
0.0845255
0.0888347
0.0965309
0.109811
0.132634
0.175349
0.322391
0.081967
0.0810303
0.0805718
0.080349
0.080247
0.080206
0.0802001
0.0802293
0.0803222
0.0805551
0.08109
0.0822348
0.0845259
0.0888348
0.0965309
0.109811
0.132634
0.175349
0.322391
0.0819782
0.0810434
0.080585
0.0803615
0.0802584
0.0802161
0.0802088
0.0802365
0.080328
0.0805595
0.0810932
0.082237
0.0845271
0.0888355
0.0965311
0.109811
0.132634
0.175349
0.322391
0.0820073
0.0810773
0.0806195
0.0803946
0.0802891
0.0802436
0.080233
0.0802571
0.0803449
0.0805729
0.0811032
0.0822438
0.0845313
0.0888375
0.0965318
0.109811
0.132634
0.175349
0.322392
0.0820809
0.0811623
0.0807067
0.0804793
0.0803686
0.0803166
0.0802984
0.0803142
0.0803933
0.0806124
0.0811337
0.0822657
0.0845451
0.0888446
0.0965341
0.109811
0.132634
0.175349
0.322393
0.0822608
0.0813673
0.0809176
0.0806864
0.0805665
0.0805017
0.0804681
0.0804665
0.0805263
0.0807246
0.0812239
0.0823331
0.0845898
0.0888685
0.0965423
0.109811
0.132633
0.175349
0.322396
0.0826796
0.0818365
0.0814013
0.0811664
0.0810321
0.0809459
0.0808853
0.0808514
0.0808736
0.0810288
0.081479
0.0825332
0.0847295
0.0889475
0.096569
0.109808
0.132628
0.175349
0.322404
0.083597
0.0828451
0.0824415
0.0822082
0.0820576
0.0819432
0.0818442
0.0817613
0.0817219
0.0818011
0.0821562
0.0830925
0.085143
0.0891953
0.0966516
0.109779
0.132592
0.175347
0.322424
0.085467
0.0848609
0.0845183
0.0843034
0.0841469
0.0840105
0.0838752
0.0837401
0.0836271
0.0836033
0.0838097
0.0845336
0.086277
0.0899214
0.0968852
0.109592
0.132367
0.175324
0.322476
0.0889851
0.0885846
0.0883448
0.0881825
0.0880519
0.0879265
0.0877906
0.0876412
0.0874899
0.087386
0.0874308
0.0878578
0.089063
0.091836
0.0974651
0.108604
0.130984
0.175139
0.322595
0.0950878
0.0949438
0.0948533
0.0947888
0.0947335
0.0946771
0.0946124
0.0945369
0.0944521
0.0943782
0.0943505
0.0944818
0.0949303
0.096133
0.0986878
0.104535
0.122897
0.173731
0.322795
)
;

boundaryField
{
    leftWall
    {
        type            epsilonWallFunction;
        blending        stepwise;
        value           nonuniform List<scalar> 
50
(
3.11056
1.99652
1.99652
1.99652
1.99652
1.99652
1.99652
1.99652
1.99652
1.99652
1.99652
1.99652
1.99652
1.99652
1.99652
1.99652
1.99652
1.99652
1.99652
1.99652
1.99652
1.99652
1.99652
1.99652
1.99652
1.99652
1.99652
1.99652
0.342512
0.287407
0.307188
0.319687
0.325821
0.328624
0.329844
0.330354
0.330561
0.330643
0.330676
0.330692
0.330704
0.330729
0.330793
0.330979
0.331536
0.333283
0.339085
0.360763
0.47449
1.58529
)
;
    }
    rightWall
    {
        type            epsilonWallFunction;
        blending        stepwise;
        value           nonuniform List<scalar> 
50
(
0.161263
0.182725
0.22565
0.25394
0.273898
0.288235
0.298476
0.305741
0.313897
0.318805
0.32089
0.321771
0.322138
0.32229
0.322351
0.322375
0.322385
0.322389
0.32239
0.322391
0.322391
0.322391
0.322391
0.322391
0.322391
0.322391
0.322391
0.322391
0.322391
0.322391
0.322391
0.322391
0.322391
0.322391
0.322391
0.322391
0.322391
0.322391
0.322391
0.322391
0.322391
0.322391
0.322392
0.322393
0.322396
0.322404
0.322424
0.322476
0.322595
0.322795
)
;
    }
    lowerWall
    {
        type            epsilonWallFunction;
        blending        stepwise;
        value           nonuniform List<scalar> 
62
(
3.11056
4.22461
4.22461
4.22461
4.22461
4.22461
4.22461
4.22461
4.22461
4.22461
4.22461
4.22461
4.22461
0.280794
0.322862
0.380588
0.408704
0.418523
0.41471
0.394841
0.349475
0.263141
0.129866
0.129866
0.174239
0.225359
0.259307
0.286075
0.313251
0.359326
0.501468
0.527883
0.409706
0.409001
0.523565
0.138659
0.174414
0.224613
0.256834
0.281878
0.307751
0.352549
0.484287
0.138659
0.27752
0.362936
0.405261
0.423751
0.431009
0.433629
0.434516
0.434788
0.434821
0.434677
0.434205
0.432905
0.429494
0.420986
0.401166
0.358674
0.276866
0.161263
)
;
    }
    atmosphere
    {
        type            inletOutlet;
        inletValue      uniform 0.1;
        value           nonuniform List<scalar> 
46
(
0.1
0.1
0.1
0.1
0.1
0.1
0.1
0.1
0.1
0.1
0.1
0.1
0.1
0.1
0.1
0.1
0.1
0.1
0.1
0.1
0.1
0.1
0.1
0.1
0.1
0.1
0.1
0.1
0.1
0.1
0.1
0.1
0.1
0.1
0.1
0.1
0.1
0.1
0.1
0.1
0.1
0.1
0.1
0.1
0.173731
0.322795
)
;
    }
    defaultFaces
    {
        type            empty;
    }
}


// ************************************************************************* //
