/*--------------------------------*- C++ -*----------------------------------*\
| =========                 |                                                 |
| \\      /  F ield         | OpenFOAM: The Open Source CFD Toolbox           |
|  \\    /   O peration     | Version:  2406                                  |
|   \\  /    A nd           | Website:  www.openfoam.com                      |
|    \\/     M anipulation  |                                                 |
\*---------------------------------------------------------------------------*/
FoamFile
{
    version     2.0;
    format      ascii;
    arch        "LSB;label=32;scalar=64";
    class       volScalarField;
    location    "0.15";
    object      epsilon;
}
// * * * * * * * * * * * * * * * * * * * * * * * * * * * * * * * * * * * * * //

dimensions      [0 2 -3 0 0 0 0];

internalField   nonuniform List<scalar> 
2268
(
0.15063
0.262844
0.345186
0.390538
0.41372
0.424975
0.430182
0.432492
0.433481
0.433892
0.434055
0.434111
0.434103
0.434021
0.433775
0.433113
0.431409
0.427184
0.417211
0.395073
0.34939
0.263172
0.129844
0.181167
0.183592
0.202694
0.212853
0.217567
0.219614
0.220455
0.220785
0.220909
0.220954
0.22097
0.220974
0.220973
0.220963
0.220933
0.220843
0.220584
0.219876
0.218034
0.213551
0.203467
0.183563
0.174206
0.225702
0.179377
0.177664
0.177006
0.176128
0.17535
0.174807
0.17448
0.174302
0.174213
0.174172
0.174157
0.174157
0.174174
0.174221
0.174326
0.17454
0.174938
0.175585
0.176459
0.177411
0.179626
0.225406
0.255993
0.180213
0.166502
0.159765
0.155707
0.153256
0.151842
0.15107
0.150672
0.150478
0.150389
0.150355
0.150356
0.150393
0.150496
0.150736
0.151255
0.152318
0.154387
0.158253
0.165452
0.180834
0.259417
0.277608
0.181032
0.159329
0.148544
0.142307
0.138654
0.136574
0.135439
0.134848
0.134556
0.13442
0.134367
0.134366
0.134421
0.134572
0.134919
0.135663
0.137189
0.140198
0.146004
0.157366
0.182261
0.286218
0.29315
0.181362
0.154033
0.140364
0.132523
0.127944
0.125322
0.123873
0.123106
0.122719
0.122536
0.122463
0.12246
0.12253
0.122721
0.123152
0.124064
0.12591
0.129533
0.136587
0.150822
0.183662
0.313438
0.304254
0.181326
0.149922
0.134124
0.125056
0.119737
0.116661
0.114938
0.114009
0.113532
0.113302
0.113207
0.1132
0.113281
0.113504
0.113999
0.115027
0.117075
0.121051
0.12879
0.144794
0.185035
0.359593
0.31211
0.181081
0.146682
0.129272
0.119241
0.113319
0.109859
0.107893
0.106817
0.106254
0.105977
0.10586
0.105848
0.105937
0.106183
0.106721
0.107818
0.109966
0.114072
0.121969
0.138377
0.183935
0.501902
0.138637
0.277456
0.362422
0.40408
0.422419
0.429835
0.432635
0.433632
0.433953
0.433993
0.433821
0.433273
0.431819
0.42817
0.419444
0.399723
0.357889
0.276732
0.161234
0.174375
0.187427
0.206582
0.215457
0.219022
0.220328
0.220772
0.220914
0.220956
0.220963
0.220946
0.220884
0.220693
0.220144
0.218646
0.214823
0.205801
0.187442
0.182664
0.224622
0.180145
0.177472
0.176225
0.175291
0.174704
0.174391
0.174246
0.174191
0.174187
0.17423
0.174343
0.174584
0.175042
0.175797
0.176812
0.177848
0.180034
0.225593
0.256854
0.179345
0.163775
0.156825
0.153364
0.151672
0.150889
0.150553
0.150431
0.150422
0.150513
0.150761
0.151309
0.152427
0.154551
0.158355
0.165058
0.179028
0.253848
0.281834
0.17926
0.154504
0.143796
0.138694
0.136258
0.135138
0.134656
0.134479
0.134469
0.134609
0.13498
0.13579
0.137431
0.140566
0.146312
0.156815
0.178627
0.273723
0.307593
0.179279
0.147098
0.133867
0.127712
0.124782
0.123422
0.122828
0.122609
0.122602
0.12279
0.123277
0.124322
0.126402
0.130336
0.137536
0.15077
0.178115
0.287973
0.352219
0.179118
0.140477
0.125775
0.119045
0.115823
0.114305
0.113631
0.113381
0.113382
0.113619
0.114217
0.115473
0.11793
0.122516
0.130846
0.146118
0.177488
0.298161
0.483592
0.17647
0.133838
0.118868
0.111995
0.108652
0.107049
0.106325
0.106057
0.10607
0.106356
0.107058
0.108506
0.11129
0.116418
0.125648
0.142479
0.176826
0.305377
0.320747
0.180544
0.142679
0.123334
0.112106
0.105407
0.101435
0.0991342
0.0978481
0.0971597
0.096813
0.096662
0.0966381
0.0967333
0.0970012
0.0975764
0.0987177
0.100886
0.1049
0.112297
0.126384
0.155872
0.229707
0.326219
0.179895
0.139497
0.118599
0.106335
0.0989181
0.0944448
0.091801
0.0902878
0.0894569
0.0890263
0.0888298
0.0887839
0.0888698
0.0891294
0.0896768
0.0907259
0.0926356
0.0959851
0.101705
0.111323
0.127343
0.153364
0.328703
0.179459
0.137709
0.115882
0.102944
0.0950337
0.0901994
0.0872978
0.0856079
0.0846619
0.0841604
0.0839218
0.0838499
0.083913
0.0841365
0.0846055
0.0854781
0.0870033
0.0895407
0.09357
0.099654
0.108226
0.118822
0.329796
0.179207
0.13675
0.114377
0.101011
0.0927676
0.0876798
0.0845914
0.0827696
0.081735
0.0811766
0.0809016
0.0808024
0.0808353
0.0810077
0.0813753
0.082044
0.083172
0.0849625
0.0876335
0.0913349
0.095961
0.100798
0.330264
0.179074
0.13626
0.113578
0.0999496
0.0914912
0.0862332
0.0830155
0.0811001
0.080001
0.0793995
0.0790947
0.0789703
0.0789713
0.0790894
0.0793545
0.0798311
0.0806121
0.081804
0.0834942
0.0856883
0.0882104
0.0905905
0.33046
0.179009
0.136021
0.113172
0.0993907
0.0908004
0.0854341
0.0821318
0.0801536
0.0790101
0.0783779
0.0780505
0.0779047
0.0778769
0.0779457
0.0781216
0.078439
0.0789482
0.0797013
0.0807278
0.0819971
0.0833746
0.0845943
0.33054
0.178979
0.135909
0.112974
0.0991084
0.0904417
0.0850103
0.0816558
0.0796379
0.0784657
0.0778129
0.0774692
0.0773068
0.0772556
0.0772849
0.0773911
0.0775888
0.0779024
0.0783555
0.0789545
0.0796694
0.0804149
0.0810491
0.330572
0.178966
0.135859
0.112881
0.0989714
0.0902628
0.0847945
0.0814095
0.079368
0.0781782
0.0775122
0.0771576
0.0769833
0.0769148
0.0769151
0.0769715
0.0770863
0.0772691
0.077529
0.077865
0.0782556
0.078652
0.0789806
0.330585
0.17896
0.135837
0.112839
0.0989073
0.0901768
0.0846886
0.0812868
0.079232
0.0780319
0.0773581
0.0769964
0.0768142
0.0767339
0.0767146
0.0767381
0.0767994
0.0769001
0.0770425
0.0772237
0.0774304
0.0776361
0.077804
0.33059
0.178958
0.135828
0.112821
0.0988783
0.0901369
0.0846386
0.0812279
0.0791658
0.0779601
0.0772817
0.0769159
0.0767286
0.0766408
0.0766091
0.0766122
0.076641
0.0766931
0.0767676
0.0768617
0.0769677
0.0770719
0.0771561
0.330592
0.178957
0.135824
0.112813
0.0988656
0.090119
0.0846156
0.0812005
0.0791347
0.077926
0.0772451
0.0768768
0.0766865
0.0765942
0.0765551
0.0765463
0.0765565
0.0765813
0.0766185
0.0766656
0.0767184
0.0767701
0.0768118
0.330593
0.178957
0.135822
0.11281
0.0988601
0.0901112
0.0846054
0.0811881
0.0791205
0.0779102
0.077228
0.0768584
0.0766663
0.0765714
0.0765283
0.0765127
0.0765129
0.076523
0.0765405
0.0765633
0.0765891
0.0766145
0.0766353
0.330593
0.178957
0.135822
0.112808
0.0988578
0.0901078
0.084601
0.0811827
0.0791141
0.0779031
0.0772202
0.0768499
0.0766569
0.0765606
0.0765152
0.0764961
0.076491
0.0764936
0.0765012
0.0765119
0.0765245
0.0765371
0.0765478
0.330593
0.178956
0.135821
0.112808
0.0988569
0.0901064
0.0845991
0.0811803
0.0791114
0.0779
0.0772168
0.0768461
0.0766526
0.0765555
0.076509
0.0764881
0.0764803
0.0764792
0.0764819
0.0764869
0.0764931
0.0764998
0.0765059
0.330593
0.178956
0.135821
0.112807
0.0988565
0.0901058
0.0845983
0.0811793
0.0791102
0.0778987
0.0772153
0.0768444
0.0766507
0.0765532
0.0765061
0.0764843
0.0764752
0.0764724
0.0764728
0.0764751
0.0764784
0.0764824
0.0764863
0.330593
0.178956
0.135821
0.112807
0.0988564
0.0901056
0.084598
0.0811789
0.0791097
0.0778981
0.0772146
0.0768436
0.0766498
0.0765522
0.0765047
0.0764826
0.0764729
0.0764692
0.0764686
0.0764696
0.0764717
0.0764745
0.0764775
0.330593
0.178956
0.135821
0.112807
0.0988563
0.0901055
0.0845979
0.0811788
0.0791095
0.0778979
0.0772143
0.0768433
0.0766494
0.0765517
0.0765041
0.0764818
0.0764718
0.0764678
0.0764667
0.0764672
0.0764687
0.076471
0.0764736
0.330593
0.178956
0.135821
0.112807
0.0988563
0.0901055
0.0845978
0.0811787
0.0791094
0.0778978
0.0772142
0.0768432
0.0766493
0.0765515
0.0765039
0.0764815
0.0764714
0.0764672
0.0764659
0.0764661
0.0764674
0.0764694
0.0764719
0.330593
0.178956
0.135821
0.112807
0.0988563
0.0901055
0.0845978
0.0811787
0.0791094
0.0778977
0.0772142
0.0768431
0.0766492
0.0765514
0.0765038
0.0764813
0.0764711
0.0764669
0.0764655
0.0764657
0.0764669
0.0764688
0.0764712
0.330593
0.178956
0.135821
0.112807
0.0988563
0.0901055
0.0845978
0.0811787
0.0791094
0.0778977
0.0772142
0.0768431
0.0766492
0.0765514
0.0765037
0.0764812
0.0764711
0.0764668
0.0764653
0.0764655
0.0764666
0.0764685
0.0764709
0.330593
0.178956
0.135821
0.112807
0.0988563
0.0901055
0.0845978
0.0811787
0.0791094
0.0778977
0.0772142
0.0768431
0.0766492
0.0765514
0.0765037
0.0764812
0.076471
0.0764667
0.0764653
0.0764654
0.0764665
0.0764684
0.0764708
0.330593
0.178956
0.135821
0.112807
0.0988563
0.0901055
0.0845978
0.0811787
0.0791094
0.0778977
0.0772142
0.0768431
0.0766492
0.0765514
0.0765037
0.0764812
0.076471
0.0764667
0.0764653
0.0764654
0.0764665
0.0764684
0.0764707
0.330593
0.178956
0.135821
0.112807
0.0988563
0.0901055
0.0845978
0.0811787
0.0791094
0.0778977
0.0772142
0.0768431
0.0766492
0.0765514
0.0765037
0.0764812
0.076471
0.0764667
0.0764652
0.0764654
0.0764665
0.0764683
0.0764707
0.330593
0.178956
0.135821
0.112807
0.0988563
0.0901055
0.0845978
0.0811787
0.0791094
0.0778977
0.0772142
0.0768431
0.0766492
0.0765514
0.0765037
0.0764812
0.076471
0.0764667
0.0764652
0.0764654
0.0764665
0.0764683
0.0764707
0.330593
0.178956
0.135821
0.112807
0.0988563
0.0901055
0.0845978
0.0811787
0.0791094
0.0778977
0.0772142
0.0768431
0.0766492
0.0765514
0.0765037
0.0764812
0.076471
0.0764667
0.0764652
0.0764654
0.0764665
0.0764683
0.0764707
0.330593
0.178956
0.135821
0.112807
0.0988563
0.0901055
0.0845978
0.0811787
0.0791094
0.0778977
0.0772141
0.0768431
0.0766492
0.0765514
0.0765037
0.0764812
0.076471
0.0764667
0.0764652
0.0764654
0.0764665
0.0764683
0.0764707
0.330593
0.178956
0.135821
0.112807
0.0988563
0.0901055
0.0845978
0.0811787
0.0791094
0.0778977
0.0772141
0.0768431
0.0766492
0.0765514
0.0765037
0.0764812
0.076471
0.0764667
0.0764652
0.0764654
0.0764665
0.0764683
0.0764707
0.330593
0.178956
0.135821
0.112807
0.0988563
0.0901055
0.0845978
0.0811787
0.0791094
0.0778977
0.0772141
0.0768431
0.0766492
0.0765514
0.0765037
0.0764812
0.076471
0.0764667
0.0764652
0.0764654
0.0764665
0.0764683
0.0764707
0.330593
0.178956
0.135821
0.112807
0.0988563
0.0901055
0.0845978
0.0811787
0.0791094
0.0778977
0.0772141
0.0768431
0.0766492
0.0765514
0.0765037
0.0764812
0.076471
0.0764667
0.0764652
0.0764654
0.0764665
0.0764683
0.0764707
0.330593
0.178956
0.135821
0.112807
0.0988563
0.0901055
0.0845978
0.0811787
0.0791094
0.0778977
0.0772141
0.0768431
0.0766492
0.0765514
0.0765037
0.0764812
0.076471
0.0764667
0.0764652
0.0764653
0.0764665
0.0764683
0.0764707
0.330593
0.178956
0.135821
0.112807
0.0988563
0.0901055
0.0845978
0.0811787
0.0791094
0.0778977
0.0772141
0.0768431
0.0766492
0.0765514
0.0765037
0.0764812
0.076471
0.0764667
0.0764652
0.0764653
0.0764665
0.0764683
0.0764707
0.330593
0.178956
0.135821
0.112807
0.0988563
0.0901055
0.0845978
0.0811787
0.0791094
0.0778977
0.0772141
0.0768431
0.0766492
0.0765514
0.0765037
0.0764812
0.076471
0.0764667
0.0764652
0.0764653
0.0764665
0.0764683
0.0764707
0.330593
0.178956
0.135821
0.112807
0.0988563
0.0901055
0.0845978
0.0811787
0.0791094
0.0778977
0.0772141
0.0768431
0.0766492
0.0765514
0.0765037
0.0764812
0.076471
0.0764667
0.0764652
0.0764653
0.0764665
0.0764683
0.0764707
0.330593
0.178956
0.135821
0.112807
0.0988563
0.0901055
0.0845978
0.0811787
0.0791094
0.0778977
0.0772141
0.0768431
0.0766492
0.0765514
0.0765037
0.0764812
0.076471
0.0764667
0.0764652
0.0764653
0.0764665
0.0764683
0.0764707
0.330593
0.178956
0.135821
0.112807
0.0988563
0.0901055
0.0845978
0.0811787
0.0791094
0.0778977
0.0772141
0.0768431
0.0766492
0.0765514
0.0765037
0.0764812
0.076471
0.0764667
0.0764652
0.0764653
0.0764664
0.0764683
0.0764706
0.330593
0.178956
0.135821
0.112807
0.0988563
0.0901055
0.0845978
0.0811787
0.0791094
0.0778977
0.0772141
0.0768431
0.0766491
0.0765514
0.0765037
0.0764812
0.076471
0.0764667
0.0764652
0.0764653
0.0764664
0.0764683
0.0764706
0.330593
0.178956
0.135821
0.112807
0.0988563
0.0901055
0.0845978
0.0811787
0.0791094
0.0778977
0.0772141
0.0768431
0.0766491
0.0765514
0.0765037
0.0764812
0.076471
0.0764667
0.0764652
0.0764653
0.0764664
0.0764682
0.0764705
0.330593
0.178956
0.135821
0.112807
0.0988563
0.0901055
0.0845978
0.0811787
0.0791094
0.0778977
0.0772141
0.0768431
0.0766491
0.0765513
0.0765037
0.0764812
0.076471
0.0764666
0.0764652
0.0764653
0.0764663
0.0764682
0.0764704
0.330593
0.178956
0.135821
0.112807
0.0988563
0.0901055
0.0845978
0.0811787
0.0791094
0.0778977
0.0772141
0.0768431
0.0766491
0.0765513
0.0765037
0.0764812
0.076471
0.0764666
0.0764652
0.0764652
0.0764663
0.0764681
0.0764703
0.330593
0.178956
0.135821
0.112807
0.0988563
0.0901055
0.0845978
0.0811787
0.0791093
0.0778977
0.0772141
0.0768431
0.0766491
0.0765513
0.0765037
0.0764812
0.0764709
0.0764666
0.0764651
0.0764652
0.0764662
0.0764679
0.0764701
0.330593
0.178956
0.135821
0.112807
0.0988563
0.0901055
0.0845978
0.0811786
0.0791093
0.0778977
0.0772141
0.0768431
0.0766491
0.0765513
0.0765036
0.0764811
0.0764709
0.0764666
0.0764651
0.0764651
0.0764661
0.0764678
0.0764699
0.330593
0.178956
0.135821
0.112807
0.0988563
0.0901055
0.0845978
0.0811786
0.0791093
0.0778977
0.0772141
0.0768431
0.0766491
0.0765513
0.0765036
0.0764811
0.0764709
0.0764666
0.0764651
0.0764651
0.0764661
0.0764677
0.0764698
0.528603
0.410754
0.409987
0.523866
0.181916
0.18402
0.183976
0.181849
0.125535
0.127516
0.12752
0.125555
0.103236
0.104062
0.104066
0.103251
0.0916678
0.0920346
0.0920377
0.0916773
0.0851163
0.0852925
0.0852945
0.0851222
0.0813123
0.0814006
0.0814018
0.0813159
0.0791146
0.0791595
0.0791602
0.0791168
0.077872
0.0778947
0.0778952
0.0778732
0.0771903
0.0772018
0.0772021
0.0771911
0.076829
0.0768349
0.0768351
0.0768296
0.0766441
0.0766473
0.0766474
0.0766446
0.0765527
0.0765546
0.0765547
0.0765531
0.0765089
0.0765102
0.0765103
0.0765093
0.0764886
0.0764896
0.0764897
0.076489
0.0764794
0.0764802
0.0764803
0.0764797
0.0764753
0.0764761
0.0764762
0.0764757
0.0764736
0.0764743
0.0764744
0.0764739
0.0764728
0.0764736
0.0764737
0.0764732
0.0764725
0.0764733
0.0764734
0.0764729
0.0764724
0.0764732
0.0764733
0.0764727
0.0764724
0.0764731
0.0764732
0.0764727
0.0764723
0.0764731
0.0764732
0.0764727
0.0764723
0.0764731
0.0764732
0.0764727
0.0764723
0.0764731
0.0764732
0.0764727
0.0764723
0.0764731
0.0764732
0.0764727
0.0764723
0.0764731
0.0764732
0.0764727
0.0764723
0.0764731
0.0764732
0.0764727
0.0764723
0.0764731
0.0764732
0.0764727
0.0764723
0.0764731
0.0764732
0.0764727
0.0764723
0.0764731
0.0764732
0.0764727
0.0764723
0.0764731
0.0764732
0.0764727
0.0764723
0.0764731
0.0764732
0.0764727
0.0764723
0.0764731
0.0764731
0.0764726
0.0764723
0.076473
0.0764731
0.0764726
0.0764722
0.076473
0.0764731
0.0764726
0.0764722
0.0764729
0.076473
0.0764725
0.076472
0.0764728
0.0764729
0.0764724
0.0764719
0.0764726
0.0764727
0.0764722
0.0764716
0.0764723
0.0764724
0.0764719
0.0764714
0.076472
0.0764721
0.0764716
0.0764711
0.0764717
0.0764718
0.0764713
0.224811
0.150993
0.122434
0.10937
0.102863
0.0995593
0.0979212
0.0971628
0.0968848
0.0969227
0.0972838
0.098138
0.0998542
0.103083
0.10892
0.119285
0.138008
0.17583
0.313316
0.151937
0.124729
0.108631
0.0994398
0.0942834
0.0914685
0.0900013
0.089302
0.0890576
0.0891456
0.0896027
0.0906295
0.0926323
0.0963085
0.10282
0.114193
0.134472
0.174876
0.318354
0.118393
0.106886
0.0979727
0.0919805
0.0882538
0.0860752
0.0848861
0.0843092
0.08413
0.0842777
0.0848214
0.0859889
0.0882132
0.0922203
0.0992062
0.11125
0.132482
0.174292
0.320648
0.100649
0.0952698
0.0903282
0.0865867
0.0840582
0.0824915
0.081604
0.0811743
0.0810745
0.0812833
0.0819011
0.0831785
0.0855677
0.089812
0.0971249
0.109606
0.13141
0.173969
0.321661
0.0905308
0.0878473
0.0851006
0.0828369
0.0812062
0.0801482
0.0795341
0.0792472
0.0792262
0.0794912
0.0801686
0.0815275
0.0840337
0.0884406
0.0959691
0.108723
0.130859
0.173803
0.322096
0.084568
0.0831818
0.0816616
0.080332
0.0793278
0.0786542
0.0782604
0.0780946
0.0781422
0.0784538
0.0791763
0.0805924
0.0831771
0.0876897
0.0953529
0.108269
0.130588
0.173723
0.322278
0.0810369
0.0803128
0.0794828
0.0787262
0.0781351
0.0777307
0.0774992
0.0774263
0.0775274
0.0778746
0.0786291
0.0800831
0.0827176
0.0872949
0.0950378
0.108045
0.13046
0.173686
0.322353
0.0789748
0.0785988
0.0781551
0.0777392
0.0774071
0.0771793
0.0770584
0.077051
0.0771905
0.0775627
0.0783385
0.0798163
0.0824807
0.0870955
0.0948829
0.107939
0.130402
0.17367
0.322384
0.0778014
0.0776091
0.0773783
0.0771579
0.0769804
0.0768617
0.0768113
0.0768467
0.0770117
0.0774005
0.0781898
0.0796817
0.0823631
0.0869985
0.0948095
0.107891
0.130377
0.173663
0.322396
0.0771551
0.0770587
0.0769419
0.0768297
0.0767401
0.0766853
0.0766771
0.0767388
0.0769197
0.0773188
0.0781161
0.079616
0.0823068
0.086953
0.0947759
0.107869
0.130366
0.17366
0.322401
0.0768115
0.0767639
0.0767065
0.0766517
0.07661
0.0765906
0.0766065
0.0766834
0.0768737
0.0772789
0.0780807
0.079585
0.0822806
0.0869322
0.094761
0.10786
0.130361
0.173659
0.322403
0.0766353
0.0766119
0.0765842
0.0765588
0.076542
0.0765415
0.0765704
0.0766557
0.0768513
0.0772598
0.0780642
0.0795708
0.0822687
0.086923
0.0947546
0.107856
0.130359
0.173659
0.322403
0.076548
0.0765362
0.076523
0.076512
0.0765077
0.0765168
0.0765525
0.0766422
0.0768406
0.0772509
0.0780566
0.0795644
0.0822635
0.086919
0.0947518
0.107854
0.130359
0.173658
0.322404
0.0765062
0.0764997
0.0764933
0.0764892
0.0764909
0.0765047
0.0765438
0.0766357
0.0768356
0.0772469
0.0780532
0.0795616
0.0822613
0.0869174
0.0947507
0.107854
0.130358
0.173658
0.322404
0.0764867
0.0764826
0.0764793
0.0764784
0.076483
0.076499
0.0765397
0.0766327
0.0768333
0.077245
0.0780518
0.0795604
0.0822603
0.0869167
0.0947502
0.107854
0.130358
0.173658
0.322404
0.0764778
0.0764749
0.0764729
0.0764735
0.0764793
0.0764963
0.0765378
0.0766314
0.0768322
0.0772442
0.0780511
0.0795598
0.0822599
0.0869164
0.0947501
0.107853
0.130358
0.173658
0.322404
0.0764739
0.0764714
0.0764701
0.0764712
0.0764776
0.0764951
0.0765369
0.0766307
0.0768318
0.0772439
0.0780508
0.0795596
0.0822598
0.0869163
0.09475
0.107853
0.130358
0.173658
0.322404
0.0764722
0.0764699
0.0764688
0.0764703
0.0764769
0.0764946
0.0765365
0.0766305
0.0768316
0.0772437
0.0780507
0.0795595
0.0822597
0.0869162
0.09475
0.107853
0.130358
0.173658
0.322404
0.0764715
0.0764693
0.0764683
0.0764698
0.0764766
0.0764944
0.0765364
0.0766304
0.0768315
0.0772437
0.0780507
0.0795595
0.0822597
0.0869162
0.09475
0.107853
0.130358
0.173658
0.322404
0.0764712
0.076469
0.0764681
0.0764697
0.0764764
0.0764943
0.0765363
0.0766303
0.0768315
0.0772436
0.0780507
0.0795595
0.0822597
0.0869162
0.0947499
0.107853
0.130358
0.173658
0.322404
0.0764711
0.0764689
0.076468
0.0764696
0.0764764
0.0764942
0.0765363
0.0766303
0.0768315
0.0772436
0.0780506
0.0795595
0.0822597
0.0869162
0.0947499
0.107853
0.130358
0.173658
0.322404
0.0764711
0.0764689
0.0764679
0.0764696
0.0764763
0.0764942
0.0765363
0.0766303
0.0768314
0.0772436
0.0780506
0.0795595
0.0822597
0.0869162
0.0947499
0.107853
0.130358
0.173658
0.322404
0.076471
0.0764688
0.0764679
0.0764695
0.0764763
0.0764942
0.0765363
0.0766303
0.0768314
0.0772436
0.0780506
0.0795595
0.0822597
0.0869162
0.0947499
0.107853
0.130358
0.173658
0.322404
0.076471
0.0764688
0.0764679
0.0764695
0.0764763
0.0764942
0.0765363
0.0766303
0.0768314
0.0772436
0.0780506
0.0795595
0.0822597
0.0869162
0.0947499
0.107853
0.130358
0.173658
0.322404
0.076471
0.0764688
0.0764679
0.0764695
0.0764763
0.0764942
0.0765363
0.0766303
0.0768314
0.0772436
0.0780506
0.0795595
0.0822597
0.0869162
0.0947499
0.107853
0.130358
0.173658
0.322404
0.076471
0.0764688
0.0764679
0.0764695
0.0764763
0.0764942
0.0765363
0.0766303
0.0768314
0.0772436
0.0780506
0.0795595
0.0822597
0.0869162
0.0947499
0.107853
0.130358
0.173658
0.322404
0.076471
0.0764688
0.0764679
0.0764695
0.0764763
0.0764942
0.0765363
0.0766303
0.0768314
0.0772436
0.0780506
0.0795595
0.0822597
0.0869162
0.0947499
0.107853
0.130358
0.173658
0.322404
0.076471
0.0764688
0.0764679
0.0764695
0.0764763
0.0764942
0.0765363
0.0766303
0.0768314
0.0772436
0.0780506
0.0795595
0.0822597
0.0869162
0.0947499
0.107853
0.130358
0.173658
0.322404
0.076471
0.0764688
0.0764679
0.0764695
0.0764763
0.0764942
0.0765363
0.0766303
0.0768314
0.0772436
0.0780506
0.0795595
0.0822597
0.0869162
0.0947499
0.107853
0.130358
0.173658
0.322404
0.076471
0.0764688
0.0764679
0.0764695
0.0764763
0.0764942
0.0765363
0.0766303
0.0768314
0.0772436
0.0780506
0.0795595
0.0822597
0.0869162
0.0947499
0.107853
0.130358
0.173658
0.322404
0.076471
0.0764688
0.0764679
0.0764695
0.0764763
0.0764942
0.0765363
0.0766303
0.0768314
0.0772436
0.0780506
0.0795595
0.0822597
0.0869162
0.0947499
0.107853
0.130358
0.173658
0.322404
0.076471
0.0764688
0.0764679
0.0764695
0.0764763
0.0764942
0.0765363
0.0766303
0.0768314
0.0772436
0.0780506
0.0795595
0.0822597
0.0869162
0.0947499
0.107853
0.130358
0.173658
0.322404
0.076471
0.0764688
0.0764679
0.0764695
0.0764763
0.0764942
0.0765363
0.0766303
0.0768314
0.0772436
0.0780506
0.0795595
0.0822596
0.0869162
0.0947499
0.107853
0.130358
0.173658
0.322404
0.076471
0.0764688
0.0764679
0.0764695
0.0764763
0.0764942
0.0765363
0.0766303
0.0768314
0.0772436
0.0780506
0.0795595
0.0822596
0.0869162
0.0947499
0.107853
0.130358
0.173658
0.322404
0.076471
0.0764688
0.0764679
0.0764695
0.0764763
0.0764942
0.0765363
0.0766303
0.0768314
0.0772436
0.0780506
0.0795595
0.0822596
0.0869162
0.0947499
0.107853
0.130358
0.173658
0.322404
0.0764709
0.0764688
0.0764679
0.0764695
0.0764763
0.0764942
0.0765363
0.0766303
0.0768314
0.0772436
0.0780506
0.0795595
0.0822596
0.0869162
0.0947499
0.107853
0.130358
0.173658
0.322404
0.0764709
0.0764687
0.0764678
0.0764695
0.0764763
0.0764942
0.0765362
0.0766303
0.0768314
0.0772436
0.0780506
0.0795595
0.0822596
0.0869162
0.0947499
0.107853
0.130358
0.173658
0.322404
0.0764708
0.0764686
0.0764678
0.0764694
0.0764763
0.0764941
0.0765362
0.0766303
0.0768314
0.0772436
0.0780506
0.0795595
0.0822596
0.0869162
0.0947499
0.107853
0.130358
0.173658
0.322404
0.0764706
0.0764685
0.0764677
0.0764694
0.0764762
0.0764941
0.0765362
0.0766302
0.0768314
0.0772436
0.0780506
0.0795595
0.0822596
0.0869162
0.0947499
0.107853
0.130358
0.173658
0.322404
0.0764704
0.0764684
0.0764676
0.0764693
0.0764762
0.0764941
0.0765362
0.0766302
0.0768314
0.0772436
0.0780506
0.0795595
0.0822596
0.0869162
0.0947499
0.107853
0.130358
0.173658
0.322404
0.0764701
0.0764682
0.0764675
0.0764693
0.0764762
0.0764941
0.0765362
0.0766302
0.0768314
0.0772436
0.0780506
0.0795595
0.0822596
0.0869162
0.0947499
0.107853
0.130358
0.173658
0.322404
0.0764699
0.0764681
0.0764674
0.0764693
0.0764762
0.0764941
0.0765362
0.0766302
0.0768314
0.0772436
0.0780506
0.0795595
0.0822596
0.0869162
0.0947499
0.107853
0.130358
0.173658
0.322404
)
;

boundaryField
{
    leftWall
    {
        type            epsilonWallFunction;
        blending        stepwise;
        value           nonuniform List<scalar> 
50
(
0.15063
0.181167
0.225702
0.255993
0.277608
0.29315
0.304254
0.31211
0.320747
0.326219
0.328703
0.329796
0.330264
0.33046
0.33054
0.330572
0.330585
0.33059
0.330592
0.330593
0.330593
0.330593
0.330593
0.330593
0.330593
0.330593
0.330593
0.330593
0.330593
0.330593
0.330593
0.330593
0.330593
0.330593
0.330593
0.330593
0.330593
0.330593
0.330593
0.330593
0.330593
0.330593
0.330593
0.330593
0.330593
0.330593
0.330593
0.330593
0.330593
0.330593
)
;
    }
    rightWall
    {
        type            epsilonWallFunction;
        blending        stepwise;
        value           nonuniform List<scalar> 
50
(
0.161234
0.182664
0.225593
0.253848
0.273723
0.287973
0.298161
0.305377
0.313316
0.318354
0.320648
0.321661
0.322096
0.322278
0.322353
0.322384
0.322396
0.322401
0.322403
0.322403
0.322404
0.322404
0.322404
0.322404
0.322404
0.322404
0.322404
0.322404
0.322404
0.322404
0.322404
0.322404
0.322404
0.322404
0.322404
0.322404
0.322404
0.322404
0.322404
0.322404
0.322404
0.322404
0.322404
0.322404
0.322404
0.322404
0.322404
0.322404
0.322404
0.322404
)
;
    }
    lowerWall
    {
        type            epsilonWallFunction;
        blending        stepwise;
        value           nonuniform List<scalar> 
62
(
0.15063
0.262844
0.345186
0.390538
0.41372
0.424975
0.430182
0.432492
0.433481
0.433892
0.434055
0.434111
0.434103
0.434021
0.433775
0.433113
0.431409
0.427184
0.417211
0.395073
0.34939
0.263172
0.129844
0.129844
0.174206
0.225406
0.259417
0.286218
0.313438
0.359593
0.501902
0.528603
0.410754
0.409987
0.523866
0.138637
0.174375
0.224622
0.256854
0.281834
0.307593
0.352219
0.483592
0.138637
0.277456
0.362422
0.40408
0.422419
0.429835
0.432635
0.433632
0.433953
0.433993
0.433821
0.433273
0.431819
0.42817
0.419444
0.399723
0.357889
0.276732
0.161234
)
;
    }
    atmosphere
    {
        type            inletOutlet;
        inletValue      uniform 0.1;
        value           nonuniform List<scalar> 
46
(
0.330593
0.178956
0.135821
0.112807
0.0988563
0.0901055
0.0845978
0.0811786
0.0791093
0.0778977
0.0772141
0.0768431
0.0766491
0.0765513
0.0765036
0.0764811
0.0764709
0.0764666
0.0764651
0.0764651
0.0764661
0.0764677
0.0764698
0.0764711
0.0764717
0.0764718
0.0764713
0.0764699
0.0764681
0.0764674
0.0764693
0.0764762
0.0764941
0.0765362
0.0766302
0.0768314
0.0772436
0.0780506
0.0795595
0.0822596
0.0869162
0.0947499
0.107853
0.130358
0.173658
0.322404
)
;
    }
    defaultFaces
    {
        type            empty;
    }
}


// ************************************************************************* //
