/*--------------------------------*- C++ -*----------------------------------*\
| =========                 |                                                 |
| \\      /  F ield         | OpenFOAM: The Open Source CFD Toolbox           |
|  \\    /   O peration     | Version:  2406                                  |
|   \\  /    A nd           | Website:  www.openfoam.com                      |
|    \\/     M anipulation  |                                                 |
\*---------------------------------------------------------------------------*/
FoamFile
{
    version     2.0;
    format      ascii;
    arch        "LSB;label=32;scalar=64";
    class       volScalarField;
    location    "0.15";
    object      k;
}
// * * * * * * * * * * * * * * * * * * * * * * * * * * * * * * * * * * * * * //

dimensions      [0 2 -2 0 0 0 0];

internalField   nonuniform List<scalar> 
2268
(
0.1
0.1
0.1
0.1
0.1
0.1
0.1
0.1
0.1
0.1
0.1
0.1
0.1
0.0149194
0.0163372
0.0185064
0.0195728
0.0199596
0.0198257
0.0190919
0.0174276
0.014162
0.00834894
0.1
0.1
0.1
0.1
0.1
0.1
0.1
0.1
0.1
0.1
0.1
0.1
0.1
0.0314255
0.0370305
0.0411629
0.0432829
0.0440783
0.0438167
0.0423365
0.0389674
0.0321719
0.0172154
0.1
0.1
0.1
0.1
0.1
0.1
0.1
0.1
0.1
0.1
0.1
0.1
0.1
0.0397672
0.0467779
0.0515173
0.0540027
0.0549661
0.0546746
0.0529337
0.0489503
0.0407322
0.0207312
0.1
0.1
0.1
0.1
0.1
0.1
0.1
0.1
0.1
0.1
0.1
0.1
0.1
0.0451511
0.0530227
0.0580121
0.0606458
0.0616954
0.0614165
0.0595985
0.0553778
0.0463936
0.0230154
0.1
0.1
0.1
0.1
0.1
0.1
0.1
0.1
0.1
0.1
0.1
0.1
0.1
0.048865
0.0573923
0.0625378
0.065246
0.0663529
0.0661159
0.0643241
0.0600763
0.0507011
0.0248078
0.1
0.1
0.1
0.1
0.1
0.1
0.1
0.1
0.1
0.1
0.1
0.1
0.1
0.0515251
0.0605607
0.0658361
0.0685968
0.0697544
0.0695844
0.0678954
0.063796
0.05442
0.0266131
0.1
0.1
0.1
0.1
0.1
0.1
0.1
0.1
0.1
0.1
0.1
0.1
0.1
0.0534828
0.0629053
0.0683018
0.0711136
0.0723259
0.072245
0.0707207
0.0669425
0.0581076
0.029524
0.1
0.1
0.1
0.1
0.1
0.1
0.1
0.1
0.1
0.1
0.1
0.1
0.1
0.0549593
0.0646661
0.0701771
0.0730461
0.0743212
0.0743474
0.0730343
0.0697304
0.062174
0.0375142
0.00875407
0.0147274
0.0179406
0.0195116
0.0202262
0.020526
0.0206429
0.0206855
0.0206995
0.020701
0.0206928
0.0206678
0.0206041
0.0204497
0.0200941
0.0193211
0.0177371
0.0146568
0.0121863
0.0185142
0.0333972
0.0400578
0.0432629
0.0447554
0.0454121
0.0456838
0.0457893
0.0458254
0.0458289
0.0458061
0.0457396
0.0455795
0.0452152
0.0444241
0.0427863
0.0395212
0.0330561
0.0190829
0.0222077
0.0422414
0.0503044
0.0541341
0.0559547
0.0567887
0.0571516
0.0572999
0.0573525
0.0573568
0.0573204
0.0572192
0.0569873
0.0564865
0.0554529
0.0534033
0.0494297
0.0415434
0.0222345
0.0245402
0.0480815
0.0568943
0.0609889
0.0629589
0.0638903
0.0643128
0.064493
0.0645587
0.0645626
0.0645124
0.0643788
0.0640849
0.0634775
0.0622757
0.0599726
0.0555951
0.046861
0.0242684
0.0263537
0.0525165
0.0617002
0.0658572
0.0678722
0.0688505
0.0693102
0.0695134
0.069589
0.0695913
0.0695269
0.0693622
0.0690127
0.068317
0.0669867
0.0645044
0.0598497
0.0505071
0.0256932
0.0282169
0.0563107
0.065477
0.069532
0.0715155
0.0725025
0.0729811
0.0731991
0.0732812
0.0732805
0.0732018
0.0730077
0.0726085
0.0718379
0.070405
0.0677861
0.0629206
0.0531053
0.0267215
0.0312857
0.059987
0.0686237
0.0724239
0.0743161
0.0752821
0.0757643
0.0759897
0.076075
0.07607
0.0759771
0.0757555
0.0753117
0.0744771
0.0729598
0.0702306
0.0651938
0.0549975
0.0274686
0.0393447
0.063892
0.0713526
0.0747702
0.076527
0.0774497
0.077923
0.0781493
0.0782346
0.0782241
0.0781174
0.0778703
0.0773869
0.0764968
0.0749078
0.072085
0.0669031
0.0563954
0.0280143
0.1
0.1
0.1
0.1
0.1
0.1
0.1
0.1
0.1
0.1
0.1
0.1
0.1
0.0567492
0.0667576
0.0724341
0.0754032
0.0767891
0.0770005
0.0760551
0.0736023
0.0686665
0.0588402
0.1
0.1
0.1
0.1
0.1
0.1
0.1
0.1
0.1
0.1
0.1
0.1
0.1
0.0582838
0.0683975
0.0742481
0.0773682
0.0789279
0.079409
0.0789563
0.0775081
0.0748531
0.0707974
0.1
0.1
0.1
0.1
0.1
0.1
0.1
0.1
0.1
0.1
0.1
0.1
0.1
0.0593909
0.0694081
0.0753652
0.0786221
0.0803518
0.0810823
0.0810424
0.0803255
0.0790015
0.0772859
0.1
0.1
0.1
0.1
0.1
0.1
0.1
0.1
0.1
0.1
0.1
0.1
0.1
0.0602754
0.0700795
0.0760793
0.0794416
0.0813166
0.0822539
0.0825269
0.0822955
0.0817047
0.0809723
0.1
0.1
0.1
0.1
0.1
0.1
0.1
0.1
0.1
0.1
0.1
0.1
0.1
0.0610258
0.0705601
0.0765529
0.0799852
0.0819717
0.0830666
0.0835617
0.0836395
0.0834516
0.0831667
0.1
0.1
0.1
0.1
0.1
0.1
0.1
0.1
0.1
0.1
0.1
0.1
0.1
0.0616823
0.0709273
0.0768791
0.0803492
0.0824129
0.0836192
0.0842647
0.0845351
0.0845728
0.0845085
0.1
0.1
0.1
0.1
0.1
0.1
0.1
0.1
0.1
0.1
0.1
0.1
0.1
0.0622643
0.0712224
0.0771126
0.080595
0.0827062
0.0839858
0.0847284
0.0851167
0.0852825
0.0853334
0.1
0.1
0.1
0.1
0.1
0.1
0.1
0.1
0.1
0.1
0.1
0.1
0.1
0.0627818
0.0714681
0.0772863
0.0807631
0.0828992
0.0842231
0.0850251
0.0854835
0.085722
0.0858348
0.1
0.1
0.1
0.1
0.1
0.1
0.1
0.1
0.1
0.1
0.1
0.1
0.1
0.063241
0.0716773
0.0774206
0.0808809
0.0830259
0.0843736
0.0852096
0.085708
0.0859868
0.0861329
0.1
0.1
0.1
0.1
0.1
0.1
0.1
0.1
0.1
0.1
0.1
0.1
0.1
0.0636462
0.0718578
0.0775283
0.0809663
0.0831103
0.0844685
0.085322
0.0858417
0.086142
0.0863054
0.1
0.1
0.1
0.1
0.1
0.1
0.1
0.1
0.1
0.1
0.1
0.1
0.1
0.0640011
0.0720148
0.077618
0.0810318
0.0831691
0.0845295
0.0853905
0.0859203
0.086231
0.0864028
0.1
0.1
0.1
0.1
0.1
0.1
0.1
0.1
0.1
0.1
0.1
0.1
0.1
0.0643095
0.0721527
0.0776964
0.0810865
0.0832142
0.084572
0.0854341
0.0859672
0.0862819
0.086457
0.1
0.1
0.1
0.1
0.1
0.1
0.1
0.1
0.1
0.1
0.1
0.1
0.1
0.0645766
0.0722778
0.0777711
0.0811392
0.0832554
0.0846068
0.0854658
0.0859978
0.0863124
0.0864877
0.1
0.1
0.1
0.1
0.1
0.1
0.1
0.1
0.1
0.1
0.1
0.1
0.1
0.0648115
0.0724023
0.0778545
0.081201
0.0833027
0.0846436
0.085495
0.086022
0.0863334
0.0865067
0.1
0.1
0.1
0.1
0.1
0.1
0.1
0.1
0.1
0.1
0.1
0.1
0.1
0.0650362
0.0725533
0.0779702
0.0812897
0.0833689
0.0846919
0.0855298
0.086047
0.0863519
0.0865208
0.1
0.1
0.1
0.1
0.1
0.1
0.1
0.1
0.1
0.1
0.1
0.1
0.1
0.0653125
0.0727946
0.0781636
0.0814342
0.083472
0.084763
0.0855776
0.0860785
0.0863724
0.0865343
0.1
0.1
0.1
0.1
0.1
0.1
0.1
0.1
0.1
0.1
0.1
0.1
0.1
0.0658237
0.0732667
0.0785144
0.0816765
0.0836341
0.084869
0.0856453
0.0861207
0.0863982
0.0865498
0.1
0.1
0.1
0.1
0.1
0.1
0.1
0.1
0.1
0.1
0.1
0.1
0.1
0.0670884
0.0742329
0.0791324
0.082063
0.0838761
0.0850199
0.0857381
0.0861766
0.0864309
0.0865684
0.1
0.1
0.1
0.1
0.1
0.1
0.1
0.1
0.1
0.1
0.1
0.1
0.1
0.0701227
0.0759724
0.0800879
0.0826142
0.0842049
0.0852182
0.0858569
0.0862464
0.0864708
0.0865906
0.1
0.1
0.1
0.1
0.1
0.1
0.1
0.1
0.1
0.1
0.1
0.1
0.0678959
0.0731606
0.0780943
0.0812608
0.0832868
0.084602
0.0854547
0.0859966
0.0863273
0.0865165
0.0866155
0.0288078
0.0502979
0.0585037
0.0623612
0.0642119
0.0650629
0.0654191
0.0655618
0.0656899
0.0660575
0.0672169
0.0701863
0.0731925
0.0771869
0.0803053
0.0825012
0.0840092
0.0850313
0.0857104
0.0861471
0.086414
0.0865651
0.0866419
0.0248563
0.0512871
0.0615929
0.0668213
0.0696372
0.0711671
0.0719964
0.0724718
0.0728409
0.0733486
0.0743126
0.0760333
0.0781318
0.08032
0.0821882
0.0836344
0.0846971
0.0854493
0.085962
0.0862958
0.0864997
0.0866131
0.0866678
0.0261795
0.0541684
0.0650899
0.0707416
0.0739262
0.0757694
0.0768483
0.0775065
0.0779815
0.0784688
0.0791456
0.0801185
0.0812887
0.0825187
0.0836419
0.0845723
0.0852927
0.0858213
0.0861895
0.0864313
0.0865782
0.0866572
0.0866917
0.027062
0.0560902
0.0673706
0.0732218
0.0765786
0.0785818
0.0797987
0.0805592
0.0810818
0.0815274
0.0820161
0.0826127
0.0833007
0.084024
0.0847076
0.0852979
0.0857715
0.086128
0.0863801
0.0865461
0.0866452
0.0866949
0.0867123
0.0275195
0.0572027
0.0687579
0.0747549
0.0782215
0.080322
0.0816227
0.0824439
0.0829901
0.0834028
0.0837796
0.0841757
0.0846026
0.0850423
0.0854616
0.0858311
0.0861336
0.0863648
0.0865295
0.0866371
0.0866987
0.0867254
0.086729
0.0277423
0.0578066
0.0695674
0.075685
0.0792373
0.0814073
0.0827645
0.083625
0.0841851
0.0845761
0.0848862
0.0851686
0.0854464
0.0857201
0.0859778
0.0862054
0.0863932
0.0865376
0.08664
0.0867052
0.0867392
0.0867487
0.0867419
0.027846
0.0581187
0.0700206
0.076233
0.0798539
0.0820771
0.0834754
0.0843633
0.084933
0.0853107
0.0855808
0.0857964
0.0859862
0.0861606
0.0863192
0.0864574
0.0865708
0.0866573
0.0867176
0.0867536
0.0867684
0.0867657
0.0867515
0.0278925
0.0582732
0.0702641
0.0765445
0.0802172
0.0824807
0.0839093
0.0848169
0.0853938
0.085764
0.0860103
0.0861862
0.0863237
0.0864388
0.0865374
0.0866205
0.0866872
0.086737
0.08677
0.0867869
0.0867888
0.086778
0.0867587
0.0279127
0.0583469
0.0703901
0.0767151
0.0804243
0.0827167
0.0841669
0.0850887
0.0856712
0.0860375
0.0862699
0.0864226
0.0865295
0.0866097
0.0866729
0.086723
0.0867615
0.0867887
0.0868048
0.0868097
0.0868035
0.0867873
0.0867648
0.0279213
0.0583813
0.0704534
0.076806
0.0805393
0.0828514
0.0843167
0.0852483
0.0858351
0.0861997
0.0864244
0.0865639
0.0866533
0.0867136
0.0867563
0.0867874
0.0868094
0.0868233
0.0868293
0.0868268
0.0868156
0.0867961
0.0867713
0.027925
0.0583975
0.0704856
0.076855
0.0806039
0.0829294
0.084405
0.0853436
0.0859337
0.0862978
0.0865183
0.0866506
0.0867303
0.0867795
0.0868108
0.0868311
0.0868438
0.0868501
0.0868501
0.0868433
0.0868289
0.0868072
0.0867809
0.0279269
0.0584064
0.0705047
0.0768856
0.0806458
0.082981
0.0844643
0.085408
0.0860007
0.086365
0.0865836
0.086712
0.0867864
0.0868296
0.0868547
0.0868691
0.0868765
0.0868784
0.0868749
0.0868654
0.086849
0.0868256
0.086798
0.0279285
0.0584145
0.0705228
0.0769149
0.0806859
0.0830301
0.08452
0.0854681
0.0860631
0.0864279
0.0866454
0.0867717
0.0868433
0.0868832
0.0869048
0.0869159
0.0869204
0.0869197
0.086914
0.0869025
0.0868845
0.0868596
0.0868305
0.0279314
0.0584288
0.0705529
0.0769614
0.0807465
0.0831013
0.0845982
0.0855504
0.0861472
0.0865123
0.0867292
0.0868541
0.0869239
0.0869618
0.0869814
0.0869905
0.086993
0.0869906
0.0869832
0.0869702
0.0869505
0.0869239
0.0868929
0.0279387
0.058462
0.070618
0.0770552
0.0808615
0.0832299
0.0847342
0.0856895
0.0862869
0.0866513
0.0868668
0.0869902
0.0870585
0.0870948
0.087113
0.0871206
0.0871217
0.0871178
0.0871089
0.0870943
0.0870727
0.0870439
0.0870104
0.0279582
0.0585456
0.0707682
0.0772552
0.0810916
0.0834746
0.0849834
0.0859378
0.086532
0.0868928
0.0871051
0.0872259
0.0872921
0.0873267
0.0873434
0.0873498
0.0873496
0.0873443
0.0873339
0.0873175
0.0872938
0.0872625
0.0872259
0.0280129
0.0587621
0.0711186
0.0776812
0.0815482
0.0839348
0.0854349
0.0863764
0.0869584
0.0873092
0.0875143
0.0876301
0.087693
0.0877253
0.0877404
0.0877454
0.0877439
0.0877373
0.0877255
0.0877074
0.0876818
0.0876481
0.0876084
0.0281719
0.059335
0.0719312
0.0785693
0.0824265
0.0847717
0.0862254
0.0871268
0.087678
0.0880072
0.0881981
0.0883049
0.0883623
0.0883914
0.0884044
0.088408
0.0884054
0.0883979
0.0883851
0.0883661
0.0883394
0.0883044
0.0882629
0.0286569
0.0608698
0.0737719
0.0803439
0.0840357
0.0862207
0.0875475
0.0883574
0.0888466
0.0891358
0.0893019
0.0893941
0.0894432
0.0894677
0.0894782
0.0894804
0.0894772
0.0894694
0.0894568
0.0894383
0.0894126
0.0893791
0.0893392
0.0302782
0.0649114
0.0776916
0.0836333
0.0867765
0.0885722
0.0896396
0.090282
0.0906661
0.0908913
0.0910199
0.0910909
0.0911284
0.0911468
0.0911544
0.0911555
0.0911523
0.0911454
0.0911345
0.0911189
0.0910975
0.0910697
0.0910366
0.0374008
0.0747446
0.0850058
0.0890033
0.0909833
0.092093
0.0927499
0.0931453
0.0933817
0.0935205
0.0935997
0.0936434
0.0936665
0.0936777
0.0936821
0.0936825
0.0936801
0.0936754
0.0936681
0.0936578
0.0936439
0.0936263
0.0936057
0.0857226
0.0942133
0.0955355
0.096209
0.0966401
0.0969195
0.0970989
0.0972124
0.0972825
0.0973247
0.0973492
0.097363
0.0973703
0.0973738
0.0973752
0.0973752
0.0973743
0.0973727
0.0973702
0.0973668
0.0973625
0.0973574
0.097352
0.0392786
0.0329899
0.0329526
0.039071
0.0671503
0.065702
0.0657117
0.0671873
0.0762223
0.075831
0.0758569
0.0763043
0.0805935
0.0804703
0.0804995
0.0806839
0.0830318
0.0829975
0.0830281
0.0831263
0.0844783
0.0844808
0.0845125
0.084576
0.085354
0.0853739
0.0854064
0.085454
0.0858813
0.0859103
0.0859433
0.085983
0.0861929
0.0862264
0.0862598
0.0862954
0.0863722
0.086408
0.0864415
0.0864751
0.0864728
0.0865096
0.086543
0.0865755
0.0865282
0.0865653
0.0865985
0.0866303
0.0865588
0.0865957
0.0866285
0.0866597
0.0865766
0.0866129
0.0866451
0.0866758
0.0865887
0.0866239
0.0866552
0.0866851
0.086599
0.0866326
0.0866626
0.0866915
0.0866098
0.0866411
0.0866694
0.086697
0.0866224
0.0866506
0.0866767
0.0867025
0.0866369
0.0866614
0.0866847
0.0867085
0.0866531
0.0866734
0.0866935
0.0867149
0.0866701
0.0866858
0.0867026
0.0867216
0.0866868
0.0866981
0.0867115
0.0867281
0.0867021
0.0867093
0.0867197
0.0867341
0.0867154
0.0867191
0.0867268
0.0867393
0.0867263
0.0867271
0.0867327
0.0867436
0.0867347
0.0867334
0.0867374
0.086747
0.0867412
0.0867382
0.086741
0.0867498
0.0867462
0.0867422
0.0867441
0.0867523
0.0867507
0.086746
0.0867473
0.086755
0.0867562
0.0867509
0.0867518
0.0867592
0.0867649
0.0867592
0.0867597
0.0867668
0.0867812
0.0867749
0.0867751
0.0867817
0.0868127
0.0868058
0.0868053
0.0868113
0.0868736
0.0868658
0.0868643
0.0868694
0.0869891
0.0869798
0.086977
0.0869807
0.0872018
0.0871907
0.0871859
0.0871876
0.0875813
0.087568
0.0875608
0.0875598
0.0882336
0.0882184
0.0882087
0.0882047
0.0893102
0.0892944
0.089283
0.0892762
0.091012
0.090998
0.0909869
0.0909786
0.0935902
0.0935809
0.0935725
0.0935651
0.097348
0.0973453
0.0973421
0.0973386
0.0597005
0.0699528
0.0750729
0.0778
0.0793053
0.0801363
0.0805804
0.080799
0.0808799
0.0808594
0.0807317
0.0804485
0.0799105
0.0789454
0.0772592
0.0743071
0.0689267
0.058022
0.0286521
0.0712107
0.0757493
0.0787642
0.0806462
0.0817886
0.0824611
0.0828376
0.0830271
0.0830917
0.0830542
0.0829009
0.0825781
0.0819824
0.0809388
0.0791481
0.0760521
0.0704531
0.0591684
0.0290613
0.0775626
0.0796791
0.0814189
0.0826614
0.0834847
0.0839989
0.0842978
0.084449
0.0844917
0.0844358
0.0842596
0.0839042
0.0832624
0.082156
0.0802805
0.0770671
0.0712974
0.0597505
0.0292466
0.0812083
0.0822738
0.0832836
0.0840833
0.0846532
0.0850272
0.0852507
0.0853614
0.0853803
0.0853062
0.0851102
0.0847285
0.0840505
0.0828945
0.0809524
0.0776489
0.0717554
0.0600404
0.0293301
0.0833921
0.0839689
0.0845638
0.0850702
0.0854514
0.0857111
0.0858682
0.0859411
0.0859373
0.0858468
0.0856344
0.0852323
0.0845267
0.0833336
0.0813421
0.0779737
0.0719973
0.0601816
0.0293673
0.0847325
0.0850654
0.0854219
0.0857387
0.085986
0.0861584
0.0862617
0.0863025
0.0862792
0.0861748
0.0859496
0.0855323
0.0848068
0.0835872
0.0815614
0.0781497
0.0721214
0.0602488
0.0293836
0.0855585
0.0857631
0.0859813
0.0861782
0.0863346
0.086444
0.0865067
0.0865225
0.0864836
0.0863683
0.0861336
0.0857056
0.0849665
0.0837292
0.0816809
0.0782421
0.0721833
0.06028
0.0293906
0.0860613
0.0861965
0.0863346
0.0864576
0.0865548
0.0866214
0.0866555
0.0866529
0.0866025
0.0864793
0.0862378
0.0858026
0.0850547
0.0838062
0.0817441
0.0782893
0.0722133
0.0602943
0.0293936
0.0863601
0.0864578
0.0865502
0.0866291
0.0866894
0.0867284
0.0867433
0.0867283
0.0866698
0.0865411
0.0862952
0.0858554
0.0851019
0.0838467
0.0817765
0.0783126
0.0722276
0.0603007
0.0293948
0.0865328
0.0866102
0.0866772
0.0867306
0.0867689
0.0867909
0.0867939
0.0867708
0.0867071
0.0865747
0.0863259
0.0858832
0.0851265
0.0838674
0.0817927
0.0783239
0.0722342
0.0603035
0.0293954
0.0866295
0.0866963
0.0867495
0.0867887
0.0868145
0.0868265
0.0868222
0.0867942
0.0867271
0.0865926
0.086342
0.0858976
0.085139
0.0838777
0.0818006
0.0783293
0.0722372
0.0603047
0.0293956
0.0866823
0.0867435
0.0867894
0.0868209
0.0868397
0.0868461
0.0868376
0.0868068
0.0867378
0.0866018
0.0863502
0.0859048
0.0851452
0.0838828
0.0818043
0.0783318
0.0722385
0.0603052
0.0293957
0.0867105
0.0867687
0.0868108
0.0868383
0.0868534
0.0868567
0.0868459
0.0868134
0.0867433
0.0866065
0.0863543
0.0859084
0.0851483
0.0838852
0.0818061
0.0783329
0.0722391
0.0603054
0.0293957
0.0867255
0.086782
0.086822
0.0868474
0.0868606
0.0868623
0.0868502
0.0868168
0.0867461
0.0866089
0.0863563
0.0859102
0.0851497
0.0838863
0.0818069
0.0783334
0.0722394
0.0603055
0.0293957
0.0867338
0.086789
0.0868279
0.0868522
0.0868643
0.0868652
0.0868524
0.0868185
0.0867475
0.0866101
0.0863573
0.085911
0.0851504
0.0838869
0.0818073
0.0783337
0.0722395
0.0603056
0.0293957
0.0867389
0.086793
0.086831
0.0868546
0.0868662
0.0868666
0.0868536
0.0868194
0.0867481
0.0866106
0.0863578
0.0859114
0.0851507
0.0838871
0.0818075
0.0783338
0.0722396
0.0603056
0.0293957
0.0867427
0.0867956
0.0868328
0.0868559
0.0868672
0.0868674
0.0868541
0.0868198
0.0867485
0.0866109
0.086358
0.0859116
0.0851508
0.0838872
0.0818075
0.0783338
0.0722396
0.0603056
0.0293957
0.0867461
0.0867975
0.086834
0.0868567
0.0868677
0.0868677
0.0868544
0.08682
0.0867486
0.086611
0.0863581
0.0859116
0.0851509
0.0838873
0.0818076
0.0783338
0.0722396
0.0603056
0.0293957
0.0867496
0.0867993
0.086835
0.0868573
0.0868681
0.086868
0.0868545
0.0868201
0.0867487
0.0866111
0.0863581
0.0859117
0.0851509
0.0838873
0.0818076
0.0783338
0.0722396
0.0603056
0.0293957
0.0867532
0.086801
0.0868358
0.0868577
0.0868683
0.0868681
0.0868546
0.0868202
0.0867488
0.0866111
0.0863581
0.0859117
0.0851509
0.0838873
0.0818076
0.0783338
0.0722396
0.0603056
0.0293957
0.0867569
0.0868027
0.0868366
0.0868581
0.0868685
0.0868682
0.0868547
0.0868202
0.0867488
0.0866111
0.0863582
0.0859117
0.0851509
0.0838873
0.0818076
0.0783338
0.0722396
0.0603056
0.0293957
0.0867604
0.0868043
0.0868373
0.0868584
0.0868686
0.0868683
0.0868547
0.0868203
0.0867488
0.0866111
0.0863582
0.0859117
0.0851509
0.0838873
0.0818076
0.0783338
0.0722396
0.0603056
0.0293957
0.0867637
0.0868058
0.086838
0.0868587
0.0868688
0.0868683
0.0868548
0.0868203
0.0867488
0.0866111
0.0863582
0.0859117
0.0851509
0.0838873
0.0818076
0.0783338
0.0722396
0.0603056
0.0293957
0.0867666
0.0868072
0.0868386
0.086859
0.0868689
0.0868684
0.0868548
0.0868203
0.0867488
0.0866112
0.0863582
0.0859117
0.085151
0.0838873
0.0818076
0.0783338
0.0722396
0.0603056
0.0293957
0.086769
0.0868083
0.0868392
0.0868593
0.086869
0.0868685
0.0868548
0.0868203
0.0867489
0.0866112
0.0863582
0.0859117
0.085151
0.0838873
0.0818076
0.0783338
0.0722396
0.0603056
0.0293957
0.086771
0.0868093
0.0868397
0.0868595
0.0868692
0.0868686
0.0868549
0.0868204
0.0867489
0.0866112
0.0863582
0.0859118
0.085151
0.0838873
0.0818076
0.0783338
0.0722396
0.0603056
0.0293957
0.0867727
0.0868102
0.0868402
0.0868599
0.0868695
0.0868688
0.0868551
0.0868206
0.086749
0.0866113
0.0863583
0.0859118
0.085151
0.0838873
0.0818076
0.0783339
0.0722396
0.0603056
0.0293957
0.0867744
0.0868113
0.0868411
0.0868606
0.08687
0.0868693
0.0868555
0.0868209
0.0867493
0.0866116
0.0863585
0.085912
0.0851511
0.0838874
0.0818077
0.0783339
0.0722396
0.0603056
0.0293957
0.0867765
0.0868131
0.0868425
0.0868619
0.0868712
0.0868703
0.0868564
0.0868217
0.08675
0.0866121
0.086359
0.0859123
0.0851514
0.0838876
0.0818078
0.0783339
0.0722396
0.0603056
0.0293957
0.0867802
0.0868163
0.0868455
0.0868646
0.0868736
0.0868725
0.0868584
0.0868234
0.0867515
0.0866134
0.08636
0.0859131
0.085152
0.083888
0.081808
0.0783341
0.0722397
0.0603056
0.0293957
0.0867874
0.086823
0.0868516
0.0868702
0.0868788
0.0868772
0.0868626
0.0868272
0.0867547
0.0866161
0.0863623
0.0859149
0.0851533
0.0838889
0.0818086
0.0783344
0.0722398
0.0603057
0.0293957
0.0868017
0.0868365
0.0868644
0.0868821
0.0868899
0.0868874
0.0868718
0.0868353
0.0867619
0.0866223
0.0863674
0.085919
0.0851565
0.0838911
0.08181
0.0783351
0.0722401
0.0603057
0.0293957
0.0868304
0.0868639
0.0868904
0.0869067
0.0869128
0.0869086
0.0868912
0.0868528
0.0867774
0.0866357
0.0863788
0.0859283
0.0851637
0.0838963
0.0818133
0.0783369
0.0722409
0.060306
0.0293958
0.086887
0.0869183
0.0869424
0.086956
0.0869593
0.086952
0.0869313
0.0868894
0.0868102
0.0866646
0.0864036
0.085949
0.0851801
0.0839084
0.0818213
0.0783414
0.0722428
0.0603065
0.0293958
0.0869959
0.0870236
0.0870437
0.087053
0.0870516
0.087039
0.0870126
0.0869644
0.0868785
0.0867257
0.0864571
0.0859945
0.085217
0.0839365
0.0818404
0.0783524
0.0722477
0.0603079
0.029396
0.0871992
0.0872214
0.0872355
0.0872382
0.0872293
0.0872085
0.0871728
0.0871143
0.0870171
0.086852
0.08657
0.0860929
0.0852995
0.0840014
0.0818865
0.0783802
0.0722604
0.0603116
0.0293964
0.0875666
0.0875811
0.0875867
0.0875801
0.0875609
0.0875283
0.0874791
0.0874052
0.0872906
0.0871062
0.0868029
0.0863019
0.085481
0.0841505
0.0819977
0.0784509
0.0722941
0.0603216
0.0293975
0.0882056
0.0882104
0.0882056
0.0881877
0.088156
0.0881091
0.088043
0.0879494
0.087812
0.0876017
0.0872691
0.0867343
0.0858723
0.084489
0.0822664
0.0786343
0.0723859
0.060349
0.0294005
0.089271
0.0892654
0.08925
0.0892215
0.0891783
0.0891181
0.0890362
0.0889235
0.0887635
0.0885275
0.0881657
0.0875973
0.0866911
0.0852432
0.082913
0.0791206
0.0726452
0.0604265
0.029409
0.0909686
0.0909547
0.0909323
0.0908982
0.0908501
0.0907848
0.090697
0.0905774
0.0904098
0.0901673
0.0898017
0.0892344
0.0883283
0.0868654
0.0844453
0.0804339
0.0734106
0.0606475
0.0294324
0.0935539
0.0935377
0.0935161
0.0934865
0.0934465
0.0933929
0.0933208
0.0932223
0.0930842
0.0928854
0.0925868
0.092125
0.091375
0.0901322
0.0879145
0.0839816
0.0758038
0.061261
0.0294948
0.097332
0.0973227
0.0973125
0.0972998
0.0972834
0.0972617
0.0972325
0.0971924
0.0971359
0.097055
0.0969333
0.096748
0.0964415
0.0959308
0.0948838
0.0928007
0.0839143
0.062676
0.029627
)
;

boundaryField
{
    leftWall
    {
        type            kqRWallFunction;
        value           nonuniform List<scalar> 
50
(
0.1
0.1
0.1
0.1
0.1
0.1
0.1
0.1
0.1
0.1
0.1
0.1
0.1
0.1
0.1
0.1
0.1
0.1
0.1
0.1
0.1
0.1
0.1
0.1
0.1
0.1
0.1
0.1
0.0288078
0.0248563
0.0261795
0.027062
0.0275195
0.0277423
0.027846
0.0278925
0.0279127
0.0279213
0.027925
0.0279269
0.0279285
0.0279314
0.0279387
0.0279582
0.0280129
0.0281719
0.0286569
0.0302782
0.0374008
0.0857226
)
;
    }
    rightWall
    {
        type            kqRWallFunction;
        value           nonuniform List<scalar> 
50
(
0.0121863
0.0190829
0.0222345
0.0242684
0.0256932
0.0267215
0.0274686
0.0280143
0.0286521
0.0290613
0.0292466
0.0293301
0.0293673
0.0293836
0.0293906
0.0293936
0.0293948
0.0293954
0.0293956
0.0293957
0.0293957
0.0293957
0.0293957
0.0293957
0.0293957
0.0293957
0.0293957
0.0293957
0.0293957
0.0293957
0.0293957
0.0293957
0.0293957
0.0293957
0.0293957
0.0293957
0.0293957
0.0293957
0.0293957
0.0293957
0.0293958
0.0293958
0.029396
0.0293964
0.0293975
0.0294005
0.029409
0.0294324
0.0294948
0.029627
)
;
    }
    lowerWall
    {
        type            kqRWallFunction;
        value           nonuniform List<scalar> 
62
(
0.1
0.1
0.1
0.1
0.1
0.1
0.1
0.1
0.1
0.1
0.1
0.1
0.1
0.0149194
0.0163372
0.0185064
0.0195728
0.0199596
0.0198257
0.0190919
0.0174276
0.014162
0.00834894
0.00834894
0.0172154
0.0207312
0.0230154
0.0248078
0.0266131
0.029524
0.0375142
0.0392786
0.0329899
0.0329526
0.039071
0.00875407
0.0185142
0.0222077
0.0245402
0.0263537
0.0282169
0.0312857
0.0393447
0.00875407
0.0147274
0.0179406
0.0195116
0.0202262
0.020526
0.0206429
0.0206855
0.0206995
0.020701
0.0206928
0.0206678
0.0206041
0.0204497
0.0200941
0.0193211
0.0177371
0.0146568
0.0121863
)
;
    }
    atmosphere
    {
        type            inletOutlet;
        inletValue      uniform 0.1;
        value           nonuniform List<scalar> 
46
(
0.1
0.1
0.1
0.1
0.1
0.1
0.1
0.1
0.1
0.1
0.1
0.1
0.1
0.1
0.1
0.1
0.1
0.1
0.1
0.1
0.1
0.1
0.1
0.1
0.1
0.1
0.1
0.1
0.1
0.1
0.1
0.1
0.1
0.1
0.1
0.1
0.1
0.1
0.1
0.1
0.1
0.1
0.1
0.1
0.062676
0.029627
)
;
    }
    defaultFaces
    {
        type            empty;
    }
}


// ************************************************************************* //
