/*--------------------------------*- C++ -*----------------------------------*\
| =========                 |                                                 |
| \\      /  F ield         | OpenFOAM: The Open Source CFD Toolbox           |
|  \\    /   O peration     | Version:  2406                                  |
|   \\  /    A nd           | Website:  www.openfoam.com                      |
|    \\/     M anipulation  |                                                 |
\*---------------------------------------------------------------------------*/
FoamFile
{
    version     2.0;
    format      ascii;
    arch        "LSB;label=32;scalar=64";
    class       volScalarField;
    location    "0.15";
    object      k;
}
// * * * * * * * * * * * * * * * * * * * * * * * * * * * * * * * * * * * * * //

dimensions      [0 2 -2 0 0 0 0];

internalField   nonuniform List<scalar> 
2268
(
0.0113509
0.0141284
0.0172691
0.0189629
0.0198563
0.020315
0.0205423
0.0206508
0.0207008
0.0207232
0.0207327
0.0207362
0.0207359
0.0207313
0.0207182
0.0206854
0.0206065
0.0204244
0.020022
0.0191744
0.0174718
0.0141828
0.00834861
0.0176578
0.0319286
0.0385711
0.042063
0.0439356
0.0449303
0.0454459
0.045705
0.0458311
0.0458905
0.0459172
0.0459272
0.0459267
0.0459143
0.0458802
0.0457987
0.0456129
0.0452056
0.0443449
0.0425905
0.0391113
0.0322462
0.0172201
0.0207279
0.0401899
0.0482791
0.0525049
0.054818
0.0560873
0.0567719
0.0571313
0.0573143
0.0574042
0.0574461
0.0574625
0.0574622
0.0574438
0.0573937
0.0572786
0.0570278
0.0565011
0.0554307
0.053312
0.0491666
0.0408563
0.0207541
0.0227646
0.0453717
0.0543107
0.0589462
0.0615198
0.0629682
0.0637747
0.0642134
0.064445
0.064563
0.0646199
0.064643
0.0646434
0.0646199
0.0645568
0.0644164
0.0641214
0.063524
0.0623477
0.0600709
0.0556419
0.0465506
0.0230575
0.0242045
0.0489214
0.058466
0.0633836
0.0661397
0.0677205
0.0686233
0.0691289
0.069404
0.0695485
0.0696201
0.0696502
0.0696518
0.0696243
0.0695508
0.0693916
0.0690674
0.0684307
0.0672103
0.0648909
0.060388
0.0508869
0.0248662
0.0252433
0.0514456
0.0614603
0.0665967
0.0694942
0.0711802
0.0721624
0.0727255
0.0730398
0.0732091
0.0732952
0.0733324
0.0733359
0.0733055
0.0732243
0.0730522
0.0727111
0.0720592
0.0708397
0.0685627
0.0641609
0.0546338
0.0266863
0.0259955
0.0532765
0.0636715
0.0689901
0.0720045
0.073778
0.0748276
0.0754409
0.0757906
0.0759831
0.0760832
0.0761277
0.0761335
0.0761015
0.0760153
0.0758356
0.0754881
0.0748402
0.0736565
0.0714915
0.0673642
0.058348
0.0296107
0.0265389
0.0546191
0.0653285
0.0708046
0.0739202
0.0757689
0.076877
0.0775347
0.0779163
0.0781304
0.0782438
0.0782956
0.0783044
0.0782719
0.0781831
0.0780009
0.0776557
0.0770269
0.0759055
0.0739062
0.0702097
0.0624397
0.0376223
0.00875351
0.0147409
0.0179599
0.0195182
0.0202311
0.0205382
0.020663
0.0207109
0.0207272
0.020729
0.0207193
0.0206902
0.0206189
0.0204536
0.0200878
0.0193146
0.0177442
0.0146682
0.0121852
0.0185161
0.0334496
0.0401221
0.0433047
0.0447919
0.0454597
0.0457457
0.0458615
0.0459026
0.0459066
0.0458799
0.0458042
0.0456284
0.0452436
0.0444363
0.0428011
0.0395605
0.0330975
0.0190829
0.0222229
0.042322
0.0503797
0.0541767
0.0559865
0.0568293
0.0572066
0.0573664
0.0574248
0.0574294
0.0573877
0.0572749
0.0570245
0.0565022
0.055455
0.0534151
0.0494773
0.0416057
0.0222441
0.0245674
0.048163
0.0569483
0.0610033
0.0629589
0.0638959
0.0643311
0.0645221
0.0645935
0.0645974
0.0645411
0.0643948
0.0640824
0.0634558
0.0622449
0.0599573
0.0556241
0.0469226
0.0242861
0.0263865
0.0525865
0.0617276
0.0658444
0.0678451
0.0688268
0.069297
0.0695097
0.0695904
0.0695921
0.0695212
0.0693439
0.0689774
0.0682653
0.0669295
0.0644647
0.0598569
0.05056
0.025714
0.028249
0.0563624
0.0654816
0.0695021
0.0714747
0.0724645
0.0729516
0.0731777
0.0732639
0.0732622
0.0731769
0.0729707
0.0725561
0.0717718
0.070335
0.0677314
0.0629094
0.0531462
0.0267425
0.0313094
0.0600159
0.0686109
0.0723871
0.0742733
0.0752425
0.0757318
0.0759639
0.0760524
0.0760459
0.0759464
0.0757134
0.0752558
0.0744092
0.0728875
0.0701685
0.0651673
0.0550231
0.0274879
0.0393507
0.063897
0.0713291
0.074734
0.0764897
0.0774166
0.0778962
0.0781278
0.0782155
0.078203
0.0780896
0.0778318
0.0773357
0.0764343
0.0748393
0.0720203
0.0668634
0.0564009
0.0280271
0.027152
0.0561665
0.0672863
0.0729785
0.0762336
0.0781853
0.0793733
0.0800924
0.080519
0.080764
0.0808972
0.0809602
0.0809742
0.080943
0.0808539
0.080674
0.0803436
0.0797627
0.0787671
0.0770769
0.0741738
0.0689786
0.0590056
0.0275642
0.0572788
0.0687748
0.0746898
0.0780941
0.0801557
0.0814285
0.082213
0.0826885
0.0829682
0.0831245
0.083202
0.0832248
0.0832
0.0831192
0.0829575
0.0826698
0.0821847
0.0813956
0.0801445
0.0782004
0.0752523
0.0710412
0.0277639
0.0578613
0.0696064
0.0756873
0.0792092
0.0813587
0.0826993
0.0835362
0.0840511
0.0843592
0.0845351
0.084626
0.0846585
0.0846431
0.0845764
0.0844412
0.0842061
0.0838244
0.083233
0.0823548
0.0811115
0.0794705
0.0775822
0.027858
0.0581596
0.0700629
0.0762615
0.0798722
0.08209
0.0834837
0.0843616
0.0849076
0.0852385
0.0854306
0.0855333
0.0855755
0.0855711
0.085521
0.0854154
0.0852341
0.0849487
0.0845252
0.0839316
0.0831542
0.0822317
0.0813119
0.0279012
0.0583084
0.070307
0.0765845
0.0802585
0.0825267
0.0839603
0.0848694
0.0854391
0.0857876
0.0859926
0.0861052
0.0861565
0.086163
0.0861299
0.0860529
0.0859206
0.0857172
0.0854259
0.0850365
0.084557
0.0840302
0.0835515
0.0279205
0.0583806
0.0704339
0.076761
0.0804775
0.0827809
0.084243
0.0851746
0.0857616
0.0861231
0.086338
0.0864585
0.0865176
0.0865342
0.0865164
0.0864644
0.0863732
0.0862348
0.086042
0.0857938
0.0855019
0.0851983
0.0849383
0.027929
0.0584147
0.070498
0.0768546
0.0805979
0.0829245
0.0844059
0.085353
0.085952
0.0863227
0.0865447
0.0866713
0.0867368
0.0867617
0.0867566
0.0867249
0.0866657
0.0865759
0.0864532
0.0862995
0.0861248
0.08595
0.0858059
0.0279326
0.0584305
0.0705295
0.0769029
0.0806622
0.0830032
0.0844969
0.085454
0.0860611
0.086438
0.0866649
0.0867959
0.0868662
0.0868976
0.0869022
0.0868859
0.0868501
0.0867947
0.0867196
0.0866274
0.0865252
0.0864255
0.0863455
0.0279342
0.0584377
0.0705446
0.076927
0.0806955
0.083045
0.0845462
0.0855096
0.0861217
0.0865026
0.0867328
0.0868669
0.0869406
0.0869767
0.0869884
0.0869829
0.0869633
0.086931
0.0868869
0.0868334
0.0867751
0.0867194
0.0866754
0.0279349
0.0584409
0.0705517
0.0769388
0.0807124
0.0830667
0.0845722
0.0855393
0.0861544
0.0865378
0.0867701
0.0869062
0.0869822
0.0870215
0.0870381
0.0870398
0.0870308
0.0870133
0.0869886
0.0869587
0.0869265
0.086896
0.0868723
0.0279351
0.0584423
0.070555
0.0769445
0.0807206
0.0830776
0.0845855
0.0855547
0.0861716
0.0865564
0.0867901
0.0869274
0.087005
0.0870464
0.087066
0.0870723
0.08707
0.0870615
0.0870485
0.0870325
0.0870152
0.086999
0.0869865
0.0279352
0.0584429
0.0705565
0.0769471
0.0807246
0.0830829
0.0845921
0.0855625
0.0861804
0.0865661
0.0868005
0.0869386
0.0870172
0.0870598
0.0870814
0.0870905
0.0870921
0.087089
0.0870827
0.0870745
0.0870656
0.0870573
0.0870509
0.0279353
0.0584431
0.0705571
0.0769483
0.0807265
0.0830855
0.0845954
0.0855664
0.0861848
0.086571
0.0868058
0.0869444
0.0870235
0.087067
0.0870897
0.0871004
0.0871043
0.0871042
0.0871017
0.0870978
0.0870935
0.0870893
0.0870862
0.0279353
0.0584432
0.0705574
0.0769489
0.0807274
0.0830867
0.084597
0.0855683
0.086187
0.0865734
0.0868085
0.0869473
0.0870268
0.0870707
0.087094
0.0871057
0.0871109
0.0871124
0.0871119
0.0871104
0.0871084
0.0871065
0.087105
0.0279353
0.0584433
0.0705575
0.0769491
0.0807278
0.0830873
0.0845977
0.0855692
0.0861881
0.0865746
0.0868098
0.0869488
0.0870284
0.0870726
0.0870963
0.0871085
0.0871143
0.0871167
0.0871173
0.087117
0.0871162
0.0871154
0.0871148
0.0279353
0.0584433
0.0705576
0.0769492
0.0807279
0.0830876
0.0845981
0.0855696
0.0861886
0.0865752
0.0868105
0.0869495
0.0870292
0.0870736
0.0870975
0.0871099
0.0871161
0.087119
0.0871201
0.0871203
0.0871202
0.0871199
0.0871197
0.0279353
0.0584433
0.0705576
0.0769493
0.080728
0.0830877
0.0845982
0.0855698
0.0861888
0.0865754
0.0868108
0.0869499
0.0870296
0.087074
0.087098
0.0871106
0.087117
0.0871201
0.0871215
0.087122
0.0871222
0.0871222
0.0871222
0.0279353
0.0584433
0.0705576
0.0769493
0.0807281
0.0830877
0.0845983
0.0855699
0.0861889
0.0865756
0.0868109
0.08695
0.0870298
0.0870743
0.0870983
0.087111
0.0871174
0.0871206
0.0871222
0.0871228
0.0871231
0.0871233
0.0871234
0.0279353
0.0584433
0.0705576
0.0769493
0.0807281
0.0830878
0.0845983
0.0855699
0.086189
0.0865756
0.086811
0.0869501
0.0870299
0.0870744
0.0870984
0.0871111
0.0871177
0.0871209
0.0871225
0.0871233
0.0871236
0.0871238
0.087124
0.0279353
0.0584433
0.0705576
0.0769493
0.0807281
0.0830878
0.0845983
0.08557
0.086189
0.0865757
0.086811
0.0869501
0.08703
0.0870744
0.0870985
0.0871112
0.0871178
0.087121
0.0871227
0.0871234
0.0871238
0.0871241
0.0871242
0.0279353
0.0584433
0.0705576
0.0769493
0.0807281
0.0830878
0.0845983
0.08557
0.086189
0.0865757
0.086811
0.0869502
0.08703
0.0870744
0.0870985
0.0871113
0.0871178
0.0871211
0.0871227
0.0871235
0.0871239
0.0871242
0.0871244
0.0279353
0.0584433
0.0705576
0.0769493
0.0807281
0.0830878
0.0845983
0.08557
0.086189
0.0865757
0.086811
0.0869502
0.08703
0.0870745
0.0870986
0.0871113
0.0871178
0.0871211
0.0871228
0.0871236
0.087124
0.0871242
0.0871244
0.0279353
0.0584433
0.0705576
0.0769493
0.0807281
0.0830878
0.0845983
0.08557
0.086189
0.0865757
0.086811
0.0869502
0.08703
0.0870745
0.0870986
0.0871113
0.0871178
0.0871211
0.0871228
0.0871236
0.087124
0.0871242
0.0871244
0.0279353
0.0584433
0.0705576
0.0769493
0.0807281
0.0830878
0.0845983
0.08557
0.086189
0.0865757
0.086811
0.0869502
0.08703
0.0870745
0.0870986
0.0871113
0.0871178
0.0871212
0.0871228
0.0871236
0.087124
0.0871243
0.0871244
0.0279353
0.0584433
0.0705576
0.0769493
0.0807281
0.0830878
0.0845983
0.08557
0.086189
0.0865757
0.086811
0.0869502
0.08703
0.0870745
0.0870986
0.0871113
0.0871178
0.0871212
0.0871228
0.0871236
0.087124
0.0871243
0.0871245
0.0279353
0.0584433
0.0705576
0.0769493
0.0807281
0.0830878
0.0845983
0.08557
0.086189
0.0865757
0.086811
0.0869502
0.08703
0.0870745
0.0870986
0.0871113
0.0871178
0.0871212
0.0871228
0.0871236
0.087124
0.0871243
0.0871245
0.0279353
0.0584433
0.0705576
0.0769493
0.0807281
0.0830878
0.0845983
0.08557
0.086189
0.0865757
0.086811
0.0869502
0.08703
0.0870745
0.0870986
0.0871113
0.0871178
0.0871212
0.0871228
0.0871236
0.087124
0.0871243
0.0871245
0.0279353
0.0584433
0.0705576
0.0769493
0.0807281
0.0830878
0.0845983
0.08557
0.086189
0.0865757
0.086811
0.0869502
0.08703
0.0870745
0.0870986
0.0871113
0.0871178
0.0871212
0.0871228
0.0871236
0.087124
0.0871243
0.0871245
0.0279353
0.0584433
0.0705576
0.0769493
0.0807281
0.0830878
0.0845983
0.08557
0.086189
0.0865757
0.086811
0.0869502
0.08703
0.0870745
0.0870986
0.0871113
0.0871178
0.0871212
0.0871228
0.0871236
0.087124
0.0871243
0.0871245
0.0279353
0.0584433
0.0705576
0.0769493
0.0807281
0.0830878
0.0845983
0.08557
0.086189
0.0865757
0.086811
0.0869502
0.08703
0.0870745
0.0870986
0.0871113
0.0871178
0.0871212
0.0871228
0.0871236
0.087124
0.0871243
0.0871245
0.0279353
0.0584433
0.0705576
0.0769493
0.0807281
0.0830878
0.0845983
0.08557
0.086189
0.0865757
0.086811
0.0869502
0.08703
0.0870745
0.0870986
0.0871113
0.0871178
0.0871212
0.0871228
0.0871236
0.087124
0.0871243
0.0871245
0.0279353
0.0584433
0.0705576
0.0769493
0.0807281
0.0830878
0.0845983
0.08557
0.086189
0.0865757
0.086811
0.0869502
0.08703
0.0870745
0.0870986
0.0871113
0.0871178
0.0871212
0.0871228
0.0871236
0.087124
0.0871243
0.0871245
0.0279353
0.0584433
0.0705576
0.0769493
0.0807281
0.0830878
0.0845983
0.08557
0.086189
0.0865757
0.086811
0.0869502
0.08703
0.0870745
0.0870986
0.0871113
0.0871178
0.0871212
0.0871228
0.0871236
0.087124
0.0871243
0.0871245
0.0279353
0.0584433
0.0705576
0.0769493
0.0807281
0.0830878
0.0845983
0.08557
0.086189
0.0865757
0.086811
0.0869502
0.08703
0.0870745
0.0870986
0.0871113
0.0871178
0.0871212
0.0871228
0.0871236
0.087124
0.0871243
0.0871245
0.0279353
0.0584433
0.0705576
0.0769493
0.0807281
0.0830878
0.0845983
0.08557
0.086189
0.0865757
0.086811
0.0869502
0.08703
0.0870745
0.0870986
0.0871113
0.0871178
0.0871212
0.0871228
0.0871236
0.087124
0.0871243
0.0871245
0.0279353
0.0584433
0.0705576
0.0769493
0.0807281
0.0830878
0.0845983
0.08557
0.086189
0.0865757
0.086811
0.0869502
0.08703
0.0870745
0.0870986
0.0871113
0.0871178
0.0871212
0.0871228
0.0871236
0.087124
0.0871243
0.0871245
0.0279353
0.0584433
0.0705576
0.0769493
0.0807281
0.0830878
0.0845983
0.08557
0.086189
0.0865757
0.086811
0.0869502
0.08703
0.0870745
0.0870986
0.0871113
0.0871178
0.0871212
0.0871228
0.0871236
0.087124
0.0871243
0.0871244
0.0279353
0.0584433
0.0705576
0.0769493
0.0807281
0.0830878
0.0845983
0.08557
0.086189
0.0865757
0.086811
0.0869502
0.08703
0.0870745
0.0870986
0.0871113
0.0871178
0.0871212
0.0871228
0.0871236
0.087124
0.0871243
0.0871244
0.0279353
0.0584433
0.0705576
0.0769493
0.0807281
0.0830878
0.0845983
0.08557
0.086189
0.0865757
0.086811
0.0869502
0.08703
0.0870745
0.0870986
0.0871113
0.0871178
0.0871212
0.0871228
0.0871236
0.087124
0.0871242
0.0871244
0.0279353
0.0584433
0.0705576
0.0769493
0.0807281
0.0830878
0.0845983
0.08557
0.086189
0.0865757
0.086811
0.0869502
0.08703
0.0870745
0.0870986
0.0871113
0.0871178
0.0871212
0.0871228
0.0871236
0.087124
0.0871242
0.0871244
0.0279353
0.0584433
0.0705576
0.0769493
0.0807281
0.0830878
0.0845983
0.08557
0.086189
0.0865757
0.086811
0.0869502
0.08703
0.0870745
0.0870986
0.0871113
0.0871178
0.0871212
0.0871228
0.0871236
0.087124
0.0871242
0.0871244
0.0279353
0.0584433
0.0705576
0.0769493
0.0807281
0.0830878
0.0845983
0.08557
0.086189
0.0865757
0.086811
0.0869502
0.08703
0.0870745
0.0870986
0.0871113
0.0871178
0.0871212
0.0871228
0.0871236
0.087124
0.0871242
0.0871244
0.0393948
0.0331201
0.0330758
0.0391462
0.0673619
0.0659065
0.0658945
0.0673262
0.0764627
0.0760445
0.0760422
0.0764568
0.0808616
0.0807034
0.0807027
0.0808596
0.0833394
0.0832672
0.0832667
0.0833381
0.0848292
0.0847925
0.0847922
0.0848282
0.0857472
0.0857277
0.0857275
0.0857465
0.0863135
0.0863029
0.0863027
0.086313
0.0866581
0.0866523
0.0866522
0.0866577
0.086863
0.08686
0.0868599
0.0868628
0.0869817
0.0869801
0.0869801
0.0869816
0.0870485
0.0870477
0.0870477
0.0870484
0.0870851
0.0870847
0.0870846
0.0870849
0.0871045
0.0871043
0.0871043
0.0871044
0.0871146
0.0871145
0.0871145
0.0871145
0.0871197
0.0871197
0.0871197
0.0871196
0.0871223
0.0871223
0.0871223
0.0871222
0.0871235
0.0871235
0.0871235
0.0871234
0.0871241
0.0871241
0.0871241
0.087124
0.0871244
0.0871244
0.0871244
0.0871243
0.0871245
0.0871245
0.0871245
0.0871244
0.0871245
0.0871246
0.0871246
0.0871245
0.0871246
0.0871246
0.0871246
0.0871245
0.0871246
0.0871246
0.0871246
0.0871245
0.0871246
0.0871246
0.0871246
0.0871245
0.0871246
0.0871246
0.0871246
0.0871245
0.0871246
0.0871246
0.0871246
0.0871245
0.0871246
0.0871246
0.0871246
0.0871245
0.0871246
0.0871246
0.0871246
0.0871245
0.0871246
0.0871246
0.0871246
0.0871245
0.0871246
0.0871246
0.0871246
0.0871245
0.0871246
0.0871246
0.0871246
0.0871245
0.0871246
0.0871246
0.0871246
0.0871245
0.0871246
0.0871246
0.0871246
0.0871245
0.0871246
0.0871246
0.0871246
0.0871245
0.0871246
0.0871246
0.0871246
0.0871245
0.0871246
0.0871246
0.0871246
0.0871245
0.0871246
0.0871246
0.0871246
0.0871245
0.0871246
0.0871246
0.0871246
0.0871245
0.0871245
0.0871246
0.0871245
0.0871244
0.0871245
0.0871246
0.0871245
0.0871244
0.0871245
0.0871245
0.0871245
0.0871244
0.0597087
0.0699404
0.0750488
0.0777755
0.079285
0.0801213
0.0805709
0.0807935
0.0808756
0.0808524
0.0807177
0.0804242
0.079874
0.0788974
0.0772017
0.0742449
0.068873
0.0579913
0.0286357
0.0712708
0.0757701
0.0787739
0.0806565
0.0818034
0.0824813
0.0828625
0.0830551
0.0831197
0.0830784
0.082917
0.0825828
0.0819739
0.0809168
0.0791137
0.0760089
0.0704122
0.0591394
0.0290454
0.0776606
0.0797404
0.0814678
0.0827088
0.0835353
0.0840541
0.0843572
0.0845106
0.0845522
0.0844912
0.0843055
0.0839371
0.0832805
0.0821588
0.0802694
0.0770468
0.0712799
0.0597441
0.0292442
0.0813423
0.0823745
0.0833704
0.0841667
0.0847384
0.0851162
0.0853432
0.0854552
0.0854719
0.0853912
0.0851842
0.0847878
0.0840931
0.0829204
0.0809635
0.0776508
0.0717611
0.0600558
0.0293382
0.0835646
0.0841078
0.0846867
0.0851877
0.0855695
0.085832
0.0859917
0.0860648
0.0860577
0.0859591
0.085734
0.0853153
0.0845913
0.0833799
0.0813725
0.0779946
0.0720213
0.0602123
0.0293814
0.0849443
0.0852411
0.0855788
0.085888
0.0861342
0.086308
0.0864127
0.0864525
0.0864244
0.0863105
0.0860709
0.0856354
0.0848897
0.0836503
0.0816073
0.0781848
0.072158
0.0602887
0.0294008
0.0858087
0.0859737
0.0861695
0.0863561
0.0865091
0.0866181
0.0866806
0.0866939
0.0866489
0.0865227
0.0862722
0.0858244
0.0850636
0.0838049
0.081738
0.078287
0.0722278
0.0603252
0.0294093
0.0863468
0.0864385
0.0865504
0.0866598
0.086751
0.086815
0.0868471
0.0868407
0.0867828
0.0866475
0.0863891
0.0859328
0.0851618
0.0838907
0.0818086
0.0783402
0.0722624
0.0603421
0.029413
0.086676
0.0867263
0.0867888
0.0868508
0.0869023
0.0869366
0.0869479
0.0869277
0.0868607
0.0867189
0.086455
0.0859932
0.0852157
0.0839368
0.0818457
0.0783673
0.0722792
0.0603499
0.0294146
0.0868725
0.0868994
0.0869333
0.086967
0.0869942
0.0870096
0.0870073
0.086978
0.0869049
0.0867588
0.0864913
0.0860259
0.0852445
0.083961
0.0818646
0.0783806
0.0722872
0.0603533
0.0294153
0.0869865
0.0870005
0.0870182
0.0870354
0.0870481
0.0870521
0.0870415
0.0870063
0.0869293
0.0867804
0.0865107
0.0860432
0.0852594
0.0839733
0.081874
0.078387
0.0722909
0.0603549
0.0294155
0.0870508
0.0870577
0.0870664
0.0870744
0.0870789
0.0870762
0.0870606
0.087022
0.0869425
0.0867919
0.0865208
0.0860521
0.085267
0.0839794
0.0818786
0.0783901
0.0722925
0.0603555
0.0294156
0.087086
0.0870892
0.0870931
0.087096
0.087096
0.0870895
0.0870711
0.0870304
0.0869495
0.0867979
0.0865261
0.0860566
0.0852708
0.0839824
0.0818808
0.0783915
0.0722933
0.0603558
0.0294157
0.0871048
0.087106
0.0871074
0.0871077
0.0871052
0.0870967
0.0870767
0.0870349
0.0869532
0.086801
0.0865287
0.0860588
0.0852726
0.0839839
0.0818819
0.0783922
0.0722936
0.0603559
0.0294157
0.0871145
0.0871148
0.0871149
0.0871138
0.08711
0.0871005
0.0870796
0.0870372
0.086955
0.0868025
0.08653
0.0860599
0.0852735
0.0839845
0.0818823
0.0783925
0.0722938
0.060356
0.0294157
0.0871195
0.0871193
0.0871187
0.087117
0.0871125
0.0871024
0.0870811
0.0870383
0.086956
0.0868033
0.0865306
0.0860604
0.0852739
0.0839848
0.0818825
0.0783926
0.0722938
0.060356
0.0294157
0.0871219
0.0871215
0.0871206
0.0871186
0.0871138
0.0871034
0.0870818
0.0870389
0.0869564
0.0868037
0.0865309
0.0860607
0.0852741
0.083985
0.0818826
0.0783926
0.0722939
0.060356
0.0294157
0.0871231
0.0871226
0.0871216
0.0871193
0.0871144
0.0871039
0.0870822
0.0870392
0.0869567
0.0868039
0.0865311
0.0860608
0.0852742
0.0839851
0.0818827
0.0783927
0.0722939
0.060356
0.0294157
0.0871237
0.0871231
0.087122
0.0871197
0.0871147
0.0871041
0.0870824
0.0870394
0.0869568
0.0868039
0.0865311
0.0860609
0.0852742
0.0839851
0.0818827
0.0783927
0.0722939
0.060356
0.0294157
0.087124
0.0871234
0.0871222
0.0871199
0.0871148
0.0871042
0.0870825
0.0870394
0.0869568
0.086804
0.0865312
0.0860609
0.0852743
0.0839851
0.0818827
0.0783927
0.0722939
0.060356
0.0294157
0.0871241
0.0871235
0.0871223
0.08712
0.0871149
0.0871043
0.0870825
0.0870395
0.0869569
0.086804
0.0865312
0.0860609
0.0852743
0.0839851
0.0818827
0.0783927
0.0722939
0.060356
0.0294157
0.0871241
0.0871235
0.0871224
0.08712
0.0871149
0.0871043
0.0870826
0.0870395
0.0869569
0.086804
0.0865312
0.0860609
0.0852743
0.0839851
0.0818827
0.0783927
0.0722939
0.060356
0.0294157
0.0871242
0.0871236
0.0871224
0.08712
0.087115
0.0871043
0.0870826
0.0870395
0.0869569
0.086804
0.0865312
0.0860609
0.0852743
0.0839851
0.0818827
0.0783927
0.0722939
0.060356
0.0294157
0.0871242
0.0871236
0.0871224
0.08712
0.087115
0.0871043
0.0870826
0.0870395
0.0869569
0.086804
0.0865312
0.0860609
0.0852743
0.0839851
0.0818827
0.0783927
0.0722939
0.060356
0.0294157
0.0871242
0.0871236
0.0871224
0.08712
0.087115
0.0871043
0.0870826
0.0870395
0.0869569
0.086804
0.0865312
0.0860609
0.0852743
0.0839851
0.0818827
0.0783927
0.0722939
0.060356
0.0294157
0.0871242
0.0871236
0.0871224
0.08712
0.087115
0.0871043
0.0870826
0.0870395
0.0869569
0.086804
0.0865312
0.0860609
0.0852743
0.0839851
0.0818827
0.0783927
0.0722939
0.060356
0.0294157
0.0871242
0.0871236
0.0871224
0.08712
0.087115
0.0871043
0.0870826
0.0870395
0.0869569
0.086804
0.0865312
0.0860609
0.0852743
0.0839851
0.0818827
0.0783927
0.0722939
0.060356
0.0294157
0.0871242
0.0871236
0.0871224
0.08712
0.087115
0.0871043
0.0870826
0.0870395
0.0869569
0.086804
0.0865312
0.0860609
0.0852743
0.0839851
0.0818827
0.0783927
0.0722939
0.060356
0.0294157
0.0871242
0.0871236
0.0871224
0.08712
0.087115
0.0871043
0.0870826
0.0870395
0.0869569
0.086804
0.0865312
0.0860609
0.0852743
0.0839851
0.0818827
0.0783927
0.0722939
0.060356
0.0294157
0.0871242
0.0871236
0.0871224
0.08712
0.087115
0.0871043
0.0870826
0.0870395
0.0869569
0.086804
0.0865312
0.0860609
0.0852743
0.0839851
0.0818827
0.0783927
0.0722939
0.060356
0.0294157
0.0871242
0.0871236
0.0871224
0.08712
0.087115
0.0871043
0.0870826
0.0870395
0.0869569
0.086804
0.0865312
0.0860609
0.0852743
0.0839851
0.0818827
0.0783927
0.0722939
0.060356
0.0294157
0.0871242
0.0871236
0.0871224
0.08712
0.087115
0.0871043
0.0870826
0.0870395
0.0869569
0.086804
0.0865312
0.0860609
0.0852743
0.0839851
0.0818827
0.0783927
0.0722939
0.060356
0.0294157
0.0871242
0.0871236
0.0871224
0.08712
0.087115
0.0871043
0.0870826
0.0870395
0.0869569
0.086804
0.0865312
0.0860609
0.0852743
0.0839851
0.0818827
0.0783927
0.0722939
0.060356
0.0294157
0.0871242
0.0871236
0.0871224
0.08712
0.087115
0.0871043
0.0870826
0.0870395
0.0869569
0.086804
0.0865312
0.0860609
0.0852743
0.0839851
0.0818827
0.0783927
0.0722939
0.060356
0.0294157
0.0871242
0.0871236
0.0871224
0.08712
0.087115
0.0871043
0.0870826
0.0870395
0.0869569
0.086804
0.0865312
0.0860609
0.0852743
0.0839851
0.0818827
0.0783927
0.0722939
0.060356
0.0294157
0.0871242
0.0871236
0.0871224
0.08712
0.087115
0.0871043
0.0870826
0.0870395
0.0869569
0.086804
0.0865312
0.0860609
0.0852743
0.0839851
0.0818827
0.0783927
0.0722939
0.060356
0.0294157
0.0871242
0.0871236
0.0871224
0.08712
0.087115
0.0871043
0.0870826
0.0870395
0.0869569
0.086804
0.0865312
0.0860609
0.0852743
0.0839851
0.0818827
0.0783927
0.0722939
0.060356
0.0294157
0.0871242
0.0871236
0.0871224
0.08712
0.087115
0.0871043
0.0870826
0.0870395
0.0869569
0.086804
0.0865312
0.0860609
0.0852743
0.0839851
0.0818827
0.0783927
0.0722939
0.060356
0.0294157
0.0871242
0.0871236
0.0871224
0.08712
0.087115
0.0871043
0.0870826
0.0870395
0.0869569
0.086804
0.0865312
0.0860609
0.0852743
0.0839851
0.0818827
0.0783927
0.0722939
0.060356
0.0294157
0.0871241
0.0871235
0.0871224
0.08712
0.087115
0.0871043
0.0870826
0.0870395
0.0869569
0.086804
0.0865312
0.0860609
0.0852743
0.0839851
0.0818827
0.0783927
0.0722939
0.060356
0.0294157
0.0871241
0.0871235
0.0871224
0.08712
0.087115
0.0871043
0.0870826
0.0870395
0.0869569
0.086804
0.0865312
0.0860609
0.0852743
0.0839851
0.0818827
0.0783927
0.0722939
0.060356
0.0294157
0.0871241
0.0871235
0.0871224
0.08712
0.087115
0.0871043
0.0870826
0.0870395
0.0869569
0.086804
0.0865312
0.0860609
0.0852743
0.0839851
0.0818827
0.0783927
0.0722939
0.060356
0.0294157
)
;

boundaryField
{
    leftWall
    {
        type            kqRWallFunction;
        value           nonuniform List<scalar> 
50
(
0.0113509
0.0176578
0.0207279
0.0227646
0.0242045
0.0252433
0.0259955
0.0265389
0.027152
0.0275642
0.0277639
0.027858
0.0279012
0.0279205
0.027929
0.0279326
0.0279342
0.0279349
0.0279351
0.0279352
0.0279353
0.0279353
0.0279353
0.0279353
0.0279353
0.0279353
0.0279353
0.0279353
0.0279353
0.0279353
0.0279353
0.0279353
0.0279353
0.0279353
0.0279353
0.0279353
0.0279353
0.0279353
0.0279353
0.0279353
0.0279353
0.0279353
0.0279353
0.0279353
0.0279353
0.0279353
0.0279353
0.0279353
0.0279353
0.0279353
)
;
    }
    rightWall
    {
        type            kqRWallFunction;
        value           nonuniform List<scalar> 
50
(
0.0121852
0.0190829
0.0222441
0.0242861
0.025714
0.0267425
0.0274879
0.0280271
0.0286357
0.0290454
0.0292442
0.0293382
0.0293814
0.0294008
0.0294093
0.029413
0.0294146
0.0294153
0.0294155
0.0294156
0.0294157
0.0294157
0.0294157
0.0294157
0.0294157
0.0294157
0.0294157
0.0294157
0.0294157
0.0294157
0.0294157
0.0294157
0.0294157
0.0294157
0.0294157
0.0294157
0.0294157
0.0294157
0.0294157
0.0294157
0.0294157
0.0294157
0.0294157
0.0294157
0.0294157
0.0294157
0.0294157
0.0294157
0.0294157
0.0294157
)
;
    }
    lowerWall
    {
        type            kqRWallFunction;
        value           nonuniform List<scalar> 
62
(
0.0113509
0.0141284
0.0172691
0.0189629
0.0198563
0.020315
0.0205423
0.0206508
0.0207008
0.0207232
0.0207327
0.0207362
0.0207359
0.0207313
0.0207182
0.0206854
0.0206065
0.0204244
0.020022
0.0191744
0.0174718
0.0141828
0.00834861
0.00834861
0.0172201
0.0207541
0.0230575
0.0248662
0.0266863
0.0296107
0.0376223
0.0393948
0.0331201
0.0330758
0.0391462
0.00875351
0.0185161
0.0222229
0.0245674
0.0263865
0.028249
0.0313094
0.0393507
0.00875351
0.0147409
0.0179599
0.0195182
0.0202311
0.0205382
0.020663
0.0207109
0.0207272
0.020729
0.0207193
0.0206902
0.0206189
0.0204536
0.0200878
0.0193146
0.0177442
0.0146682
0.0121852
)
;
    }
    atmosphere
    {
        type            inletOutlet;
        inletValue      uniform 0.1;
        value           nonuniform List<scalar> 
46
(
0.0279353
0.0584433
0.0705576
0.0769493
0.0807281
0.0830878
0.0845983
0.08557
0.086189
0.0865757
0.086811
0.0869502
0.08703
0.0870745
0.0870986
0.0871113
0.0871178
0.0871212
0.0871228
0.0871236
0.087124
0.0871242
0.0871244
0.0871245
0.0871245
0.0871245
0.0871244
0.0871241
0.0871235
0.0871224
0.08712
0.087115
0.0871043
0.0870826
0.0870395
0.0869569
0.086804
0.0865312
0.0860609
0.0852743
0.0839851
0.0818827
0.0783927
0.0722939
0.060356
0.0294157
)
;
    }
    defaultFaces
    {
        type            empty;
    }
}


// ************************************************************************* //
