/*--------------------------------*- C++ -*----------------------------------*\
| =========                 |                                                 |
| \\      /  F ield         | OpenFOAM: The Open Source CFD Toolbox           |
|  \\    /   O peration     | Version:  2406                                  |
|   \\  /    A nd           | Website:  www.openfoam.com                      |
|    \\/     M anipulation  |                                                 |
\*---------------------------------------------------------------------------*/
FoamFile
{
    version     2.0;
    format      ascii;
    arch        "LSB;label=32;scalar=64";
    class       volScalarField;
    location    "0.15";
    object      nut;
}
// * * * * * * * * * * * * * * * * * * * * * * * * * * * * * * * * * * * * * //

dimensions      [0 2 -1 0 0 0 0];

internalField   nonuniform List<scalar> 
2268
(
0.000289337
0.000213038
0.000213038
0.000213038
0.000213038
0.000213038
0.000213038
0.000213038
0.000213038
0.000213038
0.000213038
0.000213038
0.000213038
7.13438e-05
7.44011e-05
8.09899e-05
8.43607e-05
8.56698e-05
8.53009e-05
8.30842e-05
7.82167e-05
6.85964e-05
4.83071e-05
0.000450785
0.000254306
0.000232321
0.000225511
0.000222385
0.000220635
0.000219545
0.000218827
0.000218345
0.000218026
0.00021783
0.000217737
0.000217737
0.000267835
0.000570382
0.00070328
0.000765721
0.000789897
0.000784238
0.000746556
0.000664198
0.000503649
0.000153085
0.000450785
0.000288167
0.000251962
0.000238672
0.000232268
0.000228639
0.000226375
0.000224886
0.000223885
0.000223224
0.000222819
0.000222627
0.000222627
0.000372522
0.000930819
0.00125882
0.00142665
0.00149426
0.00148145
0.0013847
0.0011802
0.000814801
0.000171639
0.000450785
0.000314823
0.000270613
0.00025196
0.00024245
0.000236938
0.000233468
0.000231177
0.000229636
0.000228617
0.000227993
0.000227696
0.000227696
0.000444528
0.00118457
0.0017008
0.001989
0.00211121
0.00209394
0.0019336
0.00160149
0.00104246
0.000183851
0.000450785
0.000335499
0.000287639
0.000264954
0.00025271
0.000245414
0.000240758
0.000237661
0.00023557
0.000234185
0.000233336
0.000232933
0.000232933
0.000498669
0.00137832
0.00206662
0.00248118
0.00266683
0.00265022
0.00242815
0.00197144
0.00123123
0.000193615
0.000450785
0.000351572
0.000302834
0.000277373
0.000262867
0.000253958
0.000248177
0.000244295
0.00024166
0.000239908
0.000238833
0.000238321
0.000238321
0.00054113
0.00153241
0.00237489
0.00291594
0.00317195
0.00316366
0.00288794
0.00231705
0.00140679
0.00020349
0.000450785
0.000364209
0.000316232
0.000289058
0.00027278
0.000262476
0.000255663
0.000251036
0.000247874
0.000245764
0.000244465
0.000243846
0.000243846
0.000575355
0.00165732
0.00263537
0.00329788
0.00362892
0.0036392
0.00332556
0.00266167
0.00159441
0.000218326
0.000450785
0.000374291
0.00032798
0.000299934
0.000282354
0.000270887
0.000263159
0.000257844
0.000254183
0.000251727
0.000250212
0.000249487
0.000249487
0.00060369
0.00176045
0.00285552
0.00363006
0.00403829
0.00407972
0.00375227
0.00303387
0.00184285
0.000252575
4.97408e-05
7.03394e-05
7.9815e-05
8.4546e-05
8.68883e-05
8.79763e-05
8.84431e-05
8.8628e-05
8.86918e-05
8.8698e-05
8.86574e-05
8.85398e-05
8.82587e-05
8.76317e-05
8.63197e-05
8.37497e-05
7.89421e-05
6.98313e-05
8.28804e-05
0.000176877
0.000532451
0.000691477
0.000772344
0.000812897
0.000831898
0.000840121
0.000843407
0.000844547
0.00084465
0.000843898
0.000841752
0.000836691
0.000825538
0.000802476
0.000757854
0.000675655
0.000520824
0.000179363
0.000197612
0.000874755
0.00124755
0.00145354
0.00156124
0.00161287
0.00163557
0.00164475
0.00164796
0.00164821
0.00164599
0.00163975
0.00162529
0.00159399
0.00153063
0.00141162
0.00120312
0.000845982
0.000197179
0.000211031
0.00112954
0.00171172
0.0020537
0.00223905
0.00233016
0.00237106
0.00238791
0.00239384
0.00239421
0.00238982
0.00237779
0.00235045
0.00229255
0.00217831
0.0019707
0.00162404
0.00107467
0.000208735
0.000221751
0.00134352
0.00212618
0.00260572
0.00287311
0.00300769
0.0030694
0.0030953
0.00310448
0.00310487
0.00309751
0.00307785
0.00303405
0.00294342
0.00276924
0.0024629
0.00197352
0.00124683
0.000216914
0.000232842
0.00154397
0.00251731
0.00312769
0.00347535
0.00365424
0.00373807
0.00377393
0.00378672
0.00378691
0.00377569
0.00374642
0.00368255
0.00355342
0.00331184
0.0029003
0.0022687
0.00138081
0.000222955
0.00024987
0.00175729
0.00290702
0.00363
0.00404858
0.00426877
0.00437436
0.00442044
0.00443696
0.00443662
0.00442053
0.00437963
0.00429224
0.0041198
0.00380592
0.00328745
0.00251954
0.00148733
0.000227512
0.000287681
0.00203214
0.00332076
0.00412129
0.00459325
0.00484773
0.00497296
0.00502882
0.0050489
0.00504759
0.00502554
0.00497097
0.00485699
0.0046378
0.00425006
0.00362847
0.00273558
0.00157523
0.00023102
0.000450785
0.000387195
0.000344346
0.000315957
0.00029696
0.000284003
0.000275004
0.000268694
0.000264291
0.000261313
0.000259465
0.00025858
0.00025858
0.000642315
0.00189921
0.0031524
0.00408805
0.00462255
0.00473892
0.00444148
0.00374198
0.00267158
0.00134797
0.000450785
0.000399214
0.000361272
0.000333995
0.000314485
0.00030048
0.000290381
0.000283102
0.000277924
0.000274375
0.000272155
0.000271086
0.000271086
0.000679805
0.00201111
0.00339888
0.00449447
0.00518137
0.00542905
0.005254
0.00470536
0.00387009
0.00289262
0.000450785
0.00040801
0.000374623
0.000349178
0.000330023
0.000315685
0.000304998
0.000297101
0.000291378
0.000287403
0.000284894
0.000283681
0.000283681
0.000710028
0.00208238
0.0035542
0.00476563
0.00558397
0.00597318
0.00595972
0.00561386
0.0050441
0.0044009
0.000450785
0.000414732
0.000385377
0.000362022
0.000343729
0.000329561
0.0003187
0.000310494
0.000304444
0.00030019
0.000297481
0.000296165
0.000296165
0.000736326
0.00213179
0.00365516
0.00494685
0.0058697
0.00638791
0.00653448
0.00638755
0.00605541
0.00566862
0.000450785
0.000420036
0.000394197
0.000372956
0.000355795
0.000342129
0.000331404
0.000323141
0.000316956
0.000312556
0.000309734
0.000308355
0.000308355
0.000760068
0.00216853
0.00372273
0.00506749
0.00606686
0.00668777
0.00696699
0.00698299
0.00683423
0.00662482
0.000450785
0.000424322
0.000401534
0.00038232
0.000366409
0.00035345
0.000343076
0.00033495
0.000328786
0.000324356
0.000321494
0.00032009
0.00032009
0.000781835
0.00219756
0.00376948
0.00514743
0.0061983
0.00689208
0.00726738
0.00739979
0.00737608
0.00727727
0.000450785
0.000427845
0.000407703
0.000390374
0.000375738
0.000363595
0.000353713
0.000345863
0.000339839
0.000335471
0.000332631
0.000331233
0.000331233
0.000801859
0.00222157
0.00380311
0.00520047
0.00628314
0.00702354
0.00746098
0.0076676
0.0077203
0.00768333
0.000450785
0.000430773
0.000412926
0.000397319
0.000383924
0.000372642
0.000363333
0.000355851
0.000350052
0.000345815
0.000343044
0.000341675
0.000341676
0.000820222
0.00224207
0.00382837
0.00523616
0.00633674
0.00710419
0.00757798
0.00782743
0.00792252
0.00791675
0.000450785
0.000433226
0.000417364
0.000403309
0.000391087
0.000380663
0.000371965
0.000364902
0.000359383
0.000355323
0.000352656
0.000351335
0.000351335
0.000836945
0.00225991
0.00384819
0.00526094
0.00637056
0.00715217
0.00764528
0.00791731
0.00803397
0.00804256
0.000450785
0.000435288
0.00042114
0.000408467
0.000397327
0.000387728
0.000379642
0.000373021
0.000367811
0.000363957
0.000361415
0.000360153
0.000360153
0.000852036
0.00227559
0.00386436
0.005279
0.00639247
0.00718059
0.0076829
0.00796577
0.00809253
0.00810718
0.000450785
0.000437021
0.000424345
0.000412889
0.00040273
0.0003939
0.000386404
0.000380224
0.000375331
0.000371695
0.000369289
0.000368091
0.000368091
0.000865509
0.00228941
0.00387804
0.00529304
0.00640761
0.00719804
0.00770404
0.00799148
0.00812247
0.00813938
0.000450785
0.000438473
0.000427052
0.000416655
0.000407366
0.000399237
0.000392291
0.000386531
0.000381949
0.00037853
0.000376261
0.000375129
0.000375129
0.000877402
0.00230166
0.00389011
0.00530494
0.00641935
0.00720995
0.00771675
0.00800551
0.00813783
0.0081553
0.000450785
0.00043968
0.000429318
0.000419827
0.000411298
0.000403791
0.000397342
0.000391969
0.000387677
0.000384465
0.000382327
0.00038126
0.00038126
0.000887797
0.00231276
0.0039016
0.00531651
0.00643033
0.00721995
0.0077259
0.00801419
0.0081463
0.00816347
0.000450785
0.00044067
0.000431187
0.000422458
0.000414576
0.000407607
0.000401594
0.000396565
0.000392535
0.00038951
0.000387494
0.000386486
0.000386486
0.000896894
0.00232359
0.0039144
0.00533042
0.00644358
0.00723123
0.00773488
0.00802126
0.00815203
0.00816824
0.000450785
0.000441466
0.000432695
0.000424591
0.000417245
0.000410725
0.000405081
0.000400346
0.000396542
0.000393681
0.000391771
0.000390815
0.000390815
0.000905217
0.0023363
0.00393257
0.00535164
0.0064638
0.00724766
0.00774681
0.00802938
0.00815744
0.0081719
0.000450785
0.000442083
0.00043387
0.000426258
0.000419338
0.000413179
0.000407833
0.000403338
0.000399719
0.000396993
0.00039517
0.000394258
0.000394258
0.00091428
0.00235637
0.00396521
0.00538991
0.006499
0.00727485
0.00776533
0.00804092
0.00816425
0.00817578
0.000450785
0.000442536
0.000434733
0.000427486
0.000420884
0.000414995
0.000409875
0.000405562
0.000402084
0.000399461
0.000397706
0.000396827
0.000396828
0.000928902
0.00239831
0.00403251
0.00546355
0.00656216
0.00732069
0.00779481
0.00805826
0.00817378
0.00818073
0.000450785
0.000442833
0.000435301
0.000428295
0.000421903
0.000416195
0.000411225
0.000407034
0.000403652
0.000401099
0.00039939
0.000398534
0.000398534
0.000966697
0.00250286
0.00417775
0.00560373
0.00667142
0.00739449
0.00783968
0.00808343
0.00818702
0.00818724
0.000450785
0.00044298
0.000435582
0.000428696
0.000422409
0.000416791
0.000411897
0.000407767
0.000404433
0.000401916
0.00040023
0.000399385
0.000399385
0.00111001
0.00279118
0.00448512
0.00585306
0.00684506
0.00750324
0.0079024
0.00811725
0.00820422
0.00819545
0.000450785
0.00044298
0.000435582
0.000428696
0.000422409
0.000416792
0.000411897
0.000407768
0.000404433
0.000401916
0.00040023
0.000399385
0.000811438
0.00204539
0.00360101
0.00506248
0.00623763
0.0070859
0.00764479
0.00798073
0.00815829
0.00822466
0.00820502
0.000218066
0.000621033
0.000784853
0.000866098
0.000906191
0.000924048
0.000930339
0.000931652
0.000932945
0.000940926
0.000974282
0.00111611
0.0020502
0.00328927
0.0045888
0.00575831
0.00669066
0.00736207
0.00780332
0.00806684
0.00820279
0.0082466
0.0082152
0.000193471
0.00109404
0.00162555
0.0019412
0.0021317
0.00224319
0.00230586
0.002342
0.00237049
0.00241423
0.00251874
0.00280718
0.00361311
0.00459505
0.005581
0.00645101
0.00713949
0.00763411
0.00795858
0.00815081
0.00824608
0.00826792
0.00822511
0.000200798
0.00138058
0.00228952
0.00291606
0.00333741
0.00360826
0.00377469
0.00387723
0.00395268
0.00404013
0.00419425
0.00450453
0.00507878
0.00576907
0.00645589
0.0070574
0.00753156
0.00787176
0.00809443
0.00822451
0.00828424
0.00828682
0.00823394
0.000206175
0.00153516
0.00271158
0.00361391
0.00427233
0.00472415
0.00501663
0.00520154
0.00532939
0.0054489
0.00561088
0.00586875
0.0062536
0.00670311
0.00714736
0.0075352
0.0078406
0.00805968
0.00820245
0.00828355
0.00831509
0.00830225
0.00824123
0.000209191
0.00161887
0.00296148
0.00406394
0.00491621
0.00552952
0.00594134
0.00620566
0.00637996
0.00651728
0.00666341
0.00685332
0.00709915
0.00737485
0.00764428
0.00787887
0.00806364
0.00819612
0.00828154
0.00832724
0.0083382
0.00831397
0.00824685
0.000210779
0.00166307
0.00310163
0.00433273
0.00532149
0.00605681
0.00656331
0.00689173
0.00710152
0.00724734
0.00737246
0.00750549
0.00765693
0.00781819
0.007973
0.00810713
0.00821272
0.00828813
0.00833547
0.00835743
0.0083544
0.00832233
0.00825094
0.000211573
0.00168545
0.00317613
0.00448289
0.00555769
0.00637435
0.00694652
0.0073202
0.00755432
0.00770405
0.00781207
0.00790592
0.00799836
0.00809001
0.00817543
0.00824865
0.00830599
0.00834636
0.00837008
0.00837712
0.00836517
0.008328
0.00825378
0.000211952
0.00169629
0.00321376
0.00456193
0.00568648
0.00655231
0.00716551
0.00756796
0.00781742
0.00796913
0.00806596
0.00813602
0.00819439
0.00824657
0.00829277
0.00833144
0.0083612
0.00838132
0.00839123
0.0083894
0.00837206
0.00833174
0.00825575
0.000212126
0.00170134
0.00323195
0.0046015
0.0057529
0.00664625
0.00728307
0.00770239
0.0079609
0.00811379
0.00820427
0.00826117
0.00830116
0.00833229
0.00835759
0.00837773
0.00839255
0.00840157
0.00840378
0.00839692
0.00837646
0.00833429
0.00825721
0.000212204
0.00170363
0.00324047
0.00462059
0.00578576
0.00669366
0.00734329
0.00777193
0.00803553
0.0081892
0.00827642
0.00832657
0.00835721
0.00837767
0.00839235
0.008403
0.00841009
0.00841327
0.00841137
0.00840176
0.00837956
0.00833632
0.00825859
0.000212239
0.00170467
0.00324446
0.00462976
0.00580186
0.00671727
0.00737362
0.00780725
0.00807364
0.00822786
0.00831355
0.00836043
0.00838653
0.00840181
0.00841129
0.00841726
0.00842048
0.00842069
0.00841664
0.00840558
0.00838241
0.00833855
0.00826042
0.000212258
0.00170521
0.00324658
0.00463466
0.00581049
0.00672995
0.00738996
0.0078263
0.00809426
0.00824888
0.00833392
0.00837928
0.00840325
0.00841608
0.0084231
0.00842681
0.00842813
0.00842686
0.00842171
0.00840986
0.00838615
0.00834191
0.00826352
0.000212274
0.00170568
0.00324834
0.00463856
0.00581707
0.00673923
0.00740155
0.00783957
0.00810847
0.00826338
0.00834815
0.00839282
0.0084158
0.00842749
0.00843334
0.00843598
0.00843637
0.00843435
0.00842862
0.00841634
0.0083923
0.00834781
0.00826923
0.000212303
0.00170648
0.0032511
0.00464415
0.00582571
0.00675053
0.00741478
0.00785398
0.00812346
0.00827851
0.00836312
0.00840741
0.00842989
0.00844102
0.00844631
0.00844841
0.00844834
0.00844593
0.00843988
0.00842734
0.00840311
0.00835848
0.00827981
0.000212372
0.0017083
0.00325701
0.00465522
0.00584152
0.00676972
0.00743582
0.00787573
0.00814528
0.00830009
0.00838436
0.00842829
0.00845041
0.0084612
0.00846617
0.00846799
0.00846766
0.00846504
0.00845882
0.00844617
0.0084219
0.00837733
0.00829886
0.00021255
0.00171285
0.00327069
0.00467905
0.00587322
0.00680563
0.00747286
0.00791215
0.00818047
0.0083341
0.00841744
0.00846071
0.00848238
0.00849284
0.00849757
0.00849922
0.00849876
0.00849605
0.00848982
0.00847725
0.00845323
0.0084092
0.00833168
0.000213024
0.00172444
0.00330292
0.00473087
0.00593705
0.00687295
0.00753796
0.00797279
0.00823675
0.00838703
0.00846815
0.00851005
0.00853092
0.00854094
0.00854542
0.00854694
0.00854645
0.0085438
0.00853776
0.00852562
0.00850244
0.00845992
0.00838495
0.00021432
0.0017544
0.00337863
0.0048421
0.00606284
0.00699543
0.00764814
0.00806935
0.00832224
0.00846494
0.0085414
0.00858064
0.00860008
0.00860937
0.00861352
0.00861494
0.00861452
0.00861211
0.00860659
0.00859544
0.00857408
0.00853476
0.00846522
0.000217968
0.00183166
0.00355388
0.00507458
0.0063015
0.00720783
0.0078243
0.00821326
0.00844283
0.00857072
0.00863857
0.00867314
0.00869017
0.0086983
0.00870195
0.00870325
0.00870298
0.00870103
0.00869642
0.00868699
0.00866878
0.00863509
0.0085752
0.000228708
0.00202422
0.00394706
0.00553961
0.00672864
0.00755142
0.00808459
0.00840975
0.00859722
0.00869999
0.00875391
0.00878118
0.00879455
0.00880093
0.00880384
0.00880494
0.00880485
0.0088035
0.00880015
0.00879315
0.0087795
0.00875404
0.00870856
0.000265324
0.00247208
0.00479848
0.00641403
0.00742989
0.00805396
0.00842955
0.00864858
0.00877149
0.00883777
0.0088722
0.00888951
0.00889798
0.00890203
0.0089039
0.00890465
0.00890468
0.00890395
0.00890201
0.00889788
0.00888971
0.00887437
0.00884681
0.000417182
0.00367519
0.00672541
0.00793806
0.00843887
0.00868643
0.00882148
0.00889683
0.00893822
0.0089603
0.00897171
0.00897744
0.00898024
0.00898159
0.00898222
0.00898248
0.00898251
0.0089823
0.00898172
0.00898044
0.00897788
0.00897302
0.00896409
0.000263038
0.000239074
0.000238945
0.000262411
0.0021863
0.00205594
0.00205621
0.00218082
0.00401856
0.00389452
0.00389882
0.00402512
0.00544974
0.00537214
0.00537947
0.00546717
0.00649759
0.0064515
0.00645999
0.00651963
0.00719704
0.00716603
0.00717491
0.00721998
0.00762308
0.00759707
0.00760618
0.00764574
0.00786288
0.0078374
0.00784674
0.00788526
0.00798967
0.00796344
0.00797299
0.008012
0.00805376
0.00802673
0.00803642
0.0080761
0.00808527
0.00805768
0.00806743
0.00810756
0.00810062
0.00807269
0.00808242
0.00812277
0.00810828
0.00808008
0.00808973
0.00813014
0.00811246
0.00808398
0.00809347
0.00813382
0.00811529
0.00808641
0.00809566
0.00813586
0.00811788
0.00808843
0.0080973
0.00813725
0.0081209
0.00809059
0.0080989
0.00813848
0.0081247
0.00809319
0.00810073
0.00813981
0.00812936
0.00809632
0.00810288
0.00814132
0.00813474
0.00809988
0.00810528
0.00814299
0.00814043
0.00810364
0.00810781
0.00814473
0.00814597
0.00810729
0.00811027
0.00814642
0.00815093
0.00811058
0.00811249
0.00814796
0.00815506
0.00811333
0.00811436
0.00814926
0.00815828
0.00811549
0.00811585
0.0081503
0.00816066
0.00811711
0.00811697
0.0081511
0.00816235
0.00811829
0.00811781
0.00815172
0.00816358
0.00811918
0.00811848
0.00815223
0.00816458
0.00811997
0.00811913
0.00815277
0.00816567
0.00812093
0.00811998
0.00815355
0.00816731
0.00812246
0.00812143
0.00815494
0.00817026
0.00812532
0.00812421
0.00815764
0.00817586
0.00813082
0.0081296
0.00816291
0.00818642
0.0081413
0.00813993
0.00817304
0.00820577
0.00816067
0.00815908
0.00819183
0.0082397
0.00819494
0.00819311
0.0082252
0.00829592
0.00825232
0.00825032
0.00828122
0.00838253
0.00834175
0.00833981
0.00836862
0.00850401
0.00846869
0.00846719
0.00849252
0.00865483
0.00862811
0.00862739
0.00864732
0.00881487
0.00879901
0.00879896
0.00881156
0.00895405
0.0089493
0.00894944
0.00895373
0.00142134
0.00287717
0.00407698
0.00491061
0.00543107
0.00572566
0.00587746
0.00594776
0.00597304
0.00596909
0.00593514
0.0058545
0.0056921
0.0053927
0.00488706
0.00411281
0.00304405
0.00169945
0.000235379
0.00295958
0.00408832
0.00508012
0.00582428
0.00631795
0.00661229
0.00677109
0.00684702
0.0068732
0.0068633
0.00681299
0.00669924
0.00647812
0.00608577
0.0054501
0.00451717
0.0032808
0.00178608
0.000238423
0.00447296
0.00526328
0.00600747
0.00659759
0.00700735
0.00726154
0.00740334
0.00747213
0.00749333
0.00747572
0.00741037
0.00726856
0.00699964
0.00653427
0.00580059
0.00475445
0.00340815
0.00182792
0.000239904
0.00574548
0.00627011
0.00678692
0.00721295
0.00751892
0.00771451
0.00782618
0.00788004
0.00789263
0.00786685
0.00778913
0.00762613
0.00732253
0.00680601
0.00600627
0.00488748
0.00347524
0.00184836
0.000240615
0.00670413
0.00704405
0.00738282
0.00766833
0.00787816
0.0080152
0.00809442
0.00813124
0.00813429
0.00810108
0.0080141
0.00783654
0.0075101
0.00696091
0.00612041
0.00495862
0.0035094
0.00185818
0.00024095
0.00735843
0.0075838
0.00779981
0.00798159
0.00811648
0.00820557
0.00825692
0.00827851
0.00827305
0.00823386
0.00814043
0.0079536
0.00761322
0.00704469
0.00618075
0.00499508
0.00352623
0.0018628
0.000241104
0.00776684
0.00792898
0.00806914
0.00818276
0.00826611
0.0083209
0.00835155
0.00836145
0.0083494
0.00830582
0.00820817
0.00801576
0.00766736
0.00708804
0.00621137
0.0050131
0.00353427
0.00186492
0.000241174
0.00800284
0.00813375
0.00823125
0.00830416
0.0083554
0.00838802
0.00840484
0.0084067
0.00839002
0.00834345
0.00824316
0.00804754
0.00769475
0.00710967
0.00622639
0.00502175
0.00353802
0.00186588
0.000241205
0.00813083
0.00824776
0.00832311
0.00837353
0.00840628
0.0084257
0.008434
0.00843076
0.00841109
0.00836261
0.00826074
0.00806333
0.0077082
0.00712017
0.00623356
0.0050258
0.00353973
0.0018663
0.000241218
0.00819687
0.00830805
0.0083726
0.00841137
0.00843414
0.00844617
0.00844957
0.0084433
0.00842181
0.00837217
0.00826938
0.00807099
0.00771465
0.00712514
0.00623691
0.00502765
0.00354049
0.00186648
0.000241224
0.00822971
0.00833866
0.00839819
0.00843122
0.00844887
0.00845699
0.00845771
0.00844972
0.00842718
0.00837687
0.00827355
0.00807465
0.0077177
0.00712746
0.00623844
0.00502849
0.00354083
0.00186656
0.000241226
0.00824566
0.00835374
0.008411
0.0084413
0.00845644
0.00846257
0.00846188
0.00845297
0.00842985
0.00837915
0.00827555
0.00807637
0.00771911
0.00712852
0.00623914
0.00502886
0.00354098
0.00186659
0.000241227
0.00825332
0.00836102
0.00841727
0.0084463
0.00846023
0.00846538
0.00846398
0.00845458
0.00843115
0.00838025
0.0082765
0.00807718
0.00771977
0.007129
0.00623945
0.00502903
0.00354104
0.00186661
0.000241228
0.00825703
0.00836452
0.00842029
0.00844874
0.0084621
0.00846678
0.00846502
0.00845538
0.00843179
0.00838078
0.00827694
0.00807755
0.00772006
0.00712922
0.00623959
0.0050291
0.00354107
0.00186661
0.000241228
0.00825894
0.00836623
0.00842175
0.00844992
0.00846301
0.00846746
0.00846553
0.00845577
0.00843209
0.00838103
0.00827715
0.00807772
0.0077202
0.00712932
0.00623965
0.00502913
0.00354108
0.00186662
0.000241228
0.00826006
0.00836714
0.00842248
0.00845049
0.00846345
0.00846779
0.00846578
0.00845596
0.00843224
0.00838115
0.00827725
0.0080778
0.00772026
0.00712936
0.00623968
0.00502914
0.00354109
0.00186662
0.000241228
0.0082609
0.00836769
0.00842288
0.00845079
0.00846367
0.00846795
0.0084659
0.00845605
0.00843231
0.0083812
0.00827729
0.00807784
0.00772029
0.00712938
0.00623969
0.00502915
0.00354109
0.00186662
0.000241228
0.00826168
0.00836812
0.00842313
0.00845096
0.00846379
0.00846804
0.00846596
0.00845609
0.00843234
0.00838123
0.00827731
0.00807785
0.0077203
0.00712939
0.0062397
0.00502915
0.00354109
0.00186662
0.000241228
0.00826251
0.00836852
0.00842334
0.00845107
0.00846385
0.00846808
0.00846599
0.00845612
0.00843236
0.00838124
0.00827732
0.00807786
0.00772031
0.00712939
0.0062397
0.00502915
0.00354109
0.00186662
0.000241228
0.00826339
0.00836892
0.00842352
0.00845116
0.0084639
0.00846811
0.008466
0.00845613
0.00843237
0.00838125
0.00827733
0.00807786
0.00772031
0.0071294
0.0062397
0.00502915
0.00354109
0.00186662
0.000241228
0.0082643
0.00836932
0.0084237
0.00845124
0.00846394
0.00846813
0.00846601
0.00845613
0.00843237
0.00838125
0.00827733
0.00807787
0.00772031
0.0071294
0.0062397
0.00502915
0.00354109
0.00186662
0.000241228
0.00826519
0.0083697
0.00842386
0.00845131
0.00846397
0.00846814
0.00846602
0.00845614
0.00843238
0.00838125
0.00827733
0.00807787
0.00772031
0.0071294
0.0062397
0.00502915
0.00354109
0.00186662
0.000241228
0.00826599
0.00837005
0.00842401
0.00845138
0.008464
0.00846816
0.00846603
0.00845614
0.00843238
0.00838125
0.00827733
0.00807787
0.00772031
0.0071294
0.0062397
0.00502915
0.00354109
0.00186662
0.000241228
0.00826668
0.00837036
0.00842415
0.00845144
0.00846403
0.00846817
0.00846604
0.00845615
0.00843238
0.00838125
0.00827733
0.00807787
0.00772031
0.0071294
0.0062397
0.00502915
0.00354109
0.00186662
0.000241228
0.00826724
0.00837061
0.00842426
0.00845149
0.00846406
0.00846818
0.00846605
0.00845615
0.00843239
0.00838126
0.00827733
0.00807787
0.00772031
0.0071294
0.0062397
0.00502915
0.00354109
0.00186662
0.000241228
0.00826768
0.00837082
0.00842437
0.00845155
0.00846409
0.00846821
0.00846606
0.00845617
0.0084324
0.00838127
0.00827734
0.00807788
0.00772032
0.0071294
0.0062397
0.00502915
0.00354109
0.00186662
0.000241228
0.00826804
0.00837102
0.00842448
0.00845162
0.00846414
0.00846825
0.0084661
0.0084562
0.00843242
0.00838129
0.00827736
0.00807789
0.00772032
0.00712941
0.0062397
0.00502915
0.00354109
0.00186662
0.000241228
0.00826838
0.00837124
0.00842464
0.00845175
0.00846425
0.00846834
0.00846618
0.00845626
0.00843248
0.00838133
0.00827739
0.00807791
0.00772034
0.00712942
0.00623971
0.00502916
0.00354109
0.00186662
0.000241228
0.00826881
0.00837157
0.00842492
0.00845199
0.00846446
0.00846853
0.00846634
0.00845641
0.0084326
0.00838144
0.00827748
0.00807798
0.00772039
0.00712945
0.00623973
0.00502916
0.00354109
0.00186662
0.000241228
0.00826949
0.00837218
0.00842547
0.00845249
0.00846492
0.00846894
0.00846671
0.00845673
0.00843288
0.00838167
0.00827767
0.00807813
0.00772049
0.00712951
0.00623976
0.00502918
0.0035411
0.00186662
0.000241228
0.00827079
0.00837338
0.00842659
0.00845354
0.00846588
0.00846982
0.0084675
0.00845744
0.00843349
0.00838219
0.0082781
0.00807846
0.00772074
0.00712967
0.00623985
0.00502922
0.00354111
0.00186662
0.000241228
0.00827336
0.0083758
0.00842887
0.00845568
0.00846788
0.00847166
0.00846918
0.00845894
0.00843482
0.00838333
0.00827905
0.00807921
0.00772129
0.00713004
0.00624006
0.00502931
0.00354114
0.00186663
0.000241228
0.00827841
0.00838058
0.0084334
0.00845996
0.0084719
0.00847541
0.00847264
0.00846208
0.00843762
0.00838578
0.00828112
0.00808089
0.00772256
0.00713091
0.00624057
0.00502955
0.00354122
0.00186664
0.000241229
0.00828807
0.00838972
0.00844211
0.00846826
0.00847977
0.00848282
0.00847955
0.00846845
0.0084434
0.00839092
0.00828556
0.00808457
0.00772542
0.00713291
0.00624177
0.00503012
0.0035414
0.00186667
0.000241229
0.00830591
0.00840654
0.00845818
0.00848366
0.00849453
0.00849689
0.00849285
0.0084809
0.0084549
0.00840135
0.0082948
0.00809245
0.00773175
0.00713752
0.00624465
0.00503154
0.00354189
0.00186676
0.000241232
0.0083373
0.00843596
0.00848633
0.00851083
0.00852081
0.00852227
0.00851722
0.00850412
0.00847679
0.00842171
0.00831335
0.00810884
0.00774546
0.007148
0.00625153
0.00503509
0.00354314
0.00186699
0.000241238
0.00838931
0.00848425
0.0085325
0.00855565
0.00856462
0.00856515
0.00855909
0.00854481
0.00851608
0.00845931
0.00834886
0.00814158
0.00777435
0.00717146
0.00626799
0.00504418
0.00354647
0.00186761
0.000241254
0.00846908
0.00855726
0.00860208
0.00862347
0.00863155
0.00863155
0.00862508
0.00861035
0.00858111
0.0085237
0.00841235
0.00820344
0.00783275
0.00722287
0.00630739
0.00506795
0.00355563
0.00186931
0.000241297
0.0085797
0.00865649
0.00869588
0.00871499
0.00872251
0.0087229
0.00871741
0.00870418
0.00867707
0.00862263
0.00851533
0.00831117
0.00794406
0.00733195
0.00640146
0.00513218
0.00358211
0.00187413
0.000241421
0.00871419
0.00877374
0.00880498
0.0088208
0.00882784
0.00882949
0.00882664
0.00881757
0.00879684
0.00875219
0.00865999
0.0084777
0.00813856
0.0075522
0.00662423
0.00531304
0.00366422
0.0018881
0.000241767
0.00885216
0.00888909
0.00890911
0.00891986
0.00892544
0.00892793
0.00892794
0.00892429
0.00891325
0.00888577
0.00882421
0.00869395
0.00843723
0.00796139
0.00713697
0.00584476
0.00394827
0.00192853
0.000242703
0.00896662
0.00897851
0.00898518
0.00898896
0.00899117
0.00899252
0.00899327
0.00899303
0.00899064
0.00898269
0.0089628
0.00891617
0.00881791
0.00861562
0.00821037
0.00741454
0.0051567
0.00203501
0.000244733
)
;

boundaryField
{
    leftWall
    {
        type            nutkWallFunction;
        blending        stepwise;
        value           nonuniform List<scalar> 
50
(
0
0
0
0
0
0
0
0
0
0
0
0
0
0
0
0
0
0
0
0
0
0
0
0
0
0
0
5.36008e-05
2.57406e-05
2.33289e-05
2.41592e-05
2.46998e-05
2.49761e-05
2.51098e-05
2.51718e-05
2.51995e-05
2.52116e-05
2.52167e-05
2.52189e-05
2.522e-05
2.5221e-05
2.52227e-05
2.52271e-05
2.52387e-05
2.52713e-05
2.53658e-05
2.5652e-05
2.65897e-05
3.04043e-05
4.92789e-05
)
;
    }
    rightWall
    {
        type            nutkWallFunction;
        blending        stepwise;
        value           nonuniform List<scalar> 
50
(
1.61818e-05
2.2488e-05
2.4932e-05
2.64061e-05
2.73974e-05
2.80937e-05
2.859e-05
2.89478e-05
2.9361e-05
2.96234e-05
2.97414e-05
2.97945e-05
2.98181e-05
2.98285e-05
2.98329e-05
2.98348e-05
2.98356e-05
2.98359e-05
2.98361e-05
2.98361e-05
2.98362e-05
2.98362e-05
2.98362e-05
2.98362e-05
2.98362e-05
2.98362e-05
2.98362e-05
2.98362e-05
2.98362e-05
2.98362e-05
2.98362e-05
2.98362e-05
2.98362e-05
2.98362e-05
2.98362e-05
2.98362e-05
2.98362e-05
2.98362e-05
2.98362e-05
2.98362e-05
2.98362e-05
2.98362e-05
2.98363e-05
2.98366e-05
2.98373e-05
2.98392e-05
2.98446e-05
2.98595e-05
2.9899e-05
2.99826e-05
)
;
    }
    lowerWall
    {
        type            nutkWallFunction;
        blending        stepwise;
        value           nonuniform List<scalar> 
62
(
0
0
0
0
0
0
0
0
0
0
0
0
2.16739e-05
2.02912e-06
2.64863e-06
3.53928e-06
3.95514e-06
4.10275e-06
4.05182e-06
3.76926e-06
3.1043e-06
1.68419e-06
0
0
1.79523e-05
2.0566e-05
2.21309e-05
2.3298e-05
2.44261e-05
2.61572e-05
3.04615e-05
3.15413e-05
2.82832e-05
2.82629e-05
3.14387e-05
0
2.20231e-05
2.49121e-05
2.65977e-05
2.78464e-05
2.90796e-05
3.10141e-05
3.56319e-05
0
1.94265e-06
3.31301e-06
3.93163e-06
4.20353e-06
4.31596e-06
4.35952e-06
4.3754e-06
4.38058e-06
4.38114e-06
4.3781e-06
4.36882e-06
4.34509e-06
4.28745e-06
4.15367e-06
3.85819e-06
3.23066e-06
1.9107e-06
7.31107e-07
)
;
    }
    atmosphere
    {
        type            calculated;
        value           nonuniform List<scalar> 
46
(
0.009
0.009
0.009
0.009
0.009
0.009
0.009
0.009
0.009
0.009
0.009
0.009
0.009
0.009
0.009
0.009
0.009
0.009
0.009
0.009
0.009
0.009
0.009
0.009
0.009
0.009
0.009
0.009
0.009
0.009
0.009
0.009
0.009
0.009
0.009
0.009
0.009
0.009
0.009
0.009
0.009
0.009
0.009
0.009
0.00203501
0.000244733
)
;
    }
    defaultFaces
    {
        type            empty;
    }
}


// ************************************************************************* //
