/*--------------------------------*- C++ -*----------------------------------*\
| =========                 |                                                 |
| \\      /  F ield         | OpenFOAM: The Open Source CFD Toolbox           |
|  \\    /   O peration     | Version:  2406                                  |
|   \\  /    A nd           | Website:  www.openfoam.com                      |
|    \\/     M anipulation  |                                                 |
\*---------------------------------------------------------------------------*/
FoamFile
{
    version     2.0;
    format      ascii;
    arch        "LSB;label=32;scalar=64";
    class       volScalarField;
    location    "0.15";
    object      nut;
}
// * * * * * * * * * * * * * * * * * * * * * * * * * * * * * * * * * * * * * //

dimensions      [0 2 -1 0 0 0 0];

internalField   nonuniform List<scalar> 
2268
(
7.69826e-05
6.8349e-05
7.77552e-05
8.28681e-05
8.57691e-05
8.74005e-05
8.82852e-05
8.87437e-05
8.89709e-05
8.90789e-05
8.91273e-05
8.91456e-05
8.91446e-05
8.91221e-05
8.90601e-05
8.89134e-05
8.85855e-05
8.78877e-05
8.64769e-05
8.37545e-05
7.86338e-05
6.87904e-05
4.83115e-05
0.000154894
0.000499745
0.000660581
0.000748107
0.000798514
0.000827296
0.000843162
0.000851532
0.000855758
0.000857802
0.000858736
0.000859093
0.000859079
0.000858656
0.000857499
0.000854802
0.000848876
0.000836468
0.000811719
0.000764483
0.000676634
0.000509817
0.000153196
0.000171324
0.00081042
0.00118076
0.0014017
0.00153554
0.0016146
0.0016594
0.00168363
0.00169615
0.00170235
0.00170523
0.00170636
0.00170634
0.00170508
0.00170166
0.00169382
0.00167695
0.00164237
0.00157491
0.0014496
0.00122631
0.000836358
0.000171983
0.000182194
0.00102808
0.00159439
0.00195737
0.00218759
0.00232845
0.00241072
0.00245649
0.00248078
0.00249309
0.00249896
0.00250131
0.00250133
0.00249889
0.0024923
0.00247753
0.00244647
0.00238433
0.00226607
0.00205219
0.00168412
0.00107848
0.000184445
0.000189934
0.00118983
0.00193087
0.00243411
0.00276657
0.0029768
0.00310325
0.00317554
0.00321489
0.00323531
0.00324526
0.00324934
0.00324951
0.00324561
0.00323513
0.00321207
0.00316466
0.00307202
0.00289983
0.00259565
0.0020856
0.00127868
0.000194431
0.000195635
0.00131338
0.00220708
0.00284375
0.0032798
0.00356402
0.0037397
0.00384272
0.00390014
0.0039306
0.00394575
0.00395212
0.00395259
0.00394707
0.0039322
0.00390003
0.0038353
0.00371161
0.0034867
0.00309748
0.00245651
0.00146267
0.000204487
0.000199895
0.00140881
0.00243369
0.00319381
0.00373128
0.00409136
0.00431956
0.0044565
0.00453453
0.00457675
0.00459815
0.00460738
0.00460837
0.00460119
0.00458176
0.00454033
0.00445862
0.00430577
0.00403362
0.00357165
0.00282067
0.00165593
0.000219447
0.000203096
0.00148272
0.00261861
0.00349029
0.00412421
0.00455953
0.00484171
0.00501467
0.00511518
0.00517058
0.00519915
0.00521176
0.00521354
0.00520485
0.00518103
0.00513089
0.00503382
0.0048559
0.00454581
0.00403046
0.00320607
0.00190766
0.000253813
4.97427e-05
7.04851e-05
8.01003e-05
8.48503e-05
8.72045e-05
8.83215e-05
8.88197e-05
8.90265e-05
8.9101e-05
8.91083e-05
8.90596e-05
8.89223e-05
8.86075e-05
8.79356e-05
8.65826e-05
8.39951e-05
7.91783e-05
6.99738e-05
8.288e-05
0.000176952
0.000537269
0.000701323
0.000783345
0.00082443
0.000844162
0.000853099
0.00085687
0.000858244
0.000858368
0.000857433
0.000854848
0.000849032
0.000836858
0.000812784
0.000767491
0.000684416
0.000525977
0.000179423
0.000197874
0.000894856
0.00128713
0.00149899
0.00160935
0.00166374
0.00168893
0.00169979
0.00170379
0.0017041
0.00170121
0.00169343
0.00167634
0.00164146
0.00157439
0.00145231
0.00123881
0.000865354
0.0001974
0.000211483
0.00116408
0.0017822
0.00213566
0.00232613
0.00242261
0.00246846
0.00248868
0.00249623
0.00249667
0.00249081
0.00247546
0.00244261
0.00237751
0.00225621
0.00204313
0.00168707
0.00110684
0.000209114
0.000222338
0.00138837
0.00221953
0.00271352
0.00298692
0.00312892
0.0031981
0.0032293
0.00324105
0.00324144
0.0032315
0.0032062
0.00315346
0.00305182
0.00286813
0.00255626
0.00205628
0.00128798
0.000217405
0.000233491
0.00159475
0.00262346
0.00324762
0.00360011
0.0037874
0.00388079
0.00392377
0.00394006
0.00394007
0.00392489
0.00388738
0.00381103
0.00366773
0.00341603
0.00300197
0.00236242
0.00142721
0.000223509
0.000250484
0.00180982
0.00301596
0.00374947
0.00417057
0.00439922
0.00451581
0.00457048
0.00459121
0.00459038
0.00456883
0.00451707
0.0044141
0.00422543
0.00390261
0.00338661
0.00261576
0.0015352
0.000228074
0.000288183
0.00208225
0.00342136
0.00422878
0.00470167
0.00496448
0.00510145
0.00516677
0.00519144
0.00518916
0.00516021
0.00509257
0.00496078
0.00472459
0.00432994
0.00371534
0.00282403
0.00161908
0.000231506
0.000206863
0.00157258
0.00285586
0.00388642
0.00466556
0.00521941
0.00558992
0.00582374
0.00596331
0.00604216
0.00608381
0.00610282
0.00610644
0.00609573
0.00606551
0.00600295
0.00588505
0.00567557
0.005323
0.00476128
0.00391788
0.00274728
0.00136413
0.000209616
0.00164139
0.00305166
0.00423334
0.00516184
0.00584568
0.00631855
0.00662638
0.0068156
0.00692551
0.00698525
0.00701378
0.00702124
0.00701027
0.00697628
0.00690675
0.00677961
0.00656216
0.00621214
0.00568389
0.00494395
0.00400227
0.00296169
0.000211057
0.00167901
0.0031665
0.00444912
0.00548519
0.00626863
0.00682406
0.0071943
0.00742702
0.00756517
0.00764204
0.00768025
0.00769274
0.00768416
0.00765167
0.00758494
0.00746578
0.00726855
0.00696327
0.00652355
0.00594173
0.00525199
0.00455901
0.000211786
0.00169875
0.00323066
0.0045763
0.00568415
0.00653772
0.00715395
0.00757192
0.00783908
0.00800029
0.00809169
0.00813871
0.00815675
0.00815259
0.00812573
0.00806905
0.00796935
0.00780871
0.00756811
0.00723474
0.00681356
0.006342
0.00590337
0.000212142
0.00170872
0.00326491
0.0046476
0.0058002
0.00669965
0.00735726
0.00780883
0.00810093
0.00827934
0.00838199
0.00843633
0.00845969
0.00846087
0.00844175
0.0083985
0.00832271
0.0082031
0.00802872
0.00779465
0.00750965
0.00720433
0.00693535
0.00021231
0.00171357
0.00328247
0.00468581
0.00586469
0.00679227
0.00747617
0.00794972
0.00825859
0.00844888
0.00855958
0.00861951
0.00864745
0.00865386
0.00864265
0.00861284
0.0085599
0.00847746
0.00835985
0.00820599
0.00802408
0.00783557
0.00767553
0.000212388
0.00171587
0.00329115
0.00470548
0.00589902
0.00684289
0.00754252
0.00802958
0.008349
0.00854698
0.00866308
0.00872699
0.00875853
0.00876937
0.00876501
0.0087466
0.00871241
0.00865936
0.00858489
0.00848949
0.0083793
0.00826793
0.00817576
0.000212423
0.00171692
0.00329531
0.00471526
0.00591661
0.00686948
0.00757803
0.00807296
0.00839867
0.00860134
0.00872086
0.00878745
0.00882161
0.00883584
0.00883675
0.00882696
0.00880656
0.00877451
0.00872997
0.00867382
0.00861017
0.00854706
0.00849574
0.000212438
0.0017174
0.00329726
0.00471998
0.00592534
0.00688296
0.00759636
0.00809565
0.00842495
0.00863035
0.00875193
0.00882024
0.00885618
0.0088728
0.00887742
0.00887358
0.00886251
0.00884432
0.00881903
0.00878751
0.00875229
0.00871789
0.00869025
0.000212445
0.00171761
0.00329814
0.00472221
0.00592955
0.00688959
0.00760552
0.00810715
0.00843839
0.00864533
0.00876811
0.00883747
0.00887456
0.00889275
0.00889981
0.0088998
0.00889462
0.00888499
0.00887134
0.00885439
0.00883564
0.00881752
0.00880308
0.000212447
0.0017177
0.00329854
0.00472323
0.00593153
0.00689277
0.00760998
0.00811282
0.00844508
0.00865284
0.00877631
0.00884628
0.00888407
0.00890325
0.0089118
0.00891413
0.00891245
0.00890783
0.00890086
0.00889211
0.00888246
0.00887318
0.00886581
0.000212449
0.00171774
0.00329872
0.00472369
0.00593244
0.00689426
0.0076121
0.00811554
0.00844833
0.00865653
0.00878036
0.00885068
0.00888889
0.00890864
0.00891808
0.00892176
0.00892208
0.00892025
0.00891693
0.00891259
0.00890777
0.00890311
0.0088994
0.000212449
0.00171776
0.0032988
0.0047239
0.00593285
0.00689494
0.00761309
0.00811682
0.00844988
0.0086583
0.00878232
0.00885284
0.00889128
0.00891137
0.0089213
0.00892573
0.00892713
0.0089268
0.0089254
0.00892335
0.00892099
0.00891868
0.00891679
0.000212449
0.00171776
0.00329883
0.00472399
0.00593304
0.00689525
0.00761354
0.00811741
0.0084506
0.00865913
0.00878325
0.00885388
0.00889245
0.00891272
0.00892292
0.00892775
0.00892972
0.00893016
0.00892974
0.00892885
0.00892771
0.00892653
0.00892553
0.000212449
0.00171777
0.00329884
0.00472403
0.00593312
0.00689539
0.00761374
0.00811768
0.00845093
0.00865951
0.00878369
0.00885437
0.00889301
0.00891337
0.00892372
0.00892876
0.00893102
0.00893184
0.00893191
0.00893157
0.00893102
0.00893039
0.00892981
0.000212449
0.00171777
0.00329885
0.00472404
0.00593315
0.00689545
0.00761383
0.0081178
0.00845108
0.00865969
0.00878389
0.0088546
0.00889328
0.00891369
0.00892411
0.00892925
0.00893165
0.00893267
0.00893297
0.0089329
0.00893263
0.00893225
0.00893186
0.00021245
0.00171777
0.00329885
0.00472405
0.00593317
0.00689548
0.00761387
0.00811786
0.00845114
0.00865977
0.00878399
0.00885471
0.0088934
0.00891384
0.0089243
0.00892949
0.00893196
0.00893307
0.00893348
0.00893353
0.00893338
0.00893312
0.00893282
0.00021245
0.00171777
0.00329885
0.00472405
0.00593318
0.00689549
0.00761389
0.00811788
0.00845117
0.00865981
0.00878403
0.00885476
0.00889346
0.00891391
0.00892439
0.0089296
0.00893211
0.00893326
0.00893372
0.00893383
0.00893374
0.00893353
0.00893327
0.00021245
0.00171777
0.00329885
0.00472405
0.00593318
0.00689549
0.0076139
0.00811789
0.00845119
0.00865982
0.00878405
0.00885478
0.00889349
0.00891394
0.00892443
0.00892965
0.00893218
0.00893334
0.00893383
0.00893396
0.0089339
0.00893371
0.00893347
0.00021245
0.00171777
0.00329885
0.00472405
0.00593318
0.0068955
0.0076139
0.00811789
0.00845119
0.00865983
0.00878406
0.00885479
0.0088935
0.00891396
0.00892445
0.00892968
0.00893221
0.00893338
0.00893388
0.00893402
0.00893397
0.00893379
0.00893356
0.00021245
0.00171777
0.00329885
0.00472405
0.00593318
0.0068955
0.0076139
0.0081179
0.0084512
0.00865983
0.00878406
0.00885479
0.0088935
0.00891397
0.00892446
0.00892969
0.00893222
0.0089334
0.0089339
0.00893405
0.008934
0.00893383
0.0089336
0.00021245
0.00171777
0.00329885
0.00472405
0.00593318
0.0068955
0.0076139
0.0081179
0.0084512
0.00865983
0.00878406
0.00885479
0.00889351
0.00891397
0.00892446
0.00892969
0.00893223
0.00893341
0.00893391
0.00893406
0.00893402
0.00893385
0.00893361
0.00021245
0.00171777
0.00329885
0.00472405
0.00593318
0.0068955
0.0076139
0.0081179
0.0084512
0.00865983
0.00878406
0.00885479
0.00889351
0.00891397
0.00892446
0.00892969
0.00893223
0.00893341
0.00893392
0.00893407
0.00893402
0.00893385
0.00893362
0.00021245
0.00171777
0.00329885
0.00472405
0.00593318
0.0068955
0.0076139
0.0081179
0.0084512
0.00865983
0.00878406
0.0088548
0.00889351
0.00891397
0.00892446
0.0089297
0.00893223
0.00893341
0.00893392
0.00893407
0.00893403
0.00893386
0.00893362
0.00021245
0.00171777
0.00329885
0.00472405
0.00593318
0.0068955
0.0076139
0.0081179
0.0084512
0.00865983
0.00878406
0.0088548
0.00889351
0.00891397
0.00892446
0.0089297
0.00893223
0.00893342
0.00893392
0.00893407
0.00893403
0.00893386
0.00893363
0.00021245
0.00171777
0.00329885
0.00472405
0.00593318
0.0068955
0.0076139
0.0081179
0.0084512
0.00865983
0.00878406
0.0088548
0.00889351
0.00891397
0.00892446
0.0089297
0.00893223
0.00893342
0.00893392
0.00893407
0.00893403
0.00893386
0.00893363
0.00021245
0.00171777
0.00329885
0.00472405
0.00593318
0.0068955
0.0076139
0.0081179
0.0084512
0.00865983
0.00878406
0.0088548
0.00889351
0.00891397
0.00892446
0.0089297
0.00893223
0.00893342
0.00893392
0.00893407
0.00893403
0.00893386
0.00893363
0.00021245
0.00171777
0.00329885
0.00472405
0.00593318
0.0068955
0.0076139
0.0081179
0.0084512
0.00865983
0.00878406
0.0088548
0.00889351
0.00891397
0.00892446
0.0089297
0.00893223
0.00893342
0.00893392
0.00893407
0.00893403
0.00893386
0.00893363
0.00021245
0.00171777
0.00329885
0.00472405
0.00593318
0.0068955
0.0076139
0.0081179
0.0084512
0.00865983
0.00878406
0.0088548
0.00889351
0.00891397
0.00892446
0.0089297
0.00893223
0.00893342
0.00893392
0.00893407
0.00893403
0.00893386
0.00893363
0.00021245
0.00171777
0.00329885
0.00472405
0.00593318
0.0068955
0.0076139
0.0081179
0.0084512
0.00865983
0.00878406
0.0088548
0.00889351
0.00891397
0.00892446
0.0089297
0.00893223
0.00893342
0.00893392
0.00893407
0.00893403
0.00893386
0.00893363
0.00021245
0.00171777
0.00329885
0.00472405
0.00593318
0.0068955
0.0076139
0.0081179
0.0084512
0.00865983
0.00878406
0.0088548
0.00889351
0.00891397
0.00892446
0.0089297
0.00893223
0.00893342
0.00893392
0.00893407
0.00893403
0.00893386
0.00893363
0.00021245
0.00171777
0.00329885
0.00472405
0.00593318
0.0068955
0.0076139
0.0081179
0.0084512
0.00865983
0.00878406
0.0088548
0.00889351
0.00891397
0.00892446
0.0089297
0.00893223
0.00893342
0.00893392
0.00893407
0.00893403
0.00893386
0.00893363
0.00021245
0.00171777
0.00329885
0.00472405
0.00593318
0.0068955
0.0076139
0.0081179
0.0084512
0.00865983
0.00878406
0.0088548
0.00889351
0.00891397
0.00892446
0.0089297
0.00893223
0.00893342
0.00893392
0.00893407
0.00893403
0.00893386
0.00893363
0.00021245
0.00171777
0.00329885
0.00472405
0.00593318
0.0068955
0.0076139
0.0081179
0.0084512
0.00865983
0.00878406
0.0088548
0.00889351
0.00891397
0.00892446
0.0089297
0.00893223
0.00893342
0.00893392
0.00893407
0.00893403
0.00893386
0.00893363
0.00021245
0.00171777
0.00329885
0.00472405
0.00593318
0.0068955
0.0076139
0.0081179
0.0084512
0.00865983
0.00878406
0.0088548
0.00889351
0.00891397
0.00892446
0.0089297
0.00893223
0.00893342
0.00893392
0.00893407
0.00893403
0.00893386
0.00893363
0.00021245
0.00171777
0.00329885
0.00472405
0.00593318
0.0068955
0.0076139
0.0081179
0.0084512
0.00865984
0.00878406
0.0088548
0.00889351
0.00891397
0.00892447
0.0089297
0.00893223
0.00893342
0.00893392
0.00893408
0.00893403
0.00893387
0.00893363
0.00021245
0.00171777
0.00329885
0.00472405
0.00593318
0.0068955
0.0076139
0.0081179
0.0084512
0.00865984
0.00878406
0.0088548
0.00889351
0.00891397
0.00892447
0.0089297
0.00893224
0.00893342
0.00893392
0.00893408
0.00893404
0.00893387
0.00893364
0.00021245
0.00171777
0.00329885
0.00472405
0.00593318
0.0068955
0.0076139
0.0081179
0.0084512
0.00865984
0.00878406
0.0088548
0.00889351
0.00891397
0.00892447
0.0089297
0.00893224
0.00893342
0.00893393
0.00893408
0.00893404
0.00893388
0.00893365
0.00021245
0.00171777
0.00329885
0.00472405
0.00593318
0.0068955
0.0076139
0.0081179
0.0084512
0.00865984
0.00878407
0.0088548
0.00889351
0.00891398
0.00892447
0.0089297
0.00893224
0.00893342
0.00893393
0.00893409
0.00893405
0.00893389
0.00893367
0.00021245
0.00171777
0.00329885
0.00472405
0.00593318
0.0068955
0.0076139
0.0081179
0.0084512
0.00865984
0.00878407
0.0088548
0.00889351
0.00891398
0.00892447
0.0089297
0.00893224
0.00893342
0.00893393
0.00893409
0.00893406
0.0089339
0.00893368
0.00021245
0.00171777
0.00329885
0.00472405
0.00593318
0.0068955
0.0076139
0.0081179
0.0084512
0.00865984
0.00878407
0.0088548
0.00889351
0.00891398
0.00892447
0.0089297
0.00893224
0.00893343
0.00893394
0.0089341
0.00893406
0.00893391
0.0089337
0.00021245
0.00171777
0.00329885
0.00472405
0.00593318
0.0068955
0.0076139
0.0081179
0.0084512
0.00865984
0.00878407
0.0088548
0.00889351
0.00891398
0.00892447
0.0089297
0.00893224
0.00893343
0.00893394
0.0089341
0.00893407
0.00893392
0.00893372
0.000264235
0.00024035
0.000240155
0.000263271
0.00224492
0.00212438
0.00212412
0.00224337
0.00419156
0.00408145
0.00408108
0.00419027
0.00570027
0.00563294
0.00563259
0.00569918
0.0068191
0.00678015
0.00677984
0.00681817
0.00760888
0.00758659
0.00758636
0.00760817
0.00813816
0.00812563
0.00812547
0.00813768
0.00847507
0.00846818
0.00846808
0.00847475
0.00867919
0.0086755
0.00867543
0.00867899
0.00879731
0.00879537
0.00879533
0.00879717
0.00886285
0.00886184
0.00886181
0.00886275
0.00889788
0.00889735
0.00889732
0.0088978
0.00891598
0.00891569
0.00891567
0.00891591
0.00892507
0.00892489
0.00892487
0.008925
0.00892951
0.00892939
0.00892937
0.00892945
0.00893164
0.00893154
0.00893152
0.00893158
0.00893263
0.00893254
0.00893253
0.00893257
0.00893309
0.00893301
0.00893299
0.00893303
0.0089333
0.00893322
0.0089332
0.00893324
0.00893339
0.00893331
0.00893329
0.00893333
0.00893343
0.00893335
0.00893333
0.00893337
0.00893345
0.00893337
0.00893335
0.00893339
0.00893346
0.00893338
0.00893336
0.0089334
0.00893346
0.00893338
0.00893336
0.0089334
0.00893346
0.00893338
0.00893336
0.0089334
0.00893346
0.00893338
0.00893336
0.0089334
0.00893346
0.00893338
0.00893336
0.0089334
0.00893346
0.00893338
0.00893336
0.0089334
0.00893346
0.00893338
0.00893336
0.0089334
0.00893346
0.00893338
0.00893337
0.0089334
0.00893346
0.00893338
0.00893337
0.0089334
0.00893346
0.00893338
0.00893337
0.0089334
0.00893346
0.00893338
0.00893337
0.0089334
0.00893346
0.00893339
0.00893337
0.0089334
0.00893347
0.00893339
0.00893337
0.00893341
0.00893347
0.00893339
0.00893337
0.00893341
0.00893348
0.0089334
0.00893338
0.00893342
0.00893349
0.00893341
0.0089334
0.00893343
0.00893351
0.00893343
0.00893342
0.00893345
0.00893353
0.00893346
0.00893344
0.00893348
0.00893356
0.00893349
0.00893348
0.00893351
0.00893358
0.00893352
0.0089335
0.00893354
0.00142725
0.00291569
0.00414027
0.00497769
0.00550002
0.00580306
0.00596653
0.00604638
0.00607606
0.00607019
0.00602753
0.00593169
0.00575026
0.00543477
0.00492479
0.00415902
0.00309339
0.00172137
0.000235546
0.00300885
0.00414259
0.00514105
0.0058879
0.00638778
0.00669393
0.00686609
0.00695206
0.00698199
0.00696816
0.00690572
0.00677255
0.00652876
0.00611865
0.00547861
0.00455337
0.00331824
0.00179998
0.000238498
0.00458478
0.005354
0.0060969
0.00669345
0.00711622
0.00738724
0.00754485
0.00762412
0.00764789
0.00762347
0.00754135
0.00737409
0.00707612
0.00658756
0.00584526
0.00480233
0.0034516
0.00184312
0.000240046
0.00591654
0.00641022
0.00692536
0.00736328
0.00768817
0.00790421
0.00803283
0.00809657
0.0081097
0.00807361
0.0079739
0.00777854
0.00743795
0.00689019
0.00607423
0.00495111
0.0035269
0.00186586
0.00024083
0.00694209
0.00724747
0.00758473
0.00788447
0.00811505
0.0082727
0.00836762
0.00841221
0.00841304
0.00836579
0.00825171
0.00803512
0.00766373
0.00707479
0.00620965
0.00503559
0.00356748
0.00187739
0.000241213
0.00767901
0.00786163
0.00807154
0.00826455
0.00841722
0.0085236
0.00858727
0.00861343
0.0086026
0.00854586
0.00842094
0.00818946
0.00779738
0.00718174
0.00628588
0.00508139
0.00358847
0.00188303
0.000241395
0.00817754
0.00828302
0.0084077
0.0085253
0.00862024
0.00868695
0.00872547
0.00873637
0.00871592
0.00865182
0.00851925
0.00827797
0.00787284
0.00724091
0.00632695
0.00510523
0.00359893
0.00188571
0.000241479
0.00849663
0.00855542
0.00862628
0.00869437
0.00875004
0.00878884
0.00880912
0.00880868
0.00878105
0.00871168
0.00857402
0.00832663
0.0079137
0.00727234
0.00634823
0.0051172
0.00360399
0.00188694
0.000241517
0.00869066
0.0087223
0.00876094
0.00879852
0.00882928
0.0088499
0.00885799
0.00884981
0.00881724
0.00874433
0.00860346
0.00835242
0.00793504
0.00728846
0.0063589
0.00512304
0.00360637
0.0018875
0.000241534
0.00880323
0.00881972
0.00883999
0.00885976
0.00887565
0.00888515
0.00888563
0.00887251
0.00883676
0.00876161
0.00861879
0.00836567
0.00794583
0.00729647
0.0063641
0.00512581
0.00360746
0.00188775
0.000241541
0.00886584
0.00887419
0.00888444
0.00889431
0.00890176
0.00890483
0.00890081
0.00888471
0.00884702
0.00877052
0.00862657
0.00837229
0.00795115
0.00730036
0.00636657
0.00512709
0.00360795
0.00188786
0.000241545
0.00889936
0.00890351
0.0089085
0.00891309
0.00891597
0.00891548
0.00890892
0.00889111
0.0088523
0.00877501
0.00863043
0.00837552
0.00795371
0.0073022
0.00636771
0.00512767
0.00360817
0.00188791
0.000241546
0.00891672
0.00891876
0.00892109
0.00892297
0.00892346
0.00892109
0.00891315
0.0088944
0.00885496
0.00877723
0.0086323
0.00837707
0.00795492
0.00730305
0.00636824
0.00512794
0.00360827
0.00188793
0.000241547
0.00892545
0.00892646
0.00892749
0.00892803
0.00892731
0.00892396
0.0089153
0.00889606
0.00885628
0.00877831
0.0086332
0.0083778
0.00795548
0.00730344
0.00636847
0.00512805
0.00360831
0.00188793
0.000241547
0.00892972
0.00893025
0.00893066
0.00893054
0.00892923
0.0089254
0.00891638
0.00889688
0.00885692
0.00877883
0.00863362
0.00837814
0.00795573
0.00730362
0.00636858
0.0051281
0.00360833
0.00188794
0.000241547
0.00893177
0.00893208
0.00893219
0.00893177
0.00893017
0.00892611
0.00891691
0.00889728
0.00885723
0.00877908
0.00863382
0.0083783
0.00795585
0.0073037
0.00636862
0.00512812
0.00360834
0.00188794
0.000241547
0.00893273
0.00893294
0.00893291
0.00893235
0.00893062
0.00892645
0.00891716
0.00889747
0.00885738
0.00877919
0.00863391
0.00837837
0.0079559
0.00730373
0.00636864
0.00512813
0.00360834
0.00188794
0.000241547
0.00893317
0.00893333
0.00893325
0.00893262
0.00893084
0.00892661
0.00891729
0.00889756
0.00885745
0.00877925
0.00863395
0.0083784
0.00795592
0.00730375
0.00636865
0.00512814
0.00360834
0.00188794
0.000241547
0.00893337
0.00893351
0.00893341
0.00893275
0.00893094
0.00892669
0.00891734
0.0088976
0.00885748
0.00877927
0.00863397
0.00837841
0.00795594
0.00730375
0.00636866
0.00512814
0.00360834
0.00188794
0.000241547
0.00893346
0.00893359
0.00893348
0.00893281
0.00893098
0.00892672
0.00891737
0.00889762
0.00885749
0.00877928
0.00863398
0.00837842
0.00795594
0.00730376
0.00636866
0.00512814
0.00360834
0.00188794
0.000241547
0.0089335
0.00893363
0.00893351
0.00893283
0.008931
0.00892674
0.00891738
0.00889763
0.0088575
0.00877929
0.00863398
0.00837842
0.00795594
0.00730376
0.00636866
0.00512814
0.00360834
0.00188794
0.000241547
0.00893352
0.00893365
0.00893352
0.00893284
0.00893101
0.00892675
0.00891739
0.00889763
0.0088575
0.00877929
0.00863398
0.00837842
0.00795594
0.00730376
0.00636866
0.00512814
0.00360834
0.00188794
0.000241547
0.00893353
0.00893365
0.00893353
0.00893285
0.00893102
0.00892675
0.00891739
0.00889764
0.0088575
0.00877929
0.00863398
0.00837842
0.00795594
0.00730376
0.00636866
0.00512814
0.00360834
0.00188794
0.000241547
0.00893353
0.00893366
0.00893353
0.00893285
0.00893102
0.00892675
0.00891739
0.00889764
0.0088575
0.00877929
0.00863398
0.00837842
0.00795594
0.00730376
0.00636866
0.00512814
0.00360834
0.00188794
0.000241547
0.00893353
0.00893366
0.00893353
0.00893285
0.00893102
0.00892675
0.00891739
0.00889764
0.0088575
0.00877929
0.00863398
0.00837842
0.00795594
0.00730376
0.00636866
0.00512814
0.00360834
0.00188794
0.000241547
0.00893353
0.00893366
0.00893353
0.00893285
0.00893102
0.00892675
0.00891739
0.00889764
0.0088575
0.00877929
0.00863398
0.00837842
0.00795594
0.00730376
0.00636866
0.00512814
0.00360834
0.00188794
0.000241547
0.00893353
0.00893366
0.00893353
0.00893285
0.00893102
0.00892675
0.00891739
0.00889764
0.0088575
0.00877929
0.00863398
0.00837842
0.00795594
0.00730376
0.00636866
0.00512814
0.00360834
0.00188794
0.000241547
0.00893353
0.00893366
0.00893353
0.00893285
0.00893102
0.00892675
0.00891739
0.00889764
0.0088575
0.00877929
0.00863398
0.00837842
0.00795594
0.00730376
0.00636866
0.00512814
0.00360834
0.00188794
0.000241547
0.00893353
0.00893366
0.00893353
0.00893285
0.00893102
0.00892675
0.00891739
0.00889764
0.0088575
0.00877929
0.00863398
0.00837842
0.00795594
0.00730376
0.00636866
0.00512814
0.00360834
0.00188794
0.000241547
0.00893353
0.00893366
0.00893353
0.00893285
0.00893102
0.00892675
0.00891739
0.00889764
0.0088575
0.00877929
0.00863398
0.00837842
0.00795594
0.00730376
0.00636866
0.00512814
0.00360834
0.00188794
0.000241547
0.00893353
0.00893366
0.00893353
0.00893285
0.00893102
0.00892675
0.00891739
0.00889764
0.0088575
0.00877929
0.00863398
0.00837842
0.00795594
0.00730376
0.00636866
0.00512814
0.00360834
0.00188794
0.000241547
0.00893353
0.00893366
0.00893353
0.00893285
0.00893102
0.00892675
0.00891739
0.00889764
0.0088575
0.00877929
0.00863398
0.00837842
0.00795594
0.00730376
0.00636866
0.00512814
0.00360834
0.00188794
0.000241547
0.00893353
0.00893366
0.00893353
0.00893285
0.00893102
0.00892675
0.00891739
0.00889764
0.0088575
0.00877929
0.00863398
0.00837842
0.00795594
0.00730376
0.00636866
0.00512814
0.00360834
0.00188794
0.000241547
0.00893353
0.00893366
0.00893353
0.00893285
0.00893102
0.00892675
0.00891739
0.00889764
0.0088575
0.00877929
0.00863399
0.00837842
0.00795594
0.00730376
0.00636866
0.00512814
0.00360834
0.00188794
0.000241547
0.00893353
0.00893366
0.00893354
0.00893285
0.00893102
0.00892675
0.00891739
0.00889764
0.00885751
0.00877929
0.00863399
0.00837842
0.00795594
0.00730376
0.00636866
0.00512814
0.00360834
0.00188794
0.000241547
0.00893354
0.00893367
0.00893354
0.00893286
0.00893102
0.00892675
0.00891739
0.00889764
0.00885751
0.00877929
0.00863399
0.00837842
0.00795594
0.00730376
0.00636866
0.00512814
0.00360834
0.00188794
0.000241547
0.00893355
0.00893367
0.00893354
0.00893286
0.00893102
0.00892675
0.00891739
0.00889764
0.00885751
0.00877929
0.00863399
0.00837842
0.00795594
0.00730376
0.00636866
0.00512814
0.00360834
0.00188794
0.000241547
0.00893356
0.00893368
0.00893355
0.00893286
0.00893102
0.00892676
0.00891739
0.00889764
0.00885751
0.00877929
0.00863399
0.00837842
0.00795594
0.00730376
0.00636866
0.00512814
0.00360834
0.00188794
0.000241547
0.00893358
0.00893369
0.00893356
0.00893287
0.00893103
0.00892676
0.00891739
0.00889764
0.00885751
0.00877929
0.00863399
0.00837842
0.00795594
0.00730376
0.00636866
0.00512814
0.00360834
0.00188794
0.000241547
0.0089336
0.00893371
0.00893357
0.00893287
0.00893103
0.00892676
0.00891739
0.00889764
0.00885751
0.00877929
0.00863399
0.00837843
0.00795594
0.00730376
0.00636866
0.00512814
0.00360834
0.00188794
0.000241547
0.00893362
0.00893373
0.00893358
0.00893288
0.00893103
0.00892676
0.0089174
0.00889764
0.00885751
0.00877929
0.00863399
0.00837843
0.00795594
0.00730376
0.00636866
0.00512814
0.00360834
0.00188794
0.000241547
0.00893364
0.00893374
0.00893358
0.00893288
0.00893104
0.00892676
0.0089174
0.00889764
0.00885751
0.00877929
0.00863399
0.00837843
0.00795594
0.00730376
0.00636866
0.00512814
0.00360834
0.00188794
0.000241547
)
;

boundaryField
{
    leftWall
    {
        type            nutkWallFunction;
        blending        stepwise;
        value           nonuniform List<scalar> 
50
(
1.28014e-05
1.82969e-05
2.05637e-05
2.19635e-05
2.29107e-05
2.35743e-05
2.40452e-05
2.43806e-05
2.47544e-05
2.5003e-05
2.51227e-05
2.51789e-05
2.52047e-05
2.52162e-05
2.52213e-05
2.52235e-05
2.52244e-05
2.52248e-05
2.52249e-05
2.5225e-05
2.5225e-05
2.5225e-05
2.52251e-05
2.52251e-05
2.52251e-05
2.52251e-05
2.52251e-05
2.52251e-05
2.52251e-05
2.52251e-05
2.52251e-05
2.52251e-05
2.52251e-05
2.52251e-05
2.52251e-05
2.52251e-05
2.52251e-05
2.52251e-05
2.52251e-05
2.52251e-05
2.52251e-05
2.52251e-05
2.52251e-05
2.52251e-05
2.52251e-05
2.52251e-05
2.52251e-05
2.52251e-05
2.52251e-05
2.52251e-05
)
;
    }
    rightWall
    {
        type            nutkWallFunction;
        blending        stepwise;
        value           nonuniform List<scalar> 
50
(
1.61806e-05
2.2488e-05
2.49392e-05
2.64186e-05
2.74117e-05
2.81077e-05
2.86028e-05
2.89561e-05
2.93504e-05
2.96131e-05
2.97399e-05
2.97996e-05
2.98271e-05
2.98394e-05
2.98448e-05
2.98471e-05
2.98481e-05
2.98486e-05
2.98487e-05
2.98488e-05
2.98488e-05
2.98489e-05
2.98489e-05
2.98489e-05
2.98489e-05
2.98489e-05
2.98489e-05
2.98489e-05
2.98489e-05
2.98489e-05
2.98489e-05
2.98489e-05
2.98489e-05
2.98489e-05
2.98489e-05
2.98489e-05
2.98489e-05
2.98489e-05
2.98489e-05
2.98489e-05
2.98489e-05
2.98489e-05
2.98489e-05
2.98489e-05
2.98489e-05
2.98489e-05
2.98489e-05
2.98489e-05
2.98489e-05
2.98489e-05
)
;
    }
    lowerWall
    {
        type            nutkWallFunction;
        blending        stepwise;
        value           nonuniform List<scalar> 
62
(
3.01291e-07
1.66868e-06
3.03913e-06
3.71893e-06
4.06347e-06
4.23693e-06
4.32203e-06
4.36247e-06
4.38108e-06
4.38939e-06
4.39294e-06
4.39421e-06
4.3941e-06
4.3924e-06
4.38754e-06
4.37533e-06
4.34599e-06
4.27797e-06
4.12638e-06
3.80133e-06
3.12246e-06
1.69382e-06
0
0
1.79559e-05
2.05822e-05
2.21588e-05
2.33352e-05
2.44709e-05
2.62072e-05
3.0516e-05
3.15986e-05
2.83541e-05
2.83299e-05
3.14759e-05
0
2.20247e-05
2.49234e-05
2.66168e-05
2.78686e-05
2.91004e-05
3.10286e-05
3.56351e-05
0
1.94876e-06
3.3208e-06
3.93415e-06
4.20538e-06
4.32052e-06
4.36703e-06
4.38483e-06
4.39088e-06
4.39156e-06
4.38793e-06
4.37713e-06
4.35059e-06
4.28888e-06
4.15128e-06
3.85566e-06
3.23353e-06
1.91586e-06
7.30537e-07
)
;
    }
    atmosphere
    {
        type            calculated;
        value           nonuniform List<scalar> 
46
(
0.00021245
0.00171777
0.00329885
0.00472405
0.00593318
0.0068955
0.0076139
0.0081179
0.0084512
0.00865984
0.00878407
0.0088548
0.00889351
0.00891398
0.00892447
0.0089297
0.00893224
0.00893343
0.00893394
0.0089341
0.00893407
0.00893392
0.00893372
0.00893358
0.00893352
0.0089335
0.00893354
0.00893364
0.00893374
0.00893358
0.00893288
0.00893104
0.00892676
0.0089174
0.00889764
0.00885751
0.00877929
0.00863399
0.00837843
0.00795594
0.00730376
0.00636866
0.00512814
0.00360834
0.00188794
0.000241547
)
;
    }
    defaultFaces
    {
        type            empty;
    }
}


// ************************************************************************* //
