/*--------------------------------*- C++ -*----------------------------------*\
| =========                 |                                                 |
| \\      /  F ield         | OpenFOAM: The Open Source CFD Toolbox           |
|  \\    /   O peration     | Version:  2406                                  |
|   \\  /    A nd           | Website:  www.openfoam.com                      |
|    \\/     M anipulation  |                                                 |
\*---------------------------------------------------------------------------*/
FoamFile
{
    version     2.0;
    format      ascii;
    arch        "LSB;label=32;scalar=64";
    class       surfaceScalarField;
    location    "0.15";
    object      phi;
}
// * * * * * * * * * * * * * * * * * * * * * * * * * * * * * * * * * * * * * //

dimensions      [0 3 -1 0 0 0 0];

oriented        oriented;

internalField   nonuniform List<scalar> 
4432
(
-5.5498e-305
-3.45447e-305
-1.18495e-304
-1.62352e-304
-2.02024e-304
-2.55872e-304
-3.176e-304
-3.32859e-304
-4.78154e-304
-3.74618e-304
-6.96421e-304
-3.2635e-304
-9.82578e-304
-8.1712e-305
-1.33849e-303
5.49452e-304
-1.74195e-303
1.89332e-303
-2.08012e-303
4.52751e-303
-1.74076e-303
9.57489e-303
2.25237e-303
1.95906e-302
3.84446e-303
4.12277e-302
-2.51336e-303
5.92494e-303
-1.18036e-303
-4.3689e-304
-4.30481e-304
-6.41384e-304
-1.64545e-304
-3.36483e-304
-6.5395e-305
-1.37756e-304
-2.60766e-305
-4.58537e-305
-9.86226e-306
-1.03582e-305
-3.20229e-306
5.22819e-307
-7.08061e-307
1.99345e-306
7.10587e-307
-1.7828e-304
-6.42812e-305
-3.77156e-304
-2.99361e-304
-6.36821e-304
-4.73477e-304
-9.9353e-304
-6.06469e-304
-1.48459e-303
-6.57669e-304
-2.14588e-303
-5.17701e-304
-3.00422e-303
2.48288e-305
-4.06019e-303
1.33874e-303
-5.24852e-303
4.05058e-303
-6.32979e-303
9.22499e-303
-6.39621e-303
1.87992e-302
-6.78699e-303
3.68854e-302
2.96865e-304
6.70987e-302
-4.79644e-303
9.23384e-303
-2.2348e-303
1.43625e-304
-9.63022e-304
-6.0231e-304
-4.13987e-304
-3.78685e-304
-1.7858e-304
-1.65371e-304
-7.61081e-305
-5.40171e-305
-3.09435e-305
-8.61589e-306
-1.11436e-305
5.09094e-306
-2.9035e-306
5.86279e-306
2.33718e-306
-3.12137e-304
-9.77595e-305
-6.625e-304
-4.36607e-304
-1.1168e-303
-6.8668e-304
-1.73747e-303
-8.64524e-304
-2.58906e-303
-9.05974e-304
-3.73486e-303
-6.45563e-304
-5.22586e-303
2.2854e-304
-7.07727e-303
2.25589e-303
-9.22123e-303
6.33304e-303
-1.14111e-302
1.39492e-302
-1.27524e-302
2.76612e-302
-1.78941e-302
5.22578e-302
-4.02551e-303
8.91486e-302
-6.50712e-303
1.19472e-302
-3.07052e-303
7.94498e-304
-1.4206e-303
-4.60255e-304
-6.52299e-304
-3.63065e-304
-2.97623e-304
-1.67545e-304
-1.33517e-304
-5.19251e-305
-5.73981e-305
-2.48849e-306
-2.22729e-305
1.20942e-305
-6.49805e-306
1.15773e-305
5.18265e-306
-4.69331e-304
-1.33581e-304
-9.97693e-304
-5.82089e-304
-1.67713e-303
-9.06228e-304
-2.59837e-303
-1.11852e-303
-3.8559e-303
-1.12848e-303
-5.54437e-303
-7.14816e-304
-7.74561e-303
5.33415e-304
-1.05023e-302
3.31279e-303
-1.37711e-302
8.76434e-303
-1.73475e-302
1.87318e-302
-2.04012e-302
3.62345e-302
-3.03345e-302
6.62941e-302
-9.01261e-303
1.08346e-301
-8.30657e-303
1.48111e-302
-3.91283e-303
1.49755e-303
-1.88092e-303
-2.66025e-304
-9.04691e-304
-3.12718e-304
-4.32097e-304
-1.52131e-304
-2.02844e-304
-4.1675e-305
-9.1697e-305
7.68314e-306
-3.79875e-305
2.15896e-305
-1.21784e-305
1.93157e-305
9.66137e-306
-6.62368e-304
-1.72692e-304
-1.40727e-303
-7.42598e-304
-2.35541e-303
-1.14176e-303
-3.62809e-303
-1.37829e-303
-5.3524e-303
-1.33367e-303
-7.65755e-303
-7.28655e-304
-1.06613e-302
9.42309e-304
-1.44424e-302
4.52281e-303
-1.89953e-302
1.13659e-302
-2.41676e-302
2.36113e-302
-2.91404e-302
4.46242e-302
-4.37695e-302
7.95653e-302
-1.45969e-302
1.26668e-301
-1.03295e-302
1.78359e-302
-4.82821e-303
2.23879e-303
-2.37694e-303
-4.02756e-305
-1.18458e-303
-2.3881e-304
-5.88253e-304
-1.2315e-304
-2.87707e-304
-2.45297e-305
-1.36221e-304
2.1358e-305
-5.99164e-305
3.31192e-305
-2.08716e-305
2.87197e-305
1.60944e-305
-9.04738e-304
-2.16833e-304
-1.91821e-303
-9.23749e-304
-3.19274e-303
-1.40099e-303
-4.88276e-303
-1.65204e-303
-7.1502e-303
-1.52685e-303
-1.01613e-302
-6.87787e-304
-1.40728e-302
1.46361e-303
-1.90045e-302
5.90369e-303
-2.49949e-302
1.417e-302
-3.19404e-302
2.86373e-302
-3.89781e-302
5.29403e-302
-5.82269e-302
9.24782e-302
-2.0835e-302
1.45461e-301
-1.26203e-302
2.10102e-302
-5.8537e-303
3.02366e-303
-2.93401e-303
2.11876e-304
-1.50576e-303
-1.46192e-304
-7.73744e-304
-8.31626e-305
-3.92791e-304
-1.81236e-306
-1.94095e-304
3.7515e-305
-9.03199e-305
4.55158e-305
-3.40827e-305
3.84086e-305
2.37271e-305
-1.21147e-303
-2.69534e-304
-2.56059e-303
-1.13005e-303
-4.23483e-303
-1.6914e-303
-6.42396e-303
-1.94733e-303
-9.32683e-303
-1.71333e-303
-1.31481e-302
-5.90783e-304
-1.80848e-302
2.10759e-303
-2.43002e-302
7.47993e-303
-3.18804e-302
1.72174e-302
-4.07732e-302
3.38769e-302
-5.00661e-302
6.1292e-302
-7.39774e-302
1.05184e-301
-2.78929e-302
1.64715e-301
-1.5201e-302
2.42357e-302
-7.03158e-303
3.86363e-303
-3.58452e-303
4.9481e-304
-1.88852e-303
-3.66485e-305
-1.00086e-303
-3.47322e-305
-5.2571e-304
2.42324e-305
-2.70194e-304
5.40943e-305
-1.32605e-304
5.64518e-305
-5.45905e-305
4.49812e-305
2.59617e-305
-1.59932e-303
-3.34661e-304
-3.36837e-303
-1.36053e-303
-5.53272e-303
-2.01369e-303
-8.31979e-303
-2.26693e-303
-1.19667e-302
-1.89719e-303
-1.67171e-302
-4.43041e-304
-2.2808e-302
2.86657e-303
-3.0446e-302
9.24058e-303
-3.97679e-302
2.04923e-302
-5.07841e-302
3.9312e-302
-6.24778e-302
6.96447e-302
-9.15371e-302
1.17339e-301
-3.55179e-302
1.81542e-301
-1.80742e-302
2.73277e-302
-8.39969e-303
4.75354e-303
-4.36016e-303
8.18091e-304
-2.35406e-303
9.23597e-305
-1.2828e-303
2.16636e-305
-6.94505e-304
5.20205e-305
-3.69227e-304
6.90205e-305
-1.89605e-304
6.35052e-305
-8.73438e-305
4.55356e-305
2.1206e-305
-2.17279e-312
-1.47333e-311
-2.77548e-312
-1.54661e-310
-1.35033e-312
-1.13197e-310
-1.23687e-312
-3.65627e-311
-1.01691e-312
-5.39776e-312
-5.51002e-313
7.9481e-313
-2.20798e-313
8.13475e-313
-7.16595e-314
3.24356e-313
-1.99294e-314
9.6884e-314
-4.92181e-315
2.46272e-314
-1.10437e-315
5.61631e-315
-2.28394e-316
1.18301e-315
-4.38545e-317
2.348e-316
-7.81523e-318
4.46533e-317
-1.2775e-318
8.23857e-318
-1.85448e-319
1.4671e-318
-2.21193e-320
2.39503e-319
-1.75393e-321
3.07457e-320
1.67488e-321
-1.14598e-311
-8.52068e-311
-2.05714e-311
-5.95915e-310
-1.54731e-311
-3.73664e-310
-1.16091e-311
-1.12895e-310
-6.9966e-312
-1.54664e-311
-3.25291e-312
3.14594e-312
-1.22452e-312
2.87612e-312
-3.90993e-313
1.16196e-312
-1.09603e-313
3.57226e-313
-2.76398e-314
9.39193e-314
-6.37853e-315
2.21885e-314
-1.36242e-315
4.84264e-315
-2.71015e-316
9.95327e-316
-5.02088e-317
1.95782e-316
-8.58141e-318
3.73122e-317
-1.31683e-318
6.87552e-318
-1.69761e-319
1.17728e-318
-1.5321e-320
1.65408e-319
1.10374e-320
-4.68752e-311
-4.25151e-310
-9.10984e-311
-1.96281e-309
-7.18037e-311
-1.03914e-309
-4.87791e-311
-2.8563e-310
-2.60496e-311
-3.42601e-311
-1.12001e-311
1.00099e-311
-4.0456e-312
8.05453e-312
-1.27079e-312
3.23759e-312
-3.56091e-313
1.00974e-312
-9.06918e-314
2.713e-313
-2.128e-314
6.57383e-314
-4.64306e-315
1.4747e-314
-9.46959e-316
3.12068e-315
-1.80559e-316
6.33074e-316
-3.19302e-317
1.24695e-316
-5.11483e-318
2.38447e-317
-6.99646e-319
4.28367e-318
-6.92087e-320
6.50353e-319
5.09332e-320
-1.95024e-310
-2.06957e-309
-3.63819e-310
-6.0032e-309
-2.75484e-310
-2.67652e-309
-1.69095e-310
-6.61059e-310
-8.24141e-311
-6.63585e-311
-3.33529e-311
2.80732e-311
-1.16424e-311
2.02457e-311
-3.60176e-312
8.05623e-312
-1.00715e-312
2.53593e-312
-2.58291e-313
6.93193e-313
-6.14129e-314
1.71602e-313
-1.36408e-314
3.94364e-314
-2.84279e-315
8.56926e-315
-5.55952e-316
1.78933e-315
-1.0132e-316
3.63763e-316
-1.68479e-317
7.20832e-317
-2.42204e-318
1.35361e-317
-2.57838e-319
2.19599e-318
1.9566e-319
-8.10651e-310
-1.03893e-308
-1.3336e-309
-1.73365e-308
-9.49504e-310
-6.46956e-309
-5.26433e-310
-1.42971e-309
-2.37321e-310
-1.15406e-310
-9.13792e-311
7.07068e-311
-3.10328e-311
4.68783e-311
-9.49111e-312
1.84938e-311
-2.65347e-312
5.87173e-312
-6.85786e-313
1.63107e-312
-1.65251e-313
4.11995e-313
-3.73561e-314
9.68734e-314
-7.9511e-315
2.15884e-314
-1.59368e-315
4.63449e-315
-2.98961e-316
9.712e-316
-5.14922e-317
1.99064e-316
-7.7449e-318
3.89351e-317
-8.7838e-319
6.69765e-318
6.694e-319
-3.52105e-309
-5.25119e-308
-4.67316e-309
-4.73897e-308
-3.01765e-309
-1.46642e-308
-1.5125e-309
-2.89826e-309
-6.36035e-310
-1.7471e-310
-2.34931e-310
1.6536e-310
-7.81028e-311
1.02274e-310
-2.37206e-311
4.00782e-311
-6.65121e-312
1.28412e-311
-1.73608e-312
3.62497e-312
-4.24587e-313
9.34062e-313
-9.77757e-314
2.24621e-313
-2.12662e-314
5.13071e-314
-4.36933e-315
1.13127e-314
-8.43449e-316
2.43901e-315
-1.50328e-316
5.15081e-316
-2.36076e-317
1.04115e-316
-2.84058e-318
1.8674e-317
2.0599e-318
-1.76704e-308
-2.67729e-307
-1.65763e-308
-1.17441e-307
-9.17952e-309
-3.05808e-308
-4.13236e-309
-5.49999e-309
-1.6297e-309
-2.41058e-310
-5.8148e-310
3.51272e-310
-1.90409e-310
2.08295e-310
-5.77135e-311
8.16493e-311
-1.62966e-311
2.64849e-311
-4.31031e-312
7.60988e-312
-1.07288e-312
2.00148e-312
-2.5228e-313
4.92104e-313
-5.61829e-314
1.15051e-313
-1.18519e-314
2.59767e-314
-2.35693e-315
5.73204e-315
-4.34762e-316
1.23715e-315
-7.11423e-317
2.55257e-316
-9.01537e-318
4.67549e-317
5.48945e-318
-9.18012e-308
-7.41946e-307
-5.5517e-308
-2.31303e-307
-2.56039e-308
-5.50222e-308
-1.04467e-308
-9.31271e-309
-3.90884e-309
-2.59407e-310
-1.35876e-309
6.73063e-310
-4.40955e-310
3.8749e-310
-1.33969e-310
1.52382e-310
-3.82126e-311
5.00514e-311
-1.02642e-311
1.46214e-311
-2.60438e-312
3.91699e-312
-6.25986e-313
9.81592e-313
-1.42817e-313
2.33831e-313
-3.09298e-314
5.37123e-314
-6.33008e-315
1.20215e-314
-1.20584e-315
2.62024e-315
-2.04977e-316
5.43177e-316
-2.73573e-317
9.91818e-317
1.15494e-317
-4.94479e-303
-4.93336e-304
-1.03683e-302
-1.86309e-303
-1.68817e-302
-2.72618e-303
-2.50996e-302
-2.99055e-303
-3.5658e-302
-2.34855e-303
-4.92049e-302
-2.24025e-304
-6.6377e-302
4.30306e-303
-8.77571e-302
1.26076e-302
-1.13811e-301
2.66686e-302
-1.44809e-301
4.92735e-302
-1.76137e-301
8.43164e-302
-2.612e-301
1.37103e-301
-1.0032e-301
2.04285e-301
-4.88767e-302
3.23972e-302
-2.29149e-302
6.40284e-303
-1.2188e-302
1.48518e-303
-6.77863e-303
3.81533e-304
-3.81465e-303
1.51851e-304
-2.13496e-303
1.10496e-304
-1.17369e-303
9.21944e-305
-6.24513e-304
6.68437e-305
-3.10897e-304
3.68248e-305
9.36051e-306
-1.15365e-304
-7.09495e-303
-6.78811e-304
-1.48341e-302
-2.41847e-303
-2.40119e-302
-3.54742e-303
-3.54305e-302
-3.90624e-303
-4.99161e-302
-3.11438e-303
-6.83107e-302
-5.10029e-304
-9.14516e-302
4.92195e-303
-1.2014e-301
1.46422e-302
-1.55097e-301
3.06686e-302
-1.96915e-301
5.57056e-302
-2.39797e-301
9.33046e-302
-3.52116e-301
1.47825e-301
-1.42508e-301
2.14014e-301
-6.40408e-302
3.52213e-302
-2.98473e-302
7.47296e-303
-1.59957e-302
1.97775e-303
-9.02131e-303
6.2496e-304
-5.16213e-303
2.71095e-304
-2.93833e-303
1.6343e-304
-1.6395e-303
1.09204e-304
-8.81565e-304
6.55569e-305
-4.41159e-304
2.8965e-305
3.24915e-306
-1.80228e-304
-9.25436e-303
-9.3471e-304
-1.92957e-302
-3.18892e-303
-3.11178e-302
-4.73587e-303
-4.57149e-302
-5.35585e-303
-6.41089e-302
-4.60823e-303
-8.73392e-302
-1.76914e-303
-1.16443e-301
4.23219e-303
-1.52426e-301
1.48867e-302
-1.96223e-301
3.21792e-302
-2.48648e-301
5.86457e-302
-3.0296e-301
9.74209e-302
-4.40474e-301
1.51983e-301
-1.84424e-301
2.15902e-301
-7.9821e-302
3.64742e-302
-3.69665e-302
8.05389e-303
-1.97827e-302
2.28245e-303
-1.11813e-302
7.96545e-304
-6.42249e-303
3.65467e-304
-3.66953e-303
2.10358e-304
-2.05252e-303
1.28194e-304
-1.10439e-303
7.04721e-305
-5.52734e-304
2.94617e-305
4.82703e-306
-2.30239e-304
-1.1446e-302
-1.32437e-303
-2.37816e-302
-4.37324e-303
-3.8219e-302
-6.61069e-303
-5.5948e-302
-7.76122e-303
-7.81874e-302
-7.33231e-303
-1.06171e-301
-4.55444e-303
-1.41125e-301
1.67559e-303
-1.84236e-301
1.2851e-302
-2.36606e-301
3.08971e-302
-2.99194e-301
5.81799e-302
-3.64192e-301
9.74797e-302
-5.25875e-301
1.51648e-301
-2.2484e-301
2.13652e-301
-9.59774e-302
3.68314e-302
-4.43228e-302
8.32126e-303
-2.36554e-302
2.4483e-303
-1.33506e-302
9.05125e-304
-7.66145e-303
4.34424e-304
-4.37259e-303
2.50949e-304
-2.44178e-303
1.50291e-304
-1.31173e-303
8.24864e-305
-6.56858e-304
3.73256e-305
1.12395e-305
-2.76436e-304
-1.37016e-302
-1.93087e-303
-2.83386e-302
-6.2235e-303
-4.53681e-302
-9.5781e-303
-6.61785e-302
-1.16605e-302
-9.2188e-302
-1.19291e-302
-1.24823e-301
-9.57514e-303
-1.6549e-301
-3.47225e-303
-2.15539e-301
7.87015e-303
-2.76215e-301
2.63293e-302
-3.4859e-301
5.41462e-302
-4.23749e-301
9.38684e-302
-6.08985e-301
1.47973e-301
-2.64123e-301
2.09162e-301
-1.12387e-301
3.66704e-302
-5.18918e-302
8.38629e-303
-2.76406e-302
2.51478e-303
-1.55683e-302
9.62764e-304
-8.91509e-303
4.79534e-304
-5.07575e-303
2.83326e-304
-2.82714e-303
1.7252e-304
-1.51585e-303
9.80246e-305
-7.59421e-304
4.87902e-305
1.95441e-305
-3.21607e-304
-1.60654e-302
-2.86399e-303
-3.3038e-302
-9.06941e-303
-5.26556e-302
-1.41688e-302
-7.65135e-302
-1.77587e-302
-1.06237e-301
-1.92418e-302
-1.43447e-301
-1.777e-302
-1.89733e-301
-1.21908e-302
-2.46604e-301
-1.00418e-303
-3.15438e-301
1.7653e-302
-3.9742e-301
4.597e-302
-4.82528e-301
8.63901e-302
-6.9112e-301
1.41222e-301
-3.03065e-301
2.03058e-301
-1.29054e-301
3.60982e-302
-5.9652e-302
8.28071e-303
-3.17382e-302
2.49505e-303
-1.78473e-302
9.73808e-304
-1.02e-302
5.00309e-304
-5.79399e-303
3.04571e-304
-3.21971e-303
1.90919e-304
-1.72351e-303
1.12974e-304
-8.63585e-304
6.03882e-305
2.76077e-305
-3.67001e-304
-1.85936e-302
-4.2699e-303
-3.79697e-302
-1.33452e-302
-6.02011e-302
-2.10821e-302
-8.71052e-302
-2.69831e-302
-1.2053e-301
-3.03838e-302
-1.62306e-301
-3.0388e-302
-2.14211e-301
-2.581e-302
-2.77918e-301
-1.51175e-302
-3.54948e-301
3.5865e-303
-4.46603e-301
3.25252e-302
-5.41774e-301
7.41693e-302
-7.73909e-301
1.30818e-301
-3.42663e-301
1.95024e-301
-1.46076e-301
3.49997e-302
-6.76097e-302
7.95929e-303
-3.59478e-302
2.36994e-303
-2.01911e-302
9.28965e-304
-1.15222e-302
4.90879e-304
-6.53366e-303
3.09947e-304
-3.62439e-303
2.01313e-304
-1.9377e-303
1.23834e-304
-9.7082e-304
6.95957e-305
3.40595e-305
-4.13294e-304
-2.13463e-302
-6.34258e-303
-4.3227e-302
-1.96225e-302
-6.81295e-302
-3.12341e-302
-9.81197e-302
-4.05486e-302
-1.35297e-301
-4.68107e-302
-1.81724e-301
-4.90718e-302
-2.39381e-301
-4.61033e-302
-3.10121e-301
-3.6319e-302
-3.95614e-301
-1.7731e-302
-4.97293e-301
1.2015e-302
-6.02974e-301
5.55578e-302
-8.59219e-301
1.15346e-301
-3.84083e-301
1.83932e-301
-1.63617e-301
3.30531e-302
-7.57974e-302
7.29679e-303
-4.02752e-302
2.08301e-303
-2.26006e-302
8.01064e-304
-1.28827e-302
4.37293e-304
-7.29585e-303
2.91661e-304
-4.04214e-303
1.98963e-304
-2.15903e-303
1.27645e-304
-1.08145e-303
7.471e-305
3.81444e-305
-4.60721e-304
-2.43739e-302
-9.33918e-303
-4.88774e-302
-2.86485e-302
-7.65275e-302
-4.58185e-302
-1.09682e-301
-6.00246e-302
-1.50736e-301
-7.03981e-302
-2.02015e-301
-7.59346e-302
-2.65732e-301
-7.53725e-302
-3.43929e-301
-6.70535e-302
-4.38437e-301
-4.88448e-302
-5.50831e-301
-1.81468e-302
-6.67856e-301
2.80153e-302
-9.49207e-301
9.24419e-302
-4.2869e-301
1.67766e-301
-1.81907e-301
2.96966e-302
-8.42709e-302
6.07038e-303
-4.4733e-302
1.53087e-303
-2.5077e-302
5.39492e-304
-1.42799e-302
3.14302e-304
-8.07896e-303
2.37053e-304
-4.47176e-303
1.77542e-304
-2.38675e-303
1.21328e-304
-1.1951e-303
7.43746e-305
3.94323e-305
-5.09219e-304
-2.76926e-302
-1.35997e-302
-5.49123e-302
-4.13994e-302
-8.53734e-302
-6.63754e-302
-1.21792e-301
-8.74174e-302
-1.66918e-301
-1.03513e-301
-2.23391e-301
-1.13632e-301
-2.9368e-301
-1.1651e-301
-3.80041e-301
-1.10432e-301
-4.84477e-301
-9.30685e-302
-6.08704e-301
-6.14506e-302
-7.38401e-301
-1.20511e-302
-1.0464e-300
5.85715e-302
-4.78114e-301
1.43327e-301
-2.01239e-301
2.40353e-302
-9.31051e-302
3.92362e-303
-4.93393e-302
5.4696e-304
-2.7622e-302
6.23591e-305
-1.57115e-302
8.14201e-305
-8.88021e-303
1.26471e-304
-4.91108e-303
1.27842e-304
-2.61946e-303
1.00823e-304
-1.31106e-303
6.69967e-305
3.74694e-305
-5.58546e-304
-3.1245e-302
-1.95784e-302
-6.11685e-302
-5.9151e-302
-9.44261e-302
-9.48901e-302
-1.34188e-301
-1.25258e-301
-1.83645e-301
-1.49094e-301
-2.45801e-301
-1.65406e-301
-3.23421e-301
-1.73034e-301
-4.18995e-301
-1.70257e-301
-5.34711e-301
-1.54531e-301
-6.72437e-301
-1.22379e-301
-8.16782e-301
-6.94633e-302
-1.1537e-300
8.7142e-303
-5.34271e-301
1.05714e-301
-2.21963e-301
1.46859e-302
-1.02383e-301
3.11575e-304
-5.41113e-302
-1.12035e-303
-3.02355e-302
-7.52289e-304
-1.71736e-302
-3.20644e-304
-9.69574e-303
-6.83387e-305
-5.35728e-303
3.68624e-305
-2.8554e-303
6.04474e-305
-1.4284e-303
5.02944e-305
3.15008e-305
-6.08337e-304
-3.48373e-302
-2.78959e-302
-6.72013e-302
-8.35973e-302
-1.03058e-301
-1.33924e-301
-1.46165e-301
-1.76725e-301
-2.00246e-301
-2.10715e-301
-2.68727e-301
-2.35121e-301
-3.54699e-301
-2.49073e-301
-4.60915e-301
-2.50997e-301
-5.89777e-301
-2.38151e-301
-7.4333e-301
-2.06437e-301
-9.05123e-301
-1.50408e-301
-1.27417e-300
-6.39908e-302
-5.99218e-301
4.76313e-302
-2.44431e-301
-4.35501e-304
-1.12167e-301
-5.56491e-303
-5.90517e-302
-3.82776e-303
-3.29095e-302
-2.07107e-303
-1.86582e-302
-9.70094e-304
-1.05198e-302
-3.83656e-304
-5.80656e-303
-1.11908e-304
-3.09225e-303
-7.11057e-306
-1.54584e-303
2.1172e-305
2.03515e-305
-6.58051e-304
-3.80315e-302
-3.94413e-302
-7.2083e-302
-1.17041e-301
-1.10002e-301
-1.8683e-301
-1.56298e-301
-2.4579e-301
-2.15308e-301
-2.92666e-301
-2.90896e-301
-3.27238e-301
-3.86496e-301
-3.493e-301
-5.05159e-301
-3.57671e-301
-6.49558e-301
-3.49526e-301
-8.21977e-301
-3.20058e-301
-1.00497e-300
-2.6245e-301
-1.41046e-300
-1.68489e-301
-6.74795e-301
-4.13166e-302
-2.6887e-301
-2.43404e-302
-1.22445e-301
-1.48052e-302
-6.4128e-302
-8.03474e-303
-3.56201e-302
-4.0939e-303
-2.01505e-302
-1.95495e-303
-1.13432e-302
-8.58541e-304
-6.25314e-303
-3.35998e-304
-3.32651e-303
-1.09794e-304
-1.66144e-303
-2.39501e-305
2.50435e-306
-7.06789e-304
-3.99534e-302
-5.55856e-302
-7.4055e-302
-1.62746e-301
-1.12972e-301
-2.58066e-301
-1.62102e-301
-3.37425e-301
-2.26364e-301
-3.99996e-301
-3.09976e-301
-4.46769e-301
-4.16681e-301
-4.78779e-301
-5.49869e-301
-4.95658e-301
-7.12599e-301
-4.94684e-301
-9.07536e-301
-4.7035e-301
-1.11637e-300
-4.14294e-301
-1.56378e-300
-3.15748e-301
-7.61877e-301
-1.75004e-301
-2.95177e-301
-6.10803e-302
-1.33067e-301
-2.87491e-302
-6.92532e-302
-1.42319e-302
-3.83219e-302
-7.00549e-303
-2.16254e-302
-3.34663e-303
-1.21507e-302
-1.52227e-303
-6.68736e-303
-6.48532e-304
-3.55211e-303
-2.5399e-304
-1.77168e-303
-8.8292e-305
-2.36002e-305
-7.52898e-304
-3.88809e-302
-7.86723e-302
-6.98979e-302
-2.25557e-301
-1.08081e-301
-3.53696e-301
-1.59596e-301
-4.57827e-301
-2.29585e-301
-5.38532e-301
-3.22302e-301
-5.99114e-301
-4.41673e-301
-6.42737e-301
-5.91506e-301
-6.70392e-301
-7.75449e-301
-6.79739e-301
-9.96808e-301
-6.6464e-301
-1.23671e-300
-6.15201e-301
-1.73229e-300
-5.18081e-301
-8.59322e-301
-3.70344e-301
-3.2263e-301
-1.15386e-301
-1.43682e-301
-4.86014e-302
-7.42811e-302
-2.27122e-302
-4.09468e-302
-1.08614e-302
-2.30435e-302
-5.14975e-303
-1.29159e-302
-2.37389e-303
-7.09141e-303
-1.05016e-303
-3.75769e-303
-4.413e-304
-1.87004e-303
-1.73361e-304
-5.89999e-305
-7.93279e-304
-3.12511e-302
-1.13084e-301
-5.36777e-302
-3.13011e-301
-8.89477e-302
-4.82037e-301
-1.42862e-301
-6.14597e-301
-2.19625e-301
-7.14724e-301
-3.22802e-301
-7.89792e-301
-4.56301e-301
-8.46224e-301
-6.24524e-301
-8.87005e-301
-8.32081e-301
-9.10444e-301
-1.08334e-300
-9.09873e-301
-1.35928e-300
-8.74015e-301
-1.9093e-300
-7.87628e-301
-9.62593e-301
-6.45324e-301
-3.49545e-301
-1.90751e-301
-1.53744e-301
-7.4282e-302
-7.90156e-302
-3.30651e-302
-4.33896e-302
-1.53956e-302
-2.43305e-302
-7.23507e-303
-1.35854e-302
-3.35909e-303
-7.42935e-303
-1.52043e-303
-3.92128e-303
-6.64758e-304
-1.94445e-303
-2.77084e-304
-1.03294e-304
-8.22389e-304
-8.8143e-303
-1.67321e-301
-1.41369e-302
-4.36953e-301
-4.53828e-302
-6.54193e-301
-1.03792e-301
-8.16522e-301
-1.8988e-301
-9.35199e-301
-3.05345e-301
-1.02397e-300
-4.54005e-301
-1.09371e-300
-6.41359e-301
-1.14993e-300
-8.73657e-301
-1.19177e-300
-1.1569e-300
-1.21196e-300
-1.4724e-300
-1.19795e-300
-2.08173e-300
-1.13385e-300
-1.06244e-300
-1.01479e-300
-3.72748e-301
-2.82657e-301
-1.62535e-301
-1.01855e-301
-8.31276e-302
-4.33902e-302
-4.5407e-302
-1.98207e-302
-2.53069e-302
-9.29334e-303
-1.40398e-302
-4.35741e-303
-7.62928e-303
-2.01165e-303
-4.00301e-303
-9.04988e-304
-1.97466e-303
-3.91441e-304
-1.53354e-304
-8.3146e-304
5.0618e-302
-2.2939e-301
7.07767e-302
-5.89009e-301
3.81737e-302
-8.57618e-301
-3.25987e-302
-1.04633e-300
-1.33609e-301
-1.17945e-300
-2.63744e-301
-1.27932e-300
-4.27503e-301
-1.36209e-300
-6.32822e-301
-1.43606e-300
-8.88848e-301
-1.50112e-300
-1.20396e-300
-1.54907e-300
-1.5597e-300
-1.56538e-300
-2.23024e-300
-1.52944e-300
-1.14445e-300
-1.4818e-300
-3.86584e-301
-3.47224e-301
-1.68775e-301
-1.17794e-301
-8.55888e-302
-4.97137e-302
-4.62739e-302
-2.28769e-302
-2.55346e-302
-1.08785e-302
-1.40385e-302
-5.19258e-303
-7.56718e-303
-2.44744e-303
-3.94232e-303
-1.12701e-303
-1.9329e-303
-5.00237e-304
-2.02132e-304
-8.09354e-304
2.13754e-301
-6.03435e-301
2.42819e-301
-1.07438e-300
1.81191e-301
-1.38901e-300
7.81215e-302
-1.59766e-300
-4.75669e-302
-1.74059e-300
-1.94223e-301
-1.84921e-300
-3.70147e-301
-1.94497e-300
-5.88704e-301
-2.03883e-300
-8.64391e-301
-2.13131e-300
-1.20919e-300
-2.21294e-300
-1.59875e-300
-2.2665e-300
-2.33449e-300
-2.27581e-300
-1.1984e-300
-1.20824e-300
-3.8532e-301
-3.01053e-301
-1.64857e-301
-1.10869e-301
-8.23753e-302
-4.94592e-302
-4.41363e-302
-2.36764e-302
-2.41922e-302
-1.15965e-302
-1.32248e-302
-5.6703e-303
-7.09082e-303
-2.72995e-303
-3.67563e-303
-1.28209e-303
-1.7936e-303
-5.7996e-304
-2.39131e-304
-7.46944e-304
6.43977e-301
-1.58064e-302
5.38136e-301
-3.7671e-301
3.81481e-301
-5.86422e-301
2.17169e-301
-7.20198e-301
5.82469e-302
-8.10354e-301
-1.01975e-301
-8.78525e-301
-2.81321e-301
-9.39175e-301
-5.0297e-301
-9.99614e-301
-7.90695e-301
-1.06011e-300
-1.16311e-300
-1.11387e-300
-1.62418e-300
-1.1486e-300
-1.28961e-300
-1.16004e-300
-5.08749e-301
-4.94087e-301
-2.36256e-301
-1.96946e-301
-1.2151e-301
-8.96832e-302
-6.60422e-302
-4.39092e-302
-3.6854e-302
-2.21672e-302
-2.06263e-302
-1.12448e-302
-1.13943e-302
-5.64252e-303
-6.13833e-303
-2.77299e-303
-3.18643e-303
-1.32482e-303
-1.55376e-303
-6.08269e-304
-2.54289e-304
-6.44546e-304
1.16275e-301
-1.52023e-301
8.18481e-302
-2.64075e-301
5.72505e-302
-3.08318e-301
2.96977e-302
-3.36784e-301
-1.1193e-303
-3.56191e-301
-3.69791e-302
-3.70325e-301
-8.16996e-302
-3.81774e-301
-1.40459e-301
-3.91684e-301
-2.17394e-301
-3.99569e-301
-3.08341e-301
-4.03169e-301
-3.69362e-301
-3.98342e-301
-3.14448e-301
-3.84323e-301
-2.01417e-301
-2.34352e-301
-1.26316e-301
-1.25264e-301
-7.68866e-302
-6.6411e-302
-4.61717e-302
-3.54195e-302
-2.7324e-302
-1.88493e-302
-1.58432e-302
-9.90865e-303
-8.94054e-303
-5.10265e-303
-4.87749e-303
-2.55755e-303
-2.54996e-303
-1.24103e-303
-1.24725e-303
-5.76979e-304
-2.43584e-304
-5.1613e-304
-8.10326e-303
-5.41084e-302
-5.13822e-303
-1.16086e-301
-3.63556e-303
-1.42963e-301
-5.3789e-303
-1.57749e-301
-1.0838e-302
-1.66303e-301
-2.03539e-302
-1.71488e-301
-3.47076e-302
-1.7485e-301
-5.47665e-302
-1.77057e-301
-8.02963e-302
-1.78193e-301
-1.07336e-301
-1.78081e-301
-1.22412e-301
-1.7626e-301
-1.13979e-301
-1.66794e-301
-9.10989e-302
-1.21785e-301
-6.68388e-302
-7.68518e-302
-4.57015e-302
-4.56684e-302
-2.97288e-302
-2.6233e-302
-1.85677e-302
-1.46671e-302
-1.11615e-302
-7.97911e-303
-6.45027e-303
-4.21134e-303
-3.57391e-303
-2.14977e-303
-1.88684e-303
-1.05786e-303
-9.27649e-304
-4.97114e-304
-2.11307e-304
-3.83075e-304
-1.40334e-302
-1.86729e-302
-1.34413e-302
-5.24936e-302
-1.14914e-302
-7.10493e-302
-9.91939e-303
-8.14234e-302
-1.00925e-302
-8.70815e-302
-1.25549e-302
-9.00686e-302
-1.7627e-302
-9.15813e-302
-2.53772e-302
-9.22475e-302
-3.52082e-302
-9.23436e-302
-4.51086e-302
-9.19036e-302
-5.10583e-302
-9.03411e-302
-5.03766e-302
-8.42866e-302
-4.43691e-302
-6.67047e-302
-3.55655e-302
-4.63944e-302
-2.62336e-302
-2.98144e-302
-1.81008e-302
-1.81449e-302
-1.18095e-302
-1.05766e-302
-7.32392e-303
-5.92821e-303
-4.32614e-303
-3.19744e-303
-2.4335e-303
-1.65865e-303
-1.2978e-303
-8.2612e-304
-6.4158e-304
-3.9167e-304
-1.67197e-304
-2.64215e-304
-8.26985e-303
-6.90458e-303
-9.45207e-303
-2.39798e-302
-9.01299e-303
-3.58e-302
-7.94316e-303
-4.31359e-302
-7.34574e-303
-4.73393e-302
-7.79253e-303
-4.95549e-302
-9.54939e-303
-5.05968e-302
-1.26126e-302
-5.097e-302
-1.66128e-302
-5.09373e-302
-2.06701e-302
-5.05192e-302
-2.34613e-302
-4.92465e-302
-2.40413e-302
-4.55538e-302
-2.23435e-302
-3.74489e-302
-1.88989e-302
-2.75605e-302
-1.46566e-302
-1.86641e-302
-1.05496e-302
-1.18536e-302
-7.11487e-303
-7.13822e-303
-4.52375e-303
-4.09925e-303
-2.72139e-303
-2.25111e-303
-1.551e-303
-1.18347e-303
-8.34655e-304
-5.95339e-304
-4.14618e-304
-2.84225e-304
-1.21563e-304
-1.70054e-304
-4.11875e-303
-2.70059e-303
-5.3088e-303
-1.09549e-302
-5.51757e-303
-1.79055e-302
-5.11612e-303
-2.27549e-302
-4.69555e-303
-2.57756e-302
-4.66129e-303
-2.74688e-302
-5.22798e-303
-2.8302e-302
-6.42561e-303
-2.86155e-302
-8.08948e-303
-2.8601e-302
-9.85742e-303
-2.82685e-302
-1.12374e-302
-2.73378e-302
-1.18027e-302
-2.51303e-302
-1.13389e-302
-2.10564e-302
-9.93309e-303
-1.60242e-302
-7.97117e-303
-1.12347e-302
-5.91186e-303
-7.35456e-303
-4.08566e-303
-4.53818e-303
-2.64771e-303
-2.6557e-303
-1.61589e-303
-1.47929e-303
-9.30715e-304
-7.86014e-304
-5.0454e-304
-3.98486e-304
-2.51541e-304
-1.91215e-304
-8.17632e-305
-1.02584e-304
-1.90321e-303
-1.08985e-303
-2.67622e-303
-4.96679e-303
-2.97934e-303
-8.80165e-303
-2.91004e-303
-1.17846e-302
-2.71946e-303
-1.3808e-302
-2.63488e-303
-1.5028e-302
-2.80063e-303
-1.56722e-302
-3.26099e-303
-1.5939e-302
-3.95995e-303
-1.59497e-302
-4.75389e-303
-1.5714e-302
-5.44126e-303
-1.50909e-302
-5.81053e-303
-1.3801e-302
-5.70691e-303
-1.16718e-302
-5.12127e-303
-9.06024e-303
-4.2083e-303
-6.49752e-303
-3.1881e-303
-4.344e-303
-2.24286e-303
-2.72858e-303
-1.47426e-303
-1.61952e-303
-9.09578e-304
-9.11965e-304
-5.28119e-304
-4.88502e-304
-2.87874e-304
-2.49086e-304
-1.43842e-304
-1.19925e-304
-5.117e-305
-5.82343e-305
-8.34234e-304
-4.44847e-304
-1.25127e-303
-2.21999e-303
-1.47199e-303
-4.22537e-303
-1.50741e-303
-5.94279e-303
-1.44614e-303
-7.20203e-303
-1.39653e-303
-8.01476e-303
-1.44144e-303
-8.47295e-303
-1.61819e-303
-8.67838e-303
-1.91492e-303
-8.70019e-303
-2.27666e-303
-8.54835e-303
-2.61565e-303
-8.16061e-303
-2.82613e-303
-7.4283e-303
-2.81882e-303
-6.30764e-303
-2.57269e-303
-4.95301e-303
-2.14979e-303
-3.60418e-303
-1.65362e-303
-2.44473e-303
-1.17846e-303
-1.55526e-303
-7.82698e-304
-9.32743e-304
-4.86761e-304
-5.29471e-304
-2.84264e-304
-2.8529e-304
-1.55537e-304
-1.46046e-304
-7.77853e-305
-7.04414e-305
-2.9942e-305
-3.12142e-305
-3.49377e-304
-1.81155e-304
-5.49613e-304
-9.72741e-304
-6.75654e-304
-1.97204e-303
-7.21094e-304
-2.90282e-303
-7.1151e-304
-3.63381e-303
-6.92427e-304
-4.13464e-303
-7.05799e-304
-4.43304e-303
-7.75758e-304
-4.57519e-303
-9.03763e-304
-4.59708e-303
-1.0695e-303
-4.50704e-303
-1.23381e-303
-4.28101e-303
-1.34493e-303
-3.88007e-303
-1.35639e-303
-3.29832e-303
-1.25307e-303
-2.60672e-303
-1.0598e-303
-1.91447e-303
-8.24218e-304
-1.31138e-303
-5.929e-304
-8.41755e-304
-3.96738e-304
-5.08597e-304
-2.48121e-304
-2.9036e-304
-1.45467e-304
-1.57085e-304
-7.9773e-305
-8.06092e-305
-3.98812e-305
-3.88968e-305
-1.64474e-305
-1.58416e-305
-1.40254e-304
-7.28524e-305
-2.28256e-304
-4.15893e-304
-2.90361e-304
-8.91794e-304
-3.21001e-304
-1.36875e-303
-3.25586e-304
-1.7665e-303
-3.21299e-304
-2.05343e-303
-3.27295e-304
-2.23246e-303
-3.56759e-304
-2.32186e-303
-4.13063e-304
-2.33886e-303
-4.88883e-304
-2.28927e-303
-5.66779e-304
-2.1653e-303
-6.22262e-304
-1.95473e-303
-6.3276e-304
-1.6608e-303
-5.89751e-304
-1.31693e-303
-5.03178e-304
-9.72752e-304
-3.94457e-304
-6.70664e-304
-2.85663e-304
-4.33144e-304
-1.92156e-304
-2.63059e-304
-1.20627e-304
-1.50762e-304
-7.08858e-305
-8.17653e-305
-3.89107e-305
-4.20046e-305
-1.94253e-305
-2.0254e-305
-8.50943e-306
-7.62916e-306
-5.40729e-305
-2.87045e-305
-8.9969e-305
-1.72829e-304
-1.17348e-304
-3.8978e-304
-1.33604e-304
-6.21643e-304
-1.39109e-304
-8.25433e-304
-1.39757e-304
-9.79125e-304
-1.4355e-304
-1.0788e-303
-1.56848e-304
-1.13049e-303
-1.82008e-304
-1.14181e-303
-2.16397e-304
-1.11627e-303
-2.52368e-304
-1.0521e-303
-2.78784e-304
-9.46359e-304
-2.85273e-304
-8.02946e-304
-2.6761e-304
-6.37582e-304
-2.29776e-304
-4.72524e-304
-1.8116e-304
-3.27138e-304
-1.31814e-304
-2.12136e-304
-8.89795e-305
-1.29269e-304
-5.59839e-305
-7.4259e-305
-3.29332e-305
-4.03227e-305
-1.80753e-305
-2.07141e-305
-9.00282e-306
-9.97085e-306
-4.15802e-306
-3.49258e-306
-2.00477e-305
-1.10147e-305
-3.37392e-305
-6.95902e-305
-4.47162e-305
-1.64349e-304
-5.21387e-305
-2.71557e-304
-5.56498e-305
-3.70247e-304
-5.70972e-305
-4.47601e-304
-5.95758e-305
-4.99444e-304
-6.58514e-305
-5.27182e-304
-7.71482e-305
-5.3391e-304
-9.24952e-305
-5.2155e-304
-1.08613e-304
-4.90117e-304
-1.20642e-304
-4.39419e-304
-1.24048e-304
-3.72144e-304
-1.16914e-304
-2.9555e-304
-1.00835e-304
-2.19411e-304
-7.9816e-305
-1.52274e-304
-5.82577e-305
-9.89855e-305
-3.94098e-305
-6.04349e-305
-2.48217e-305
-3.47556e-305
-1.46015e-305
-1.88746e-305
-8.00542e-306
-9.6865e-306
-3.97501e-306
-4.65062e-306
-1.92333e-306
-1.522e-306
-7.15471e-306
-4.09875e-306
-1.20577e-305
-2.70849e-305
-1.60865e-305
-6.67582e-305
-1.91025e-305
-1.13999e-304
-2.08777e-305
-1.59312e-304
-2.19471e-305
-1.9605e-304
-2.34242e-305
-2.21377e-304
-2.64083e-305
-2.35291e-304
-3.14336e-305
-2.38947e-304
-3.81227e-305
-2.33302e-304
-4.51065e-305
-2.18698e-304
-5.03498e-305
-1.95496e-304
-5.19627e-305
-1.65222e-304
-4.91345e-305
-1.31132e-304
-4.2505e-305
-9.7404e-305
-3.37306e-305
-6.76781e-305
-2.46657e-305
-4.40467e-305
-1.67021e-305
-2.69134e-305
-1.05199e-305
-1.54788e-305
-6.18265e-306
-8.39925e-306
-3.38342e-306