/*--------------------------------*- C++ -*----------------------------------*\
| =========                 |                                                 |
| \\      /  F ield         | OpenFOAM: The Open Source CFD Toolbox           |
|  \\    /   O peration     | Version:  2406                                  |
|   \\  /    A nd           | Website:  www.openfoam.com                      |
|    \\/     M anipulation  |                                                 |
\*---------------------------------------------------------------------------*/
FoamFile
{
    version     2.0;
    format      ascii;
    arch        "LSB;label=32;scalar=64";
    class       volVectorField;
    location    "0.15";
    object      U;
}
// * * * * * * * * * * * * * * * * * * * * * * * * * * * * * * * * * * * * * //

dimensions      [0 1 -1 0 0 0 0];

internalField   nonuniform List<vector> 
2268
(
(-3.17846e-301 -1.13442e-301 0)
(-9.4926e-301 -5.01328e-301 0)
(-1.75617e-300 -7.79846e-301 0)
(-2.85634e-300 -1.02988e-300 0)
(-4.39495e-300 -1.20417e-300 0)
(-6.52204e-300 -1.15853e-300 0)
(-9.37832e-300 -5.9948e-301 0)
(-1.30554e-299 9.93215e-301 0)
(-1.75043e-299 4.54883e-300 0)
(-2.2267e-299 1.17618e-299 0)
(-2.52254e-299 2.62605e-299 0)
(-1.52193e-299 5.60654e-299 0)
(8.82611e-299 1.47655e-298 0)
(-3.75709e-299 2.12344e-299 0)
(-1.98131e-299 -3.82262e-300 0)
(-7.13644e-300 -3.37957e-300 0)
(-2.69211e-300 -1.60294e-300 0)
(-1.06471e-300 -6.27404e-301 0)
(-4.28363e-301 -2.09708e-301 0)
(-1.67007e-301 -5.44942e-302 0)
(-5.81641e-302 -6.4292e-303 0)
(-1.49491e-302 2.54377e-303 0)
(-1.217e-303 8.15593e-304 0)
(-1.02285e-300 -2.59296e-301 0)
(-3.04755e-300 -1.25046e-300 0)
(-5.56351e-300 -1.98102e-300 0)
(-8.9761e-300 -2.56167e-300 0)
(-1.37077e-299 -2.83796e-300 0)
(-2.01879e-299 -2.3628e-300 0)
(-2.8806e-299 -2.82194e-301 0)
(-3.97849e-299 4.93538e-300 0)
(-5.29155e-299 1.58801e-299 0)
(-6.69164e-299 3.70902e-299 0)
(-7.76025e-299 7.70527e-299 0)
(-7.14339e-299 1.55318e-298 0)
(-1.77734e-299 2.97192e-298 0)
(-7.38725e-299 4.26957e-299 0)
(-3.56377e-299 -8.91431e-301 0)
(-1.53861e-299 -3.54098e-300 0)
(-6.60112e-300 -2.02772e-300 0)
(-2.85085e-300 -8.58989e-301 0)
(-1.22641e-300 -2.85054e-301 0)
(-5.11259e-301 -5.72705e-302 0)
(-1.95229e-301 1.20704e-302 0)
(-5.91961e-302 1.89656e-302 0)
(-7.09526e-303 6.85166e-303 0)
(-1.77253e-300 -4.34299e-301 0)
(-5.35403e-300 -1.97965e-300 0)
(-9.77186e-300 -3.12781e-300 0)
(-1.57263e-299 -3.98215e-300 0)
(-2.39427e-299 -4.25829e-300 0)
(-3.51696e-299 -3.2232e-300 0)
(-5.0103e-299 5.50096e-301 0)
(-6.92114e-299 9.50961e-300 0)
(-9.23737e-299 2.78257e-299 0)
(-1.18161e-298 6.24476e-299 0)
(-1.42372e-298 1.25791e-298 0)
(-1.53785e-298 2.42676e-298 0)
(-1.4518e-298 4.26803e-298 0)
(-1.00682e-298 5.69375e-299 0)
(-4.7886e-299 2.44114e-300 0)
(-2.22187e-299 -2.95795e-300 0)
(-1.02157e-299 -2.0583e-300 0)
(-4.67727e-300 -9.25363e-301 0)
(-2.11793e-300 -2.97792e-301 0)
(-9.30469e-301 -3.56951e-302 0)
(-3.80019e-301 4.28608e-302 0)
(-1.28505e-301 4.42939e-302 0)
(-1.98555e-302 1.83666e-302 0)
(-2.64635e-300 -6.20528e-301 0)
(-8.06919e-300 -2.73135e-300 0)
(-1.47097e-299 -4.28147e-300 0)
(-2.35817e-299 -5.34608e-300 0)
(-3.57431e-299 -5.51718e-300 0)
(-5.22931e-299 -3.74243e-300 0)
(-7.42933e-299 1.91585e-300 0)
(-1.02551e-298 1.48315e-299 0)
(-1.37234e-298 4.05078e-299 0)
(-1.77181e-298 8.8065e-299 0)
(-2.1889e-298 1.72674e-298 0)
(-2.53904e-298 3.21187e-298 0)
(-2.85262e-298 5.35111e-298 0)
(-1.293e-298 7.19732e-299 0)
(-6.03523e-299 6.1315e-300 0)
(-2.89837e-299 -2.00821e-300 0)
(-1.39607e-299 -1.85918e-300 0)
(-6.69479e-300 -8.82455e-301 0)
(-3.17065e-300 -2.62481e-301 0)
(-1.4606e-300 8.84433e-303 0)
(-6.32983e-301 8.76357e-302 0)
(-2.34329e-301 8.06258e-302 0)
(-4.37227e-302 3.75543e-302 0)
(-3.72013e-300 -8.20814e-301 0)
(-1.14028e-299 -3.54941e-300 0)
(-2.07275e-299 -5.49674e-300 0)
(-3.30502e-299 -6.72278e-300 0)
(-4.97848e-299 -6.65915e-300 0)
(-7.24188e-299 -3.97044e-300 0)
(-1.02415e-298 3.8397e-300 0)
(-1.40998e-298 2.09136e-299 0)
(-1.88744e-298 5.40596e-299 0)
(-2.44947e-298 1.14051e-298 0)
(-3.06836e-298 2.18297e-298 0)
(-3.67487e-298 3.94128e-298 0)
(-4.34588e-298 6.33946e-298 0)
(-1.61821e-298 8.78388e-299 0)
(-7.40165e-299 1.00271e-299 0)
(-3.62191e-299 -8.62203e-301 0)
(-1.805e-299 -1.51505e-300 0)
(-8.99587e-300 -7.59037e-301 0)
(-4.43486e-300 -1.87193e-301 0)
(-2.13393e-300 7.40568e-302 0)
(-9.76201e-301 1.45316e-301 0)
(-3.91783e-301 1.27791e-301 0)
(-8.47483e-302 6.66921e-302 0)
(-5.07324e-300 -1.04253e-300 0)
(-1.55833e-299 -4.46324e-300 0)
(-2.82123e-299 -6.82291e-300 0)
(-4.46828e-299 -8.14904e-300 0)
(-6.67982e-299 -7.73113e-300 0)
(-9.64519e-299 -3.89176e-300 0)
(-1.35546e-298 6.32783e-300 0)
(-1.85757e-298 2.78876e-299 0)
(-2.48145e-298 6.85792e-299 0)
(-3.22527e-298 1.40715e-298 0)
(-4.06721e-298 2.63199e-298 0)
(-4.94212e-298 4.64384e-298 0)
(-5.94115e-298 7.32803e-298 0)
(-1.98791e-298 1.04611e-298 0)
(-8.93495e-299 1.41294e-299 0)
(-4.42994e-299 4.27629e-301 0)
(-2.26886e-299 -1.06171e-300 0)
(-1.16903e-299 -5.6975e-301 0)
(-5.9755e-300 -7.74828e-302 0)
(-2.99253e-300 1.56397e-301 0)
(-1.43897e-300 2.12041e-301 0)
(-6.23175e-301 1.82096e-301 0)
(-1.54986e-301 1.06967e-301 0)
(-6.79205e-300 -1.2971e-300 0)
(-2.08677e-299 -5.50402e-300 0)
(-3.75945e-299 -8.29385e-300 0)
(-5.90931e-299 -9.67653e-300 0)
(-8.75757e-299 -8.74356e-300 0)
(-1.2537e-298 -3.52947e-300 0)
(-1.7482e-298 9.46456e-300 0)
(-2.38083e-298 3.58133e-299 0)
(-3.16728e-298 8.43152e-299 0)
(-4.11151e-298 1.68281e-298 0)
(-5.19763e-298 3.08028e-298 0)
(-6.36327e-298 5.33458e-298 0)
(-7.67774e-298 8.36726e-298 0)
(-2.40195e-298 1.22089e-298 0)
(-1.06868e-298 1.84959e-299 0)
(-5.36742e-299 1.85851e-300 0)
(-2.8166e-299 -5.15701e-301 0)
(-1.49519e-299 -3.27575e-301 0)
(-7.89914e-300 5.79274e-302 0)
(-4.10363e-300 2.48391e-301 0)
(-2.06532e-300 2.79075e-301 0)
(-9.62248e-301 2.32334e-301 0)
(-2.84139e-301 1.49048e-301 0)
(-8.97049e-300 -1.61117e-300 0)
(-2.75444e-299 -6.68923e-300 0)
(-4.93608e-299 -9.95643e-300 0)
(-7.69598e-299 -1.13352e-299 0)
(-1.12994e-298 -9.7433e-300 0)
(-1.60225e-298 -2.84509e-300 0)
(-2.21451e-298 1.32763e-299 0)
(-2.9929e-298 4.48953e-299 0)
(-3.95839e-298 1.01461e-298 0)
(-5.12123e-298 1.97251e-298 0)
(-6.47357e-298 3.53314e-298 0)
(-7.96851e-298 6.01477e-298 0)
(-9.61591e-298 9.40551e-298 0)
(-2.85654e-298 1.39414e-298 0)
(-1.27008e-298 2.31927e-299 0)
(-6.47702e-299 3.4805e-300 0)
(-3.4779e-299 1.20263e-301 0)
(-1.89677e-299 -4.71851e-302 0)
(-1.03206e-299 2.0354e-301 0)
(-5.53606e-300 3.35287e-301 0)
(-2.89395e-300 3.3004e-301 0)
(-1.43503e-300 2.53013e-301 0)
(-5.5916e-301 1.31079e-301 0)
(-3.23613e-309 -1.29642e-308 0)
(-4.63721e-308 -2.33373e-307 0)
(-1.69964e-308 -1.95448e-307 0)
(-1.38337e-308 -6.51175e-308 0)
(-1.44059e-308 -9.76885e-309 0)
(-8.81165e-309 1.08311e-309 0)
(-3.76856e-309 1.18133e-309 0)
(-1.2726e-309 4.47797e-310 0)
(-3.63494e-310 1.25571e-310 0)
(-9.15244e-311 2.98709e-311 0)
(-2.08482e-311 6.37725e-312 0)
(-4.36636e-312 1.26106e-312 0)
(-8.48232e-313 2.36334e-313 0)
(-1.53035e-313 4.28746e-314 0)
(-2.5399e-314 7.65388e-315 0)
(-3.76817e-315 1.33061e-315 0)
(-4.65927e-316 2.08139e-316 0)
(-3.90762e-317 2.34955e-317 0)
(-9.44041e-319 8.76611e-319 0)
(1.33145e-308 -1.30122e-307 0)
(-2.7496e-307 -1.26865e-306 0)
(-1.94717e-307 -9.03888e-307 0)
(-1.58557e-307 -2.89968e-307 0)
(-1.06496e-307 -4.26526e-308 0)
(-5.32472e-308 6.63584e-309 0)
(-2.10217e-308 6.71889e-309 0)
(-6.9359e-309 2.70225e-309 0)
(-1.99108e-309 8.15337e-310 0)
(-5.11324e-310 2.09301e-310 0)
(-1.19736e-310 4.81666e-311 0)
(-2.58955e-311 1.02279e-311 0)
(-5.21075e-312 2.04397e-312 0)
(-9.76946e-313 3.90784e-313 0)
(-1.69398e-313 7.23566e-314 0)
(-2.65289e-314 1.29174e-314 0)
(-3.5364e-315 2.11787e-315 0)
(-3.39535e-316 2.75081e-316 0)
(-1.0216e-317 1.53847e-317 0)
(7.51483e-308 -6.97381e-307 0)
(-1.14538e-306 -4.5187e-306 0)
(-9.34536e-307 -2.72502e-306 0)
(-7.04854e-307 -8.06432e-307 0)
(-4.08849e-307 -1.07552e-307 0)
(-1.85904e-307 2.39166e-308 0)
(-6.98108e-308 2.12131e-308 0)
(-2.25566e-308 8.58234e-309 0)
(-6.45744e-309 2.65394e-309 0)
(-1.67266e-309 7.02816e-310 0)
(-3.97971e-310 1.67321e-310 0)
(-8.78834e-311 3.68023e-311 0)
(-1.81248e-311 7.62234e-312 0)
(-3.49575e-312 1.51059e-312 0)
(-6.26687e-313 2.90008e-313 0)
(-1.02329e-313 5.38556e-314 0)
(-1.44507e-314 9.31557e-315 0)
(-1.52337e-315 1.33132e-315 0)
(-5.6777e-317 9.17972e-317 0)
(1.02849e-307 -3.43156e-306 0)
(-4.55554e-306 -1.45435e-305 0)
(-3.751e-306 -7.36682e-306 0)
(-2.53873e-306 -1.96752e-306 0)
(-1.32197e-306 -2.25171e-307 0)
(-5.59674e-307 7.32961e-308 0)
(-2.01823e-307 5.70101e-308 0)
(-6.39914e-308 2.28602e-308 0)
(-1.82424e-308 7.15234e-309 0)
(-4.75229e-309 1.93197e-309 0)
(-1.1449e-309 4.7111e-310 0)
(-2.5725e-310 1.06416e-310 0)
(-5.41904e-311 2.26847e-311 0)
(-1.0715e-311 4.63764e-312 0)
(-1.97828e-312 9.20994e-313 0)
(-3.35003e-313 1.77717e-313 0)
(-4.96615e-314 3.22862e-314 0)
(-5.63744e-315 4.9847e-315 0)
(-2.49381e-316 4.02832e-316 0)
(-1.59163e-306 -1.66675e-305 0)
(-1.69168e-305 -4.37577e-305 0)
(-1.35313e-305 -1.86267e-305 0)
(-8.14737e-306 -4.45248e-306 0)
(-3.87191e-306 -4.19283e-307 0)
(-1.5465e-306 1.99342e-307 0)
(-5.39826e-307 1.3961e-307 0)
(-1.687e-307 5.53795e-308 0)
(-4.79962e-308 1.74759e-308 0)
(-1.25866e-308 4.80011e-309 0)
(-3.07099e-309 1.19543e-309 0)
(-7.01939e-310 2.76578e-310 0)
(-1.50958e-310 6.05373e-311 0)
(-3.05783e-311 1.27398e-311 0)
(-5.80783e-312 2.61176e-312 0)
(-1.01791e-312 5.22334e-313 0)
(-1.5774e-313 9.91723e-314 0)
(-1.90884e-314 1.63421e-314 0)
(-9.66369e-316 1.49735e-315 0)
(-1.85802e-305 -8.42306e-305 0)
(-6.18109e-305 -1.24609e-304 0)
(-4.48846e-305 -4.42036e-305 0)
(-2.40131e-305 -9.43239e-306 0)
(-1.05195e-305 -7.01509e-307 0)
(-4.00213e-306 4.8734e-307 0)
(-1.36171e-306 3.15658e-307 0)
(-4.21493e-307 1.24226e-307 0)
(-1.20084e-307 3.95486e-308 0)
(-3.17737e-308 1.10403e-308 0)
(-7.86368e-309 2.80574e-309 0)
(-1.83028e-309 6.64227e-310 0)
(-4.02085e-310 1.49122e-310 0)
(-8.34559e-311 3.2269e-311 0)
(-1.63027e-311 6.82024e-312 0)
(-2.95457e-312 1.41091e-312 0)
(-4.77649e-313 2.78953e-313 0)
(-6.13497e-314 4.87035e-314 0)
(-3.50504e-315 5.00366e-315 0)
(-1.6747e-304 -4.25749e-304 0)
(-2.35972e-304 -3.35625e-304 0)
(-1.4249e-304 -9.82104e-305 0)
(-6.70927e-305 -1.87146e-305 0)
(-2.72555e-305 -9.95223e-307 0)
(-9.95299e-306 1.11859e-306 0)
(-3.32309e-306 6.776e-307 0)
(-1.02423e-306 2.65001e-307 0)
(-2.93459e-307 8.51614e-308 0)
(-7.8618e-308 2.41643e-308 0)
(-1.9793e-308 6.26559e-309 0)
(-4.70248e-309 1.51722e-309 0)
(-1.05746e-309 3.49156e-310 0)
(-2.25281e-310 7.75962e-311 0)
(-4.53167e-311 1.68667e-311 0)
(-8.49559e-312 3.5914e-312 0)
(-1.43069e-312 7.32184e-313 0)
(-1.93599e-313 1.32653e-313 0)
(-1.22355e-314 1.50015e-314 0)
(-1.2404e-303 -2.17435e-303 0)
(-8.5556e-304 -8.04922e-304 0)
(-4.11979e-304 -1.98781e-304 0)
(-1.72597e-304 -3.46996e-305 0)
(-6.59172e-305 -1.34586e-306 0)
(-2.33277e-305 2.29285e-306 0)
(-7.69492e-306 1.34529e-306 0)
(-2.37277e-306 5.27953e-307 0)
(-6.8595e-307 1.72051e-307 0)
(-1.86503e-307 4.97405e-308 0)
(-4.78453e-308 1.31722e-308 0)
(-1.16166e-308 3.26195e-309 0)
(-2.67565e-309 7.68185e-310 0)
(-5.85084e-310 1.74682e-310 0)
(-1.21091e-310 3.88012e-311 0)
(-2.34342e-311 8.42341e-312 0)
(-4.09706e-312 1.7468e-312 0)
(-5.82888e-313 3.21417e-313 0)
(-4.17223e-314 3.83104e-314 0)
(-1.30417e-299 -2.21883e-300 0)
(-4.00356e-299 -8.72443e-300 0)
(-7.12579e-299 -1.2794e-299 0)
(-1.0995e-298 -1.41337e-299 0)
(-1.59469e-298 -1.12819e-299 0)
(-2.23283e-298 -1.42266e-300 0)
(-3.04881e-298 2.01209e-299 0)
(-4.07609e-298 6.03982e-299 0)
(-5.34374e-298 1.29901e-298 0)
(-6.87275e-298 2.43649e-298 0)
(-8.67107e-298 4.23421e-298 0)
(-1.07296e-297 7.00185e-298 0)
(-1.30218e-297 1.0621e-297 0)
(-3.62944e-298 1.64491e-298 0)
(-1.61698e-298 3.08623e-299 0)
(-8.42708e-299 6.39837e-300 0)
(-4.65549e-299 1.30234e-300 0)
(-2.62068e-299 4.65838e-301 0)
(-1.47396e-299 4.44669e-301 0)
(-8.17707e-300 4.51234e-301 0)
(-4.4213e-300 3.69349e-301 0)
(-2.28221e-300 2.30035e-301 0)
(-1.05496e-300 7.89438e-302 0)
(-1.87121e-299 -3.10427e-300 0)
(-5.74449e-299 -1.13783e-299 0)
(-1.01784e-298 -1.66215e-299 0)
(-1.5596e-298 -1.81343e-299 0)
(-2.2435e-298 -1.4059e-299 0)
(-3.11448e-298 -9.94573e-301 0)
(-4.21798e-298 2.63092e-299 0)
(-5.59842e-298 7.56384e-299 0)
(-7.29736e-298 1.57853e-298 0)
(-9.35074e-298 2.88012e-298 0)
(-1.17861e-297 4.86354e-298 0)
(-1.46264e-297 7.79163e-298 0)
(-1.78157e-297 1.14215e-297 0)
(-4.77137e-298 1.85076e-298 0)
(-2.10276e-298 3.82244e-299 0)
(-1.10105e-298 9.62677e-300 0)
(-6.15927e-299 2.81441e-300 0)
(-3.52419e-299 1.17263e-300 0)
(-2.01684e-299 7.47583e-301 0)
(-1.13716e-299 5.43545e-301 0)
(-6.22678e-300 3.51896e-301 0)
(-3.23592e-300 1.67306e-301 0)
(-1.49948e-300 2.20562e-302 0)
(-2.44544e-299 -4.22011e-300 0)
(-7.48817e-299 -1.4717e-299 0)
(-1.32238e-298 -2.16552e-299 0)
(-2.0178e-298 -2.4014e-299 0)
(-2.88923e-298 -1.95452e-299 0)
(-3.99221e-298 -4.50865e-300 0)
(-5.38276e-298 2.67988e-299 0)
(-7.11621e-298 8.23507e-299 0)
(-9.24513e-298 1.73062e-298 0)
(-1.18174e-297 3.13053e-298 0)
(-1.48724e-297 5.20404e-298 0)
(-1.84479e-297 8.15875e-298 0)
(-2.24608e-297 1.16706e-297 0)
(-5.96106e-298 1.94963e-298 0)
(-2.60691e-298 4.24089e-299 0)
(-1.36107e-298 1.17132e-299 0)
(-7.62396e-299 3.92892e-300 0)
(-4.37804e-299 1.75248e-300 0)
(-2.51585e-299 1.01583e-300 0)
(-1.42301e-299 6.34769e-301 0)
(-7.8016e-300 3.55464e-301 0)
(-4.05284e-300 1.45227e-301 0)
(-1.88019e-300 1.30021e-302 0)
(-3.03622e-299 -5.86542e-300 0)
(-9.24991e-299 -1.96915e-299 0)
(-1.62772e-298 -2.94449e-299 0)
(-2.4747e-298 -3.37757e-299 0)
(-3.53075e-298 -3.01777e-299 0)
(-4.86187e-298 -1.45805e-299 0)
(-6.53451e-298 1.88666e-299 0)
(-8.61385e-298 7.82773e-299 0)
(-1.1162e-297 1.74152e-298 0)
(-1.42352e-297 3.19736e-298 0)
(-1.78803e-297 5.30769e-298 0)
(-2.21405e-297 8.24028e-298 0)
(-2.69174e-297 1.16252e-297 0)
(-7.17314e-298 1.98595e-298 0)
(-3.12905e-298 4.44927e-299 0)
(-1.62855e-298 1.29145e-299 0)
(-9.10617e-299 4.66582e-300 0)
(-5.22432e-299 2.19091e-300 0)
(-2.99946e-299 1.25394e-300 0)
(-1.69406e-299 7.4845e-301 0)
(-9.26939e-300 4.04931e-301 0)
(-4.81068e-300 1.72665e-301 0)
(-2.24002e-300 3.90816e-302 0)
(-3.65493e-299 -8.42457e-300 0)
(-1.10523e-298 -2.74959e-299 0)
(-1.93663e-298 -4.18845e-299 0)
(-2.93317e-298 -4.9968e-299 0)
(-4.17042e-298 -4.8938e-299 0)
(-5.72502e-298 -3.45621e-299 0)
(-7.67341e-298 -7.87026e-301 0)
(-1.00902e-297 6.03852e-299 0)
(-1.30457e-297 1.59229e-298 0)
(-1.66032e-297 3.08026e-298 0)
(-2.08145e-297 5.21039e-298 0)
(-2.5727e-297 8.1226e-298 0)
(-3.12342e-297 1.1428e-297 0)
(-8.39783e-298 1.98816e-298 0)
(-3.66579e-298 4.52938e-299 0)
(-1.90426e-298 1.35028e-299 0)
(-1.06267e-298 5.1005e-300 0)
(-6.08429e-299 2.49653e-300 0)
(-3.48515e-299 1.45381e-300 0)
(-1.96315e-299 8.73192e-301 0)
(-1.0715e-299 4.85099e-301 0)
(-5.55613e-300 2.30079e-301 0)
(-2.59548e-300 8.21932e-302 0)
(-4.31721e-299 -1.24095e-299 0)
(-1.29274e-298 -3.96558e-299 0)
(-2.25355e-298 -6.14633e-299 0)
(-3.39849e-298 -7.58492e-299 0)
(-4.81446e-298 -7.97768e-299 0)
(-6.58895e-298 -6.87538e-299 0)
(-8.80864e-298 -3.66786e-299 0)
(-1.15573e-297 2.45338e-299 0)
(-1.49131e-297 1.24865e-298 0)
(-1.89459e-297 2.76212e-298 0)
(-2.3713e-297 4.91803e-298 0)
(-2.92657e-297 7.84375e-298 0)
(-3.54942e-297 1.11407e-297 0)
(-9.63734e-298 1.96858e-298 0)
(-4.21531e-298 4.51944e-299 0)
(-2.18772e-298 1.36317e-299 0)
(-1.21905e-298 5.28774e-300 0)
(-6.9668e-299 2.67765e-300 0)
(-3.98183e-299 1.60329e-300 0)
(-2.23743e-299 9.88302e-301 0)
(-1.2186e-299 5.72589e-301 0)
(-6.31413e-300 2.96369e-301 0)
(-2.95558e-300 1.28688e-301 0)
(-5.04289e-299 -1.84929e-299 0)
(-1.49154e-298 -5.82033e-299 0)
(-2.58411e-298 -9.14185e-299 0)
(-3.87786e-298 -1.15767e-298 0)
(-5.472e-298 -1.27842e-298 0)
(-7.46566e-298 -1.22985e-298 0)
(-9.95627e-298 -9.48605e-299 0)
(-1.30371e-297 -3.53689e-299 0)
(-1.67946e-297 6.56114e-299 0)
(-2.13055e-297 2.19805e-298 0)
(-2.66328e-297 4.40348e-298 0)
(-3.28332e-297 7.39409e-298 0)
(-3.97956e-297 1.07693e-297 0)
(-1.09013e-297 1.92643e-298 0)
(-4.77841e-298 4.41546e-299 0)
(-2.4788e-298 1.32899e-299 0)
(-1.37983e-298 5.21967e-300 0)
(-7.87479e-299 2.72069e-300 0)
(-4.49315e-299 1.68304e-300 0)
(-2.52007e-299 1.07172e-300 0)
(-1.37034e-299 6.46408e-301 0)
(-7.09581e-300 3.55221e-301 0)
(-3.32495e-300 1.692e-301 0)
(-5.85447e-299 -2.75793e-299 0)
(-1.70586e-298 -8.57914e-299 0)
(-2.93412e-298 -1.36057e-298 0)
(-4.37889e-298 -1.75382e-298 0)
(-6.15326e-298 -1.99999e-298 0)
(-8.36948e-298 -2.04902e-298 0)
(-1.11367e-297 -1.8363e-298 0)
(-1.45584e-297 -1.2775e-298 0)
(-1.87299e-297 -2.6913e-299 0)
(-2.37352e-297 1.31142e-298 0)
(-2.96441e-297 3.5994e-298 0)
(-3.6519e-297 6.72119e-298 0)
(-4.42493e-297 1.02739e-297 0)
(-1.22046e-297 1.85004e-298 0)
(-5.35804e-298 4.17263e-299 0)
(-2.77804e-298 1.22819e-299 0)
(-1.54509e-298 4.80388e-300 0)
(-8.80857e-299 2.5759e-300 0)
(-5.01969e-299 1.6613e-300 0)
(-2.81166e-299 1.10045e-300 0)
(-1.52716e-299 6.8976e-301 0)
(-7.9034e-300 3.95718e-301 0)
(-3.70484e-300 1.98303e-301 0)
(-6.7738e-299 -4.08572e-299 0)
(-1.93891e-298 -1.25935e-298 0)
(-3.30759e-298 -2.00959e-298 0)
(-4.90686e-298 -2.62139e-298 0)
(-6.86642e-298 -3.05089e-298 0)
(-9.31352e-298 -3.24583e-298 0)
(-1.23708e-297 -3.13825e-298 0)
(-1.61528e-297 -2.64133e-298 0)
(-2.07644e-297 -1.64404e-298 0)
(-2.62974e-297 -1.49936e-300 0)
(-3.28287e-297 2.3953e-298 0)
(-4.04267e-297 5.7247e-298 0)
(-4.89832e-297 9.57245e-298 0)
(-1.35668e-297 1.7164e-298 0)
(-5.95899e-298 3.70062e-299 0)
(-3.08662e-298 1.01938e-299 0)
(-1.71501e-298 3.83961e-300 0)
(-9.76753e-299 2.14249e-300 0)
(-5.5605e-299 1.48573e-300 0)
(-3.11145e-299 1.04637e-300 0)
(-1.68853e-299 6.87527e-301 0)
(-8.73399e-300 4.10404e-301 0)
(-4.09419e-300 2.13276e-301 0)
(-7.81599e-299 -5.99127e-299 0)
(-2.19092e-298 -1.83182e-298 0)
(-3.70335e-298 -2.93424e-298 0)
(-5.46061e-298 -3.85527e-298 0)
(-7.61247e-298 -4.54508e-298 0)
(-1.03045e-297 -4.94752e-298 0)
(-1.36742e-297 -4.99445e-298 0)
(-1.78493e-297 -4.59375e-298 0)
(-2.29443e-297 -3.62632e-298 0)
(-2.90594e-297 -1.94305e-298 0)
(-3.62787e-297 6.27561e-299 0)
(-4.46768e-297 4.24981e-298 0)
(-5.41482e-297 8.52954e-298 0)
(-1.50133e-297 1.48787e-298 0)
(-6.58767e-298 2.84933e-299 0)
(-3.40621e-298 6.32432e-300 0)
(-1.88987e-298 1.98152e-300 0)
(-1.07507e-298 1.24883e-300 0)
(-6.11395e-299 1.07208e-300 0)
(-3.41804e-299 8.6931e-301 0)
(-1.8535e-299 6.21605e-301 0)
(-9.58217e-300 3.92099e-301 0)
(-4.49072e-300 2.12199e-301 0)
(-8.98053e-299 -8.68278e-299 0)
(-2.45577e-298 -2.63518e-298 0)
(-4.11004e-298 -4.22768e-298 0)
(-6.02564e-298 -5.57708e-298 0)
(-8.37812e-298 -6.62401e-298 0)
(-1.13343e-297 -7.31336e-298 0)
(-1.50499e-297 -7.57695e-298 0)
(-1.9666e-297 -7.32188e-298 0)
(-2.53088e-297 -6.41579e-298 0)
(-3.20869e-297 -4.68748e-298 0)
(-4.00924e-297 -1.92788e-298 0)
(-4.94045e-297 2.07007e-298 0)
(-5.99203e-297 6.93549e-298 0)
(-1.65742e-297 1.10554e-298 0)
(-7.25131e-298 1.38426e-299 0)
(-3.73845e-298 -4.22616e-301 0)
(-2.06985e-298 -1.30866e-300 0)
(-1.17563e-298 -3.70311e-301 0)
(-6.67777e-299 2.92541e-301 0)
(-3.72962e-299 5.10112e-301 0)
(-2.02087e-299 4.66281e-301 0)
(-1.04411e-299 3.30796e-301 0)
(-4.89128e-300 1.92096e-301 0)
(-1.02357e-298 -1.24424e-298 0)
(-2.71585e-298 -3.74722e-298 0)
(-4.49752e-298 -6.01097e-298 0)
(-6.5647e-298 -7.9383e-298 0)
(-9.12458e-298 -9.46325e-298 0)
(-1.23698e-297 -1.0534e-297 0)
(-1.64752e-297 -1.10934e-297 0)
(-2.15981e-297 -1.10489e-297 0)
(-2.78765e-297 -1.02581e-297 0)
(-3.54301e-297 -8.51724e-298 0)
(-4.43588e-297 -5.56723e-298 0)
(-5.47484e-297 -1.12981e-298 0)
(-6.64897e-297 4.47108e-298 0)
(-1.82813e-297 4.79073e-299 0)
(-7.9559e-298 -1.04807e-299 0)
(-4.08404e-298 -1.16659e-299 0)
(-2.25456e-298 -6.80854e-300 0)
(-1.27794e-298 -3.08944e-300 0)
(-7.24827e-299 -1.02992e-300 0)
(-4.0437e-299 -1.12366e-301 0)
(-2.18906e-299 1.85947e-301 0)
(-1.13016e-299 2.11881e-301 0)
(-5.29143e-300 1.47798e-301 0)
(-1.14954e-298 -1.76574e-298 0)
(-2.93276e-298 -5.27294e-298 0)
(-4.80462e-298 -8.43945e-298 0)
(-7.00293e-298 -1.11304e-297 0)
(-9.77406e-298 -1.32729e-297 0)
(-1.33371e-297 -1.48356e-297 0)
(-1.78876e-297 -1.57816e-297 0)
(-2.35988e-297 -1.60337e-297 0)
(-3.06249e-297 -1.54384e-297 0)
(-3.90985e-297 -1.37574e-297 0)
(-4.91323e-297 -1.06618e-297 0)
(-6.08197e-297 -5.77481e-298 0)
(-7.40306e-297 6.68347e-299 0)
(-2.01582e-297 -5.26064e-299 0)
(-8.70222e-298 -4.95647e-299 0)
(-4.44105e-298 -2.96357e-299 0)
(-2.44243e-298 -1.55383e-299 0)
(-1.38102e-298 -7.37789e-300 0)
(-7.81932e-299 -3.10974e-300 0)
(-4.35643e-299 -1.09512e-300 0)
(-2.35568e-299 -2.62671e-301 0)
(-1.21498e-299 1.65647e-302 0)
(-5.68398e-300 7.17949e-302 0)
(-1.25714e-298 -2.48998e-298 0)
(-3.03145e-298 -7.35583e-298 0)
(-4.9176e-298 -1.17195e-297 0)
(-7.20878e-298 -1.53904e-297 0)
(-1.01912e-297 -1.83058e-297 0)
(-1.41067e-297 -2.04735e-297 0)
(-1.91661e-297 -2.1908e-297 0)
(-2.55603e-297 -2.2559e-297 0)
(-3.34625e-297 -2.22755e-297 0)
(-4.30278e-297 -2.07769e-297 0)
(-5.43869e-297 -1.76566e-297 0)
(-6.76516e-297 -1.24052e-297 0)
(-8.26379e-297 -5.12642e-298 0)
(-2.22042e-297 -2.10027e-298 0)
(-9.48007e-298 -1.10184e-298 0)
(-4.80332e-298 -5.70594e-299 0)
(-2.6303e-298 -2.8635e-299 0)
(-1.48317e-298 -1.37161e-299 0)
(-8.38099e-299 -6.15393e-300 0)
(-4.6615e-299 -2.5303e-300 0)
(-2.5167e-299 -9.22009e-301 0)
(-1.29612e-299 -2.74987e-301 0)
(-6.05596e-300 -4.4773e-302 0)
(-1.3066e-298 -3.50772e-298 0)
(-2.86687e-298 -1.02045e-297 0)
(-4.63596e-298 -1.61259e-297 0)
(-6.96545e-298 -2.10178e-297 0)
(-1.01656e-297 -2.48539e-297 0)
(-1.4478e-297 -2.7733e-297 0)
(-2.01179e-297 -2.97524e-297 0)
(-2.72912e-297 -3.09226e-297 0)
(-3.62009e-297 -3.1101e-297 0)
(-4.70357e-297 -2.9974e-297 0)
(-5.99615e-297 -2.70457e-297 0)
(-7.51216e-297 -2.16641e-297 0)
(-9.22384e-297 -1.37566e-297 0)
(-2.43682e-297 -4.4903e-298 0)
(-1.02628e-297 -2.0002e-298 0)
(-5.15993e-298 -9.65028e-299 0)
(-2.81339e-298 -4.69544e-299 0)
(-1.58184e-298 -2.23941e-299 0)
(-8.91654e-299 -1.02714e-299 0)
(-4.94739e-299 -4.46737e-300 0)
(-2.66451e-299 -1.81855e-300 0)
(-1.36898e-299 -6.77686e-301 0)
(-6.3832e-300 -2.09873e-301 0)
(-1.20273e-298 -4.98104e-298 0)
(-2.15176e-298 -1.41332e-297 0)
(-3.60999e-298 -2.2038e-297 0)
(-5.93764e-298 -2.83817e-297 0)
(-9.39716e-298 -3.32538e-297 0)
(-1.41774e-297 -3.69115e-297 0)
(-2.04721e-297 -3.95991e-297 0)
(-2.85072e-297 -4.14129e-297 0)
(-3.85291e-297 -4.2243e-297 0)
(-5.07863e-297 -4.17408e-297 0)
(-6.54987e-297 -3.93345e-297 0)
(-8.28689e-297 -3.4237e-297 0)
(-1.02474e-296 -2.62036e-297 0)
(-2.65138e-297 -7.95991e-298 0)
(-1.10063e-297 -3.2439e-298 0)
(-5.49652e-298 -1.48562e-298 0)
(-2.985e-298 -7.02401e-299 0)
(-1.67243e-298 -3.31718e-299 0)
(-9.39203e-299 -1.53429e-299 0)
(-5.1905e-299 -6.86393e-300 0)
(-2.78415e-299 -2.94308e-300 0)
(-1.42494e-299 -1.19288e-300 0)
(-6.62222e-300 -4.26736e-301 0)
(-6.64271e-299 -7.22074e-298 0)
(-2.81854e-299 -1.96408e-297 0)
(-1.23559e-298 -2.99739e-297 0)
(-3.63579e-298 -3.79334e-297 0)
(-7.50521e-298 -4.3865e-297 0)
(-1.28765e-297 -4.83072e-297 0)
(-1.98992e-297 -5.17086e-297 0)
(-2.88336e-297 -5.42951e-297 0)
(-4.00098e-297 -5.59941e-297 0)
(-5.37684e-297 -5.64346e-297 0)
(-7.04128e-297 -5.49719e-297 0)
(-9.02247e-297 -5.07482e-297 0)
(-1.12609e-296 -4.3427e-297 0)
(-2.83567e-297 -1.26222e-297 0)
(-1.1654e-297 -4.77114e-298 0)
(-5.7925e-298 -2.08211e-298 0)
(-3.1304e-298 -9.58785e-299 0)
(-1.74358e-298 -4.48947e-299 0)
(-9.72859e-299 -2.09017e-299 0)
(-5.34169e-299 -9.54152e-300 0)
(-2.84757e-299 -4.22967e-300 0)
(-1.44925e-299 -1.79686e-300 0)
(-6.7034e-300 -6.87811e-301 0)
(1.34875e-298 -1.08332e-297 0)
(4.08458e-298 -2.75065e-297 0)
(3.51258e-298 -4.06137e-297 0)
(5.84983e-299 -5.01694e-297 0)
(-4.08412e-298 -5.70431e-297 0)
(-1.02575e-297 -6.2179e-297 0)
(-1.80528e-297 -6.63028e-297 0)
(-2.78354e-297 -6.97829e-297 0)
(-4.00917e-297 -7.25979e-297 0)
(-5.5317e-297 -7.43363e-297 0)
(-7.39153e-297 -7.42866e-297 0)
(-9.62216e-297 -7.15945e-297 0)
(-1.21528e-296 -6.6069e-297 0)
(-2.93648e-297 -1.78766e-297 0)
(-1.21311e-297 -6.21908e-298 0)
(-5.98525e-298 -2.5997e-298 0)
(-3.20183e-298 -1.17987e-298 0)
(-1.7652e-298 -5.53806e-299 0)
(-9.75684e-299 -2.61148e-299 0)
(-5.31203e-299 -1.21642e-299 0)
(-2.81057e-299 -5.53517e-300 0)
(-1.4211e-299 -2.42679e-300 0)
(-6.53663e-300 -9.66879e-301 0)
(9.01312e-298 -1.61644e-297 0)
(1.39312e-297 -3.89388e-297 0)
(1.21329e-297 -5.48145e-297 0)
(7.31612e-298 -6.56206e-297 0)
(1.06943e-298 -7.3111e-297 0)
(-6.17526e-298 -7.87509e-297 0)
(-1.46726e-297 -8.35579e-297 0)
(-2.50589e-297 -8.80589e-297 0)
(-3.81324e-297 -9.22638e-297 0)
(-5.46511e-297 -9.56998e-297 0)
(-7.51432e-297 -9.75102e-297 0)
(-9.97867e-297 -9.68101e-297 0)
(-1.27654e-296 -9.38175e-297 0)
(-2.94449e-297 -1.95889e-297 0)
(-1.19153e-297 -6.4909e-298 0)
(-5.78045e-298 -2.76441e-298 0)
(-3.0617e-298 -1.28856e-298 0)
(-1.67589e-298 -6.1999e-299 0)
(-9.20894e-299 -2.99133e-299 0)
(-4.98654e-299 -1.42437e-299 0)
(-2.62473e-299 -6.62532e-300 0)
(-1.32068e-299 -2.97077e-300 0)
(-6.0457e-300 -1.21413e-300 0)
(3.63129e-297 -2.63413e-297 0)
(3.28114e-297 -5.37372e-297 0)
(2.4952e-297 -7.18099e-297 0)
(1.59962e-297 -8.35177e-297 0)
(7.31475e-298 -9.14492e-297 0)
(-1.06254e-298 -9.753e-297 0)
(-9.88344e-298 -1.03055e-296 0)
(-2.03135e-297 -1.08681e-296 0)
(-3.36752e-297 -1.14456e-296 0)
(-5.11979e-297 -1.19828e-296 0)
(-7.36501e-297 -1.23789e-296 0)
(-1.00689e-296 -1.25e-296 0)
(-3.77368e-297 -3.65517e-297 0)
(-1.68722e-297 -1.28947e-297 0)
(-8.48747e-298 -5.47183e-298 0)
(-4.55536e-298 -2.57225e-298 0)
(-2.5336e-298 -1.26613e-298 0)
(-1.4223e-298 -6.31278e-299 0)
(-7.91725e-299 -3.12694e-299 0)
(-4.31341e-299 -1.52125e-299 0)
(-2.27546e-299 -7.20848e-300 0)
(-1.14485e-299 -3.28701e-300 0)
(-5.22953e-300 -1.3661e-300 0)
(7.46847e-298 -1.20427e-297 0)
(5.01249e-298 -1.9857e-297 0)
(3.77307e-298 -2.29375e-297 0)
(2.37218e-298 -2.5062e-297 0)
(8.1557e-299 -2.65828e-297 0)
(-9.35716e-299 -2.77363e-297 0)
(-3.03361e-298 -2.87096e-297 0)
(-5.73601e-298 -2.95904e-297 0)
(-9.34079e-298 -3.03309e-297 0)
(-1.39942e-297 -3.07085e-297 0)
(-1.9103e-297 -3.02934e-297 0)
(-2.05443e-297 -2.93975e-297 0)
(-1.32086e-297 -1.67603e-297 0)
(-8.41151e-298 -8.35578e-298 0)
(-5.14723e-298 -4.20501e-298 0)
(-3.10576e-298 -2.16557e-298 0)
(-1.85031e-298 -1.12572e-298 0)
(-1.08265e-298 -5.82041e-299 0)
(-6.17951e-299 -2.96135e-299 0)
(-3.41725e-299 -1.47081e-299 0)
(-1.81824e-299 -7.08635e-300 0)
(-9.18881e-300 -3.27622e-300 0)
(-4.19919e-300 -1.37768e-300 0)
(-5.15765e-299 -4.36063e-298 0)
(-3.54038e-299 -8.63672e-298 0)
(-1.97498e-299 -1.03302e-297 0)
(-1.92742e-299 -1.12771e-297 0)
(-3.84628e-299 -1.18502e-297 0)
(-7.78716e-299 -1.22218e-297 0)
(-1.40607e-298 -1.24838e-297 0)
(-2.31943e-298 -1.26723e-297 0)
(-3.5592e-298 -1.27828e-297 0)
(-5.05979e-298 -1.27936e-297 0)
(-6.46168e-298 -1.26878e-297 0)
(-6.67798e-298 -1.2071e-297 0)
(-5.55654e-298 -8.52635e-298 0)
(-4.222e-298 -5.16025e-298 0)
(-2.95247e-298 -2.96074e-298 0)
(-1.95312e-298 -1.6562e-298 0)
(-1.23796e-298 -9.08129e-299 0)
(-7.55093e-299 -4.87105e-299 0)
(-4.42978e-299 -2.54442e-299 0)
(-2.49393e-299 -1.28879e-299 0)
(-1.3423e-299 -6.30435e-300 0)
(-6.83031e-300 -2.94939e-300 0)
(-3.12705e-300 -1.25059e-300 0)
(-7.41236e-299 -1.47768e-298 0)
(-7.65102e-299 -3.88895e-298 0)
(-6.77684e-299 -5.09559e-298 0)
(-5.55796e-299 -5.74412e-298 0)
(-5.08949e-299 -6.09388e-298 0)
(-5.7438e-299 -6.28184e-298 0)
(-7.73261e-299 -6.38256e-298 0)
(-1.11882e-298 -6.43209e-298 0)
(-1.60516e-298 -6.44435e-298 0)
(-2.17408e-298 -6.42136e-298 0)
(-2.66787e-298 -6.3307e-298 0)
(-2.81272e-298 -5.92605e-298 0)
(-2.5947e-298 -4.61427e-298 0)
(-2.16787e-298 -3.13207e-298 0)
(-1.64972e-298 -1.96689e-298 0)
(-1.1662e-298 -1.17435e-298 0)
(-7.76737e-299 -6.74449e-299 0)
(-4.90896e-299 -3.73843e-299 0)
(-2.95251e-299 -1.99962e-299 0)
(-1.69116e-299 -1.03081e-299 0)
(-9.20949e-300 -5.10997e-300 0)
(-4.72108e-300 -2.41448e-300 0)
(-2.16563e-300 -1.02941e-300 0)
(-3.86832e-299 -5.37126e-299 0)
(-5.00853e-299 -1.77511e-298 0)
(-5.13731e-299 -2.57065e-298 0)
(-4.53722e-299 -3.04148e-298 0)
(-3.98896e-299 -3.30224e-298 0)
(-3.89595e-299 -3.43658e-298 0)
(-4.46854e-299 -3.49907e-298 0)
(-5.78176e-299 -3.52143e-298 0)
(-7.75659e-299 -3.51955e-298 0)
(-1.00756e-298 -3.49505e-298 0)
(-1.21117e-298 -3.41712e-298 0)
(-1.30716e-298 -3.16849e-298 0)
(-1.27343e-298 -2.58318e-298 0)
(-1.12491e-298 -1.8739e-298 0)
(-9.03692e-299 -1.25009e-298 0)
(-6.69542e-299 -7.8349e-299 0)
(-4.62854e-299 -4.66766e-299 0)
(-3.00855e-299 -2.65813e-299 0)
(-1.84723e-299 -1.45043e-299 0)
(-1.0739e-299 -7.58876e-300 0)
(-5.9094e-300 -3.80388e-300 0)
(-3.04978e-300 -1.81165e-300 0)
(-1.40073e-300 -7.74654e-301 0)
(-1.75522e-299 -2.07879e-299 0)
(-2.66583e-299 -8.12316e-299 0)
(-3.03262e-299 -1.29218e-298 0)
(-2.88993e-299 -1.61289e-298 0)
(-2.6017e-299 -1.80569e-298 0)
(-2.43849e-299 -1.9104e-298 0)
(-2.56492e-299 -1.96033e-298 0)
(-3.04678e-299 -1.97825e-298 0)
(-3.85045e-299 -1.9766e-298 0)
(-4.83278e-299 -1.95598e-298 0)
(-5.74816e-299 -1.89658e-298 0)
(-6.31408e-299 -1.74678e-298 0)
(-6.35496e-299 -1.45756e-298 0)
(-5.81618e-299 -1.09988e-298 0)
(-4.84598e-299 -7.63767e-299 0)
(-3.71027e-299 -4.95521e-299 0)
(-2.63551e-299 -3.03449e-299 0)
(-1.75003e-299 -1.76497e-299 0)
(-1.09202e-299 -9.78521e-300 0)
(-6.42472e-300 -5.18093e-300 0)
(-3.56555e-300 -2.61984e-300 0)
(-1.85017e-300 -1.25515e-300 0)
(-8.49862e-301 -5.37015e-301 0)
(-7.54036e-300 -8.35152e-300 0)
(-1.28886e-299 -3.69723e-299 0)
(-1.58379e-299 -6.39827e-299 0)
(-1.61423e-299 -8.42369e-299 0)
(-1.5094e-299 -9.75506e-299 0)
(-1.40967e-299 -1.05348e-298 0)
(-1.41861e-299 -1.09346e-298 0)
(-1.58758e-299 -1.10937e-298 0)
(-1.91276e-299 -1.10946e-298 0)
(-2.33785e-299 -1.09419e-298 0)
(-2.76497e-299 -1.05317e-298 0)
(-3.07567e-299 -9.64787e-299 0)
(-3.16134e-299 -8.14426e-299 0)
(-2.96444e-299 -6.29136e-299 0)
(-2.53272e-299 -4.48463e-299 0)
(-1.98446e-299 -2.98038e-299 0)
(-1.43764e-299 -1.86222e-299 0)