/*--------------------------------*- C++ -*----------------------------------*\
| =========                 |                                                 |
| \\      /  F ield         | OpenFOAM: The Open Source CFD Toolbox           |
|  \\    /   O peration     | Version:  2406                                  |
|   \\  /    A nd           | Website:  www.openfoam.com                      |
|    \\/     M anipulation  |                                                 |
\*---------------------------------------------------------------------------*/
FoamFile
{
    version     2.0;
    format      ascii;
    arch        "LSB;label=32;scalar=64";
    class       volScalarField;
    location    "0.95";
    object      epsilon;
}
// * * * * * * * * * * * * * * * * * * * * * * * * * * * * * * * * * * * * * //

dimensions      [0 2 -3 0 0 0 0];

internalField   nonuniform List<scalar> 
2268
(
0.00388811
0.0173863
0.0291365
0.0389393
0.047178
0.0541183
0.0599452
0.0647949
0.0687705
0.07195
0.0743899
0.0761256
0.0771692
0.0775041
0.0770748
0.0757706
0.0733961
0.0696237
0.0639207
0.0554594
0.0430971
0.025754
0.00470448
0.00694151
0.0118938
0.0169353
0.0212561
0.0248924
0.0279381
0.0304747
0.0325672
0.0342666
0.0356122
0.0366326
0.0373465
0.0377614
0.0378717
0.0376553
0.0370669
0.0360278
0.0344098
0.0320112
0.0285309
0.0235722
0.0168293
0.00944677
0.0113286
0.0123873
0.0156281
0.0186239
0.0212011
0.023373
0.0251817
0.0266693
0.027872
0.0288189
0.029532
0.030026
0.0303077
0.0303747
0.0302138
0.0297974
0.0290791
0.0279871
0.0264173
0.0242297
0.0212712
0.0175761
0.0165732
0.0154191
0.0136082
0.0158011
0.0180971
0.0201441
0.0218937
0.0233587
0.0245655
0.0255404
0.0263066
0.026882
0.0272793
0.0275051
0.0275593
0.0274339
0.0271124
0.026568
0.0257646
0.0246604
0.0232242
0.0214862
0.019811
0.0238456
0.0191137
0.0149723
0.0163918
0.0181996
0.01989
0.0213637
0.0226095
0.0236403
0.0244747
0.0251309
0.025624
0.0259651
0.0261609
0.026213
0.026118
0.025868
0.0254519
0.0248617
0.0241067
0.0232522
0.0225208
0.0227113
0.0315718
0.0224552
0.0163279
0.0171262
0.0185534
0.0199712
0.0212379
0.0223221
0.0232254
0.0239595
0.0245384
0.0249748
0.0252785
0.0254564
0.0255118
0.0254452
0.0252559
0.0249462
0.0245315
0.0240651
0.023703
0.0238938
0.0261421
0.0410587
0.025496
0.0176232
0.0179018
0.0190165
0.0202124
0.0213125
0.0222682
0.0230712
0.0237276
0.0242475
0.0246414
0.0249183
0.0250851
0.0251466
0.0251068
0.0249714
0.0247534
0.0244873
0.0242621
0.024312
0.0253312
0.0300205
0.0568653
0.0282773
0.0188403
0.0186728
0.0195237
0.0205331
0.0214937
0.0223424
0.0230629
0.0236558
0.0241283
0.0244887
0.0247453
0.0249051
0.0249743
0.0249598
0.0248722
0.0247335
0.024592
0.0245608
0.0249237
0.0265458
0.0336315
0.0982788
0.00509678
0.0280276
0.0459442
0.0579719
0.0656558
0.0703737
0.0730215
0.0741256
0.0739787
0.0727307
0.0704412
0.0671085
0.0626836
0.0570752
0.0501451
0.0416943
0.0314293
0.0189185
0.00423344
0.00910139
0.0176661
0.0247043
0.0295699
0.0327649
0.0347775
0.0359387
0.0364502
0.0364271
0.0359286
0.0349763
0.0335649
0.0316672
0.0292363
0.026204
0.0224781
0.0179435
0.0125192
0.00679648
0.0157337
0.0179536
0.0219082
0.024854
0.026891
0.0282262
0.0290205
0.0293815
0.0293744
0.0290333
0.0283693
0.0273756
0.0260306
0.0242996
0.0221357
0.019485
0.0163112
0.0127375
0.0108841
0.0225564
0.0198651
0.021803
0.0235879
0.0249548
0.0259079
0.0264959
0.0267667
0.0267544
0.0264776
0.0259408
0.0251362
0.0240455
0.0226416
0.0208924
0.0187719
0.0163036
0.0137817
0.0147205
0.0298822
0.0224636
0.0225624
0.0234033
0.0242545
0.0249195
0.0253512
0.0255493
0.0255234
0.0252795
0.0248169
0.0241267
0.0231932
0.0219957
0.0205141
0.0187457
0.0167637
0.0150089
0.0181964
0.0390575
0.0255546
0.0236745
0.0236682
0.0240856
0.024511
0.0248111
0.0249448
0.024901
0.0246753
0.024262
0.0236517
0.0228305
0.0217834
0.0205006
0.0189991
0.0173938
0.0162517
0.0213413
0.0545553
0.0289963
0.0248693
0.0241188
0.0241735
0.0243966
0.0245829
0.0246583
0.0245947
0.0243789
0.0240013
0.0234513
0.0227172
0.0217885
0.0206647
0.0193795
0.0180825
0.0174508
0.0242012
0.0933872
0.0321076
0.0259032
0.0246104
0.024384
0.0244411
0.0245297
0.0245528
0.0244691
0.0242585
0.0239078
0.0234059
0.0227426
0.0219116
0.0209203
0.0198165
0.0187794
0.0185841
0.0268149
0.0323056
0.020615
0.019837
0.0203333
0.0210928
0.0218665
0.0225726
0.0231835
0.0236931
0.0241038
0.0244216
0.0246533
0.0248062
0.0248883
0.02491
0.0248885
0.0248549
0.0248716
0.0250689
0.0257375
0.0275991
0.0327634
0.0487958
0.0368475
0.0226445
0.0212241
0.02136
0.0218672
0.0224521
0.0230139
0.0235145
0.0239409
0.024291
0.024568
0.0247774
0.0249265
0.0250243
0.0250838
0.0251248
0.0251813
0.0253129
0.0256277
0.0263265
0.0277872
0.0307158
0.0362843
0.0406611
0.0243407
0.0224052
0.0222629
0.0225778
0.0230189
0.0234706
0.0238869
0.0242497
0.0245539
0.0248004
0.0249935
0.0251401
0.0252492
0.0253338
0.0254132
0.025517
0.0256919
0.0260118
0.0265889
0.0275819
0.0291653
0.0313556
0.0438626
0.0257514
0.0233958
0.0230345
0.0232006
0.023531
0.0238978
0.0242488
0.0245624
0.0248309
0.0250536
0.0252338
0.0253774
0.0254928
0.0255917
0.0256904
0.025812
0.025989
0.0262657
0.0266968
0.0273358
0.0281965
0.0291643
0.0465428
0.0269189
0.0242178
0.0236823
0.0237324
0.023977
0.024278
0.0245784
0.0248537
0.0250942
0.025298
0.0254673
0.025607
0.0257244
0.0258292
0.0259343
0.0260564
0.0262164
0.0264386
0.0267466
0.0271519
0.0276328
0.0281031
0.0487768
0.0278797
0.0248943
0.0242193
0.0241784
0.0243565
0.0246067
0.0248679
0.0251133
0.0253318
0.0255203
0.0256801
0.0258151
0.0259313
0.0260366
0.0261404
0.0262545
0.0263915
0.0265642
0.0267811
0.0270401
0.0273186
0.0275654
0.0506283
0.0286654
0.0254465
0.02466
0.0245478
0.0246743
0.0248853
0.0251161
0.0253383
0.0255394
0.0257155
0.025867
0.025997
0.0261102
0.0262126
0.0263114
0.0264143
0.0265291
0.0266621
0.0268156
0.0269844
0.0271522
0.0272903
0.0521525
0.0293036
0.0258938
0.0250183
0.0248503
0.024937
0.0251178
0.0253254
0.0255295
0.0257171
0.0258831
0.0260275
0.0261524
0.0262616
0.0263597
0.0264519
0.0265436
0.0266395
0.0267427
0.0268532
0.0269665
0.0270718
0.0271534
0.0533979
0.029818
0.0262532
0.0253071
0.0250958
0.0251519
0.0253097
0.0254995
0.0256898
0.0258667
0.0260247
0.026163
0.0262831
0.0263881
0.0264814
0.0265671
0.0266488
0.0267296
0.0268112
0.026893
0.0269717
0.0270408
0.0270915
0.0544074
0.0302293
0.0265398
0.0255381
0.0252932
0.025326
0.0254664
0.0256427
0.0258225
0.0259912
0.0261428
0.026276
0.026392
0.0264929
0.0265817
0.0266614
0.0267349
0.0268042
0.0268703
0.026933
0.02699
0.0270374
0.0270706
0.0552185
0.0305554
0.0267664
0.0257213
0.0254507
0.0254659
0.0255932
0.0257595
0.0259314
0.0260938
0.0262404
0.0263696
0.0264819
0.0265792
0.0266641
0.0267388
0.0268057
0.0268664
0.0269217
0.0269716
0.0270147
0.027049
0.0270717
0.0558645
0.0308118
0.0269441
0.0258654
0.0255754
0.0255775
0.0256951
0.025854
0.02602
0.0261777
0.0263205
0.0264464
0.0265557
0.0266501
0.0267316
0.0268024
0.0268642
0.0269185
0.0269663
0.0270075
0.0270417
0.0270677
0.0270841
0.0563742
0.0310115
0.0270823
0.0259779
0.0256733
0.0256657
0.0257764
0.0259298
0.0260916
0.0262459
0.0263858
0.0265091
0.0266161
0.0267081
0.026787
0.0268546
0.0269126
0.0269624
0.0270048
0.0270403
0.0270686
0.0270894
0.0271019
0.0567726
0.0311657
0.0271889
0.026065
0.0257497
0.0257351
0.0258407
0.0259904
0.0261491
0.0263009
0.0264387
0.0265601
0.0266654
0.0267555
0.0268323
0.0268975
0.0269527
0.0269992
0.0270379
0.0270695
0.027094
0.0271114
0.0271214
0.0570812
0.0312837
0.0272703
0.0261319
0.0258088
0.0257892
0.0258913
0.0260383
0.026195
0.0263451
0.0264814
0.0266015
0.0267053
0.0267941
0.0268694
0.0269328
0.0269859
0.0270301
0.0270663
0.0270952
0.0271172
0.0271324
0.0271408
0.0573179
0.0313732
0.0273321
0.026183
0.0258542
0.0258312
0.0259309
0.0260762
0.0262315
0.0263803
0.0265156
0.0266348
0.0267377
0.0268255
0.0268996
0.0269618
0.0270134
0.027056
0.0270904
0.0271176
0.0271379
0.0271517
0.027159
0.0574978
0.0314405
0.0273785
0.0262216
0.0258888
0.0258635
0.0259617
0.0261058
0.0262602
0.0264084
0.026543
0.0266616
0.0267639
0.0268509
0.0269243
0.0269855
0.0270362
0.0270776
0.0271109
0.0271368
0.027156
0.0271689
0.0271756
0.0576334
0.0314906
0.0274132
0.0262506
0.0259151
0.0258882
0.0259854
0.0261289
0.0262828
0.0264306
0.0265648
0.026683
0.0267849
0.0268715
0.0269444
0.027005
0.027055
0.0270956
0.0271281
0.0271532
0.0271717
0.027184
0.0271902
0.0577345
0.0315276
0.0274389
0.0262722
0.0259349
0.025907
0.0260037
0.0261468
0.0263005
0.026448
0.0265821
0.0267001
0.0268018
0.0268881
0.0269607
0.0270209
0.0270704
0.0271106
0.0271425
0.0271672
0.0271852
0.027197
0.027203
0.0578094
0.0315548
0.0274577
0.0262882
0.0259497
0.0259212
0.0260176
0.0261606
0.0263142
0.0264617
0.0265957
0.0267136
0.0268152
0.0269015
0.0269738
0.0270338
0.0270831
0.027123
0.0271546
0.0271789
0.0271966
0.0272082
0.027214
0.0578643
0.0315745
0.0274714
0.0263
0.0259607
0.0259319
0.0260282
0.0261711
0.0263248
0.0264723
0.0266064
0.0267244
0.026826
0.0269122
0.0269844
0.0270443
0.0270934
0.0271331
0.0271645
0.0271886
0.0272061
0.0272176
0.0272233
0.0579043
0.0315888
0.0274814
0.0263086
0.0259688
0.0259399
0.0260362
0.0261792
0.0263329
0.0264806
0.0266148
0.0267328
0.0268344
0.0269206
0.0269929
0.0270528
0.0271018
0.0271414
0.0271727
0.0271967
0.0272141
0.0272255
0.0272311
0.0579332
0.031599
0.0274885
0.0263149
0.0259748
0.0259458
0.0260421
0.0261853
0.0263391
0.0264869
0.0266212
0.0267394
0.0268411
0.0269274
0.0269997
0.0270595
0.0271086
0.0271481
0.0271794
0.0272033
0.0272207
0.027232
0.0272376
0.0579539
0.0316062
0.0274936
0.0263194
0.0259791
0.0259501
0.0260466
0.0261899
0.0263439
0.0264918
0.0266262
0.0267445
0.0268463
0.0269327
0.027005
0.0270649
0.027114
0.0271535
0.0271848
0.0272087
0.027226
0.0272373
0.027243
0.0579686
0.0316114
0.0274973
0.0263226
0.0259823
0.0259533
0.0260499
0.0261933
0.0263474
0.0264955
0.0266301
0.0267484
0.0268504
0.0269368
0.0270092
0.0270692
0.0271183
0.0271579
0.0271891
0.0272131
0.0272304
0.0272417
0.0272473
0.057979
0.031615
0.0274998
0.0263249
0.0259845
0.0259557
0.0260523
0.0261959
0.0263501
0.0264983
0.026633
0.0267515
0.0268535
0.02694
0.0270125
0.0270726
0.0271217
0.0271613
0.0271926
0.0272165
0.0272339
0.0272452
0.0272508
0.0579863
0.0316175
0.0275016
0.0263265
0.0259862
0.0259574
0.0260541
0.0261977
0.0263521
0.0265004
0.0266352
0.0267538
0.0268559
0.0269425
0.0270151
0.0270752
0.0271244
0.027164
0.0271953
0.0272193
0.0272367
0.027248
0.0272536
0.0579914
0.0316192
0.0275029
0.0263277
0.0259873
0.0259586
0.0260554
0.0261991
0.0263536
0.026502
0.0266369
0.0267555
0.0268577
0.0269444
0.027017
0.0270772
0.0271264
0.0271661
0.0271975
0.0272215
0.0272389
0.0272502
0.0272558
0.0579949
0.0316204
0.0275037
0.0263285
0.0259881
0.0259595
0.0260564
0.0262001
0.0263547
0.0265032
0.0266381
0.0267568
0.0268591
0.0269459
0.0270185
0.0270788
0.027128
0.0271678
0.0271992
0.0272232
0.0272406
0.0272519
0.0272575
0.0579974
0.0316212
0.0275043
0.026329
0.0259887
0.0259601
0.026057
0.0262009
0.0263555
0.026504
0.026639
0.0267578
0.0268602
0.026947
0.0270197
0.0270799
0.0271293
0.027169
0.0272004
0.0272245
0.0272419
0.0272532
0.0272589
0.057999
0.0316217
0.0275047
0.0263294
0.0259891
0.0259605
0.0260575
0.0262014
0.0263561
0.0265047
0.0266397
0.0267586
0.0268609
0.0269478
0.0270205
0.0270808
0.0271302
0.02717
0.0272014
0.0272255
0.0272429
0.0272543
0.0272599
0.0580001
0.0316221
0.027505
0.0263297
0.0259894
0.0259608
0.0260579
0.0262018
0.0263565
0.0265051
0.0266402
0.0267591
0.0268615
0.0269484
0.0270212
0.0270815
0.0271309
0.0271707
0.0272022
0.0272262
0.0272437
0.027255
0.0272607
0.0580009
0.0316224
0.0275052
0.0263299
0.0259896
0.025961
0.0260581
0.0262021
0.0263568
0.0265054
0.0266406
0.0267595
0.0268619
0.0269488
0.0270217
0.027082
0.0271314
0.0271712
0.0272027
0.0272268
0.0272442
0.0272556
0.0272613
0.0580014
0.0316225
0.0275053
0.02633
0.0259897
0.0259612
0.0260583
0.0262022
0.026357
0.0265057
0.0266408
0.0267598
0.0268622
0.0269492
0.027022
0.0270824
0.0271318
0.0271716
0.0272031
0.0272272
0.0272447
0.027256
0.0272617
0.0580017
0.0316226
0.0275054
0.0263301
0.0259898
0.0259613
0.0260584
0.0262024
0.0263571
0.0265058
0.026641
0.02676
0.0268624
0.0269494
0.0270223
0.0270826
0.0271321
0.0271719
0.0272034
0.0272275
0.027245
0.0272564
0.027262
0.058002
0.0316227
0.0275054
0.0263301
0.0259899
0.0259614
0.0260585
0.0262025
0.0263573
0.026506
0.0266411
0.0267601
0.0268626
0.0269496
0.0270224
0.0270828
0.0271323
0.0271721
0.0272036
0.0272277
0.0272452
0.0272566
0.0272623
0.0580021
0.0316228
0.0275055
0.0263302
0.0259899
0.0259614
0.0260585
0.0262025
0.0263573
0.026506
0.0266412
0.0267602
0.0268627
0.0269497
0.0270226
0.027083
0.0271324
0.0271723
0.0272038
0.0272279
0.0272454
0.0272568
0.0272624
0.0580022
0.0316228
0.0275055
0.0263302
0.0259899
0.0259614
0.0260586
0.0262026
0.0263574
0.0265061
0.0266413
0.0267603
0.0268628
0.0269498
0.0270227
0.0270831
0.0271325
0.0271724
0.0272039
0.027228
0.0272455
0.0272569
0.0272625
0.0580023
0.0316228
0.0275055
0.0263302
0.02599
0.0259615
0.0260586
0.0262026
0.0263574
0.0265061
0.0266413
0.0267603
0.0268628
0.0269498
0.0270227
0.0270831
0.0271326
0.0271725
0.027204
0.0272281
0.0272455
0.0272569
0.0272626
0.0580023
0.0316228
0.0275055
0.0263302
0.02599
0.0259615
0.0260586
0.0262026
0.0263574
0.0265062
0.0266414
0.0267604
0.0268629
0.0269499
0.0270228
0.0270832
0.0271326
0.0271725
0.027204
0.0272281
0.0272456
0.027257
0.0272626
0.0580023
0.0316228
0.0275055
0.0263302
0.02599
0.0259615
0.0260586
0.0262026
0.0263574
0.0265062
0.0266414
0.0267604
0.0268629
0.0269499
0.0270228
0.0270832
0.0271326
0.0271725
0.027204
0.0272281
0.0272456
0.027257
0.0272627
0.0580024
0.0316228
0.0275055
0.0263302
0.02599
0.0259615
0.0260586
0.0262026
0.0263575
0.0265062
0.0266414
0.0267604
0.0268629
0.0269499
0.0270228
0.0270832
0.0271326
0.0271725
0.0272041
0.0272282
0.0272456
0.027257
0.0272627
0.12229
0.0959217
0.0956236
0.120753
0.0431616
0.0437
0.0436613
0.0430664
0.0328746
0.0333137
0.0333026
0.0328445
0.0296789
0.0298506
0.0298446
0.0296614
0.0283198
0.0283917
0.0283874
0.028307
0.0276694
0.0277027
0.027699
0.0276586
0.0273446
0.0273611
0.0273578
0.0273347
0.0271836
0.027192
0.0271889
0.0271742
0.027109
0.0271132
0.0271103
0.0271
0.027081
0.027083
0.0270801
0.0270723
0.027078
0.0270787
0.0270759
0.0270696
0.0270881
0.027088
0.0270853
0.0270799
0.0271044
0.0271039
0.0271012
0.0270963
0.027123
0.0271222
0.0271196
0.0271151
0.0271418
0.0271409
0.0271383
0.027134
0.0271597
0.0271586
0.0271561
0.027152
0.027176
0.0271749
0.0271723
0.0271683
0.0271905
0.0271894
0.0271868
0.0271829
0.0272032
0.027202
0.0271995
0.0271956
0.0272141
0.0272129
0.0272104
0.0272066
0.0272234
0.0272222
0.0272197
0.0272159
0.0272312
0.02723
0.0272275
0.0272237
0.0272377
0.0272365
0.027234
0.0272301
0.027243
0.0272418
0.0272393
0.0272355
0.0272474
0.0272461
0.0272436
0.0272398
0.0272509
0.0272497
0.0272471
0.0272433
0.0272537
0.0272525
0.0272499
0.0272461
0.0272559
0.0272547
0.0272522
0.0272483
0.0272576
0.0272564
0.0272539
0.0272501
0.027259
0.0272577
0.0272552
0.0272514
0.02726
0.0272588
0.0272563
0.0272524
0.0272608
0.0272596
0.027257
0.0272532
0.0272614
0.0272601
0.0272576
0.0272538
0.0272618
0.0272606
0.0272581
0.0272542
0.0272621
0.0272609
0.0272584
0.0272545
0.0272623
0.0272611
0.0272586
0.0272548
0.0272625
0.0272613
0.0272588
0.0272549
0.0272626
0.0272614
0.0272589
0.027255
0.0272627
0.0272615
0.0272589
0.0272551
0.0272627
0.0272615
0.027259
0.0272551
0.0272627
0.0272615
0.027259
0.0272551
0.0272627
0.0272615
0.027259
0.0272551
0.0472884
0.0316472
0.0268999
0.0253121
0.0247904
0.0246445
0.0246056
0.0245569
0.0244433
0.0242363
0.0239187
0.0234787
0.0229083
0.022207
0.0213925
0.0205314
0.019843
0.0202423
0.0305965
0.035814
0.0300823
0.0272401
0.0259095
0.0253076
0.0250372
0.024897
0.0247827
0.0246382
0.0244319
0.0241445
0.0237643
0.023286
0.0227148
0.0220784
0.0214619
0.0211263
0.0221457
0.0348547
0.0311911
0.0288214
0.0272014
0.0262411
0.0257061
0.0254079
0.0252221
0.0250712
0.0249081
0.0247034
0.0244388
0.0241037
0.0236953
0.0232229
0.022722
0.0222912
0.0222263
0.0237386
0.0384267
0.0290906
0.0280012
0.0270774
0.0264238
0.0259967
0.0257195
0.0255236
0.025358
0.0251871
0.0249867
0.0247409
0.0244411
0.0240866
0.0236904
0.0232935
0.0230058
0.0231524
0.0250641
0.041424
0.0280603
0.0275119
0.0269722
0.0265345
0.0262093
0.0259705
0.0257838
0.0256176
0.0254468
0.0252531
0.0250237
0.024752
0.0244397
0.0241025
0.0237858
0.0236093
0.023923
0.0261613
0.0439335
0.0275349
0.0272358
0.0269089
0.0266137
0.0263695
0.0261707
0.0260011
0.0258419
0.0256764
0.0254909
0.0252759
0.025027
0.0247477
0.0244562
0.0242018
0.0241118
0.0245585
0.0270647
0.0460264
0.0272653
0.0270898
0.0268829
0.0266793
0.0264949
0.0263309
0.0261799
0.0260311
0.0258732
0.0256966
0.0254943
0.0252639
0.0250106
0.0247544
0.0245481
0.0245258
0.0250782
0.027804
0.047763
0.0271313
0.027021
0.0268835
0.0267382
0.0265963
0.0264601
0.0263263
0.0261885
0.026039
0.025871
0.0256797
0.0254642
0.0252312
0.0250024
0.0248332
0.0248635
0.0255001
0.0284051
0.049195
0.0270712
0.0269969
0.0269005
0.0267927
0.0266802
0.0265653
0.0264461
0.0263183
0.0261769
0.0260168
0.0258348
0.0256313
0.025414
0.0252062
0.0250656
0.0251368
0.0258399
0.0288904
0.0503676
0.0270514
0.026998
0.0269265
0.0268428
0.0267508
0.0266516
0.026544
0.026425
0.0262907
0.0261375
0.0259632
0.0257691
0.025564
0.0253723
0.0252534
0.0253562
0.0261116
0.0292792
0.0513205
0.0270533
0.0270123
0.0269564
0.0268885
0.0268105
0.0267228
0.0266243
0.0265124
0.0263841
0.0262366
0.0260685
0.0258818
0.025686
0.0255064
0.0254039
0.0255308
0.0263271
0.0295882
0.0520887
0.0270663
0.0270331
0.026987
0.0269294
0.0268611
0.0267818
0.0266901
0.0265838
0.0264605
0.0263176
0.0261544
0.0259733
0.0257845
0.0256139
0.0255237
0.0256689
0.0264967
0.0298319
0.0527026
0.0270845
0.0270561
0.0270164
0.0269657
0.0269041
0.0268307
0.0267441
0.0266422
0.0265226
0.0263834
0.0262239
0.0260471
0.0258635
0.0256994
0.0256184
0.0257772
0.0266292
0.0300225
0.0531888
0.0271044
0.0270791
0.0270435
0.0269975
0.0269404
0.0268713
0.0267884
0.0266898
0.0265732
0.0264367
0.02628
0.0261063
0.0259264
0.0257671
0.0256926
0.0258615
0.0267318
0.0301701
0.0535706
0.0271241
0.0271008
0.027068
0.027025
0.0269711
0.026905
0.0268248
0.0267286
0.0266141
0.0264797
0.026325
0.0261535
0.0259762
0.0258203
0.0257505
0.0259267
0.0268106
0.0302836
0.0538676
0.0271425
0.0271206
0.0270895
0.0270487
0.026997
0.0269329
0.0268547
0.0267601
0.0266472
0.0265142
0.026361
0.026191
0.0260154
0.0258618
0.0257953
0.0259768
0.0268708
0.0303701
0.0540965
0.0271592
0.0271381
0.0271083
0.0270689
0.0270186
0.026956
0.0268791
0.0267857
0.0266739
0.0265418
0.0263896
0.0262206
0.0260462
0.0258941
0.0258297
0.0260149
0.0269163
0.0304355
0.0542714
0.027174
0.0271535
0.0271245
0.0270859
0.0270367
0.026975
0.026899
0.0268065
0.0266953
0.0265639
0.0264122
0.0262439
0.0260702
0.025919
0.0258561
0.0260438
0.0269504
0.0304844
0.0544038
0.0271868
0.0271667
0.0271382
0.0271003
0.0270517
0.0269906
0.0269152
0.0268232
0.0267125
0.0265814
0.0264301
0.0262621
0.0260887
0.0259381
0.0258761
0.0260655
0.0269759
0.0305208
0.0545031
0.0271978
0.027178
0.0271498
0.0271123
0.027064
0.0270034
0.0269283
0.0268366
0.0267261
0.0265953
0.0264441
0.0262762
0.0261031
0.0259527
0.0258912
0.0260817
0.0269947
0.0305476
0.0545771
0.0272072
0.0271875
0.0271595
0.0271222
0.0270742
0.0270138
0.0269389
0.0268474
0.026737
0.0266062
0.0264551
0.0262872
0.0261141
0.0259638
0.0259025
0.0260937
0.0270086
0.0305672
0.0546316
0.027215
0.0271954
0.0271675
0.0271304
0.0270825
0.0270222
0.0269474
0.026856
0.0267456
0.0266148
0.0264636
0.0262956
0.0261224
0.0259721
0.025911
0.0261026
0.0270187
0.0305815
0.0546715
0.0272215
0.0272019
0.0271741
0.027137
0.0270892
0.027029
0.0269542
0.0268627
0.0267524
0.0266215
0.0264702
0.0263021
0.0261288
0.0259784
0.0259172
0.0261091
0.027026
0.0305917
0.0547005
0.0272269
0.0272073
0.0271795
0.0271424
0.0270947
0.0270344
0.0269596
0.0268681
0.0267576
0.0266267
0.0264752
0.026307
0.0261336
0.025983
0.0259218
0.0261138
0.0270312
0.030599
0.0547214
0.0272312
0.0272116
0.0271839
0.0271468
0.027099
0.0270387
0.0269639
0.0268723
0.0267617
0.0266306
0.0264791
0.0263107
0.0261371
0.0259865
0.0259252
0.0261172
0.027035
0.0306042
0.0547363
0.0272347
0.0272151
0.0271873
0.0271502
0.0271024
0.0270421
0.0269672
0.0268755
0.0267649
0.0266337
0.026482
0.0263135
0.0261398
0.025989
0.0259276
0.0261196
0.0270376
0.0306079
0.0547469
0.0272375
0.0272179
0.0271901
0.027153
0.0271051
0.0270447
0.0269698
0.026878
0.0267673
0.026636
0.0264842
0.0263156
0.0261418
0.0259909
0.0259294
0.0261214
0.0270395
0.0306105
0.0547544
0.0272397
0.0272201
0.0271923
0.0271551
0.0271072
0.0270468
0.0269718
0.0268799
0.0267691
0.0266378
0.0264859
0.0263172
0.0261432
0.0259923
0.0259307
0.0261226
0.0270408
0.0306123
0.0547596
0.0272414
0.0272218
0.0271939
0.0271568
0.0271088
0.0270483
0.0269733
0.0268814
0.0267705
0.0266391
0.0264871
0.0263183
0.0261443
0.0259932
0.0259316
0.0261235
0.0270417
0.0306135
0.0547632
0.0272427
0.0272231
0.0271952
0.027158
0.02711
0.0270495
0.0269744
0.0268825
0.0267716
0.02664
0.026488
0.0263192
0.026145
0.0259939
0.0259323
0.0261241
0.0270424
0.0306144
0.0547657
0.0272438
0.0272241
0.0271962
0.027159
0.027111
0.0270504
0.0269753
0.0268833
0.0267723
0.0266408
0.0264887
0.0263198
0.0261456
0.0259944
0.0259327
0.0261245
0.0270428
0.0306149
0.0547674
0.0272445
0.0272249
0.027197
0.0271597
0.0271117
0.0270511
0.0269759
0.0268839
0.0267729
0.0266413
0.0264892
0.0263202
0.026146
0.0259948
0.025933
0.0261248
0.0270431
0.0306153
0.0547686
0.0272451
0.0272255
0.0271975
0.0271603
0.0271122
0.0270516
0.0269764
0.0268844
0.0267733
0.0266417
0.0264895
0.0263205
0.0261463
0.025995
0.0259332
0.026125
0.0270433
0.0306156
0.0547694
0.0272456
0.0272259
0.027198
0.0271607
0.0271126
0.027052
0.0269768
0.0268847
0.0267736
0.026642
0.0264898
0.0263208
0.0261465
0.0259952
0.0259334
0.0261252
0.0270434
0.0306158
0.0547699
0.0272459
0.0272262
0.0271983
0.027161
0.0271129
0.0270523
0.026977
0.0268849
0.0267738
0.0266421
0.0264899
0.0263209
0.0261466
0.0259953
0.0259335
0.0261253
0.0270435
0.0306159
0.0547703
0.0272461
0.0272264
0.0271985
0.0271612
0.0271131
0.0270525
0.0269772
0.0268851
0.026774
0.0266423
0.0264901
0.026321
0.0261467
0.0259954
0.0259336
0.0261253
0.0270436
0.030616
0.0547705
0.0272463
0.0272266
0.0271986
0.0271613
0.0271132
0.0270526
0.0269773
0.0268852
0.0267741
0.0266424
0.0264901
0.0263211
0.0261468
0.0259955
0.0259336
0.0261254
0.0270436
0.030616
0.0547707
0.0272464
0.0272267
0.0271987
0.0271614
0.0271133
0.0270527
0.0269774
0.0268853
0.0267742
0.0266425
0.0264902
0.0263212
0.0261468
0.0259955
0.0259337
0.0261254
0.0270437
0.0306161
0.0547708
0.0272464
0.0272268
0.0271988
0.0271615
0.0271134
0.0270527
0.0269775
0.0268854
0.0267742
0.0266425
0.0264902
0.0263212
0.0261469
0.0259955
0.0259337
0.0261254
0.0270437
0.0306161
0.0547709
0.0272465
0.0272268
0.0271989
0.0271615
0.0271134
0.0270528
0.0269775
0.0268854
0.0267743
0.0266425
0.0264903
0.0263212
0.0261469
0.0259956
0.0259337
0.0261254
0.0270437
0.0306161
0.0547709
0.0272465
0.0272268
0.0271989
0.0271616
0.0271135
0.0270528
0.0269775
0.0268854
0.0267743
0.0266425
0.0264903
0.0263212
0.0261469
0.0259956
0.0259337
0.0261255
0.0270437
0.0306161
0.0547709
0.0272465
0.0272268
0.0271989
0.0271616
0.0271135
0.0270528
0.0269776
0.0268854
0.0267743
0.0266426
0.0264903
0.0263212
0.0261469
0.0259956
0.0259337
0.0261255
0.0270437
0.0306161
0.0547709
)
;

boundaryField
{
    leftWall
    {
        type            epsilonWallFunction;
        blending        stepwise;
        value           nonuniform List<scalar> 
50
(
0.00388811
0.00694151
0.0113286
0.0154191
0.0191137
0.0224552
0.025496
0.0282773
0.0323056
0.0368475
0.0406611
0.0438626
0.0465428
0.0487768
0.0506283
0.0521525
0.0533979
0.0544074
0.0552185
0.0558645
0.0563742
0.0567726
0.0570812
0.0573179
0.0574978
0.0576334
0.0577345
0.0578094
0.0578643
0.0579043
0.0579332
0.0579539
0.0579686
0.057979
0.0579863
0.0579914
0.0579949
0.0579974
0.057999
0.0580001
0.0580009
0.0580014
0.0580017
0.058002
0.0580021
0.0580022
0.0580023
0.0580023
0.0580023
0.0580024
)
;
    }
    rightWall
    {
        type            epsilonWallFunction;
        blending        stepwise;
        value           nonuniform List<scalar> 
50
(
0.00423344
0.00679648
0.0108841
0.0147205
0.0181964
0.0213413
0.0242012
0.0268149
0.0305965
0.0348547
0.0384267
0.041424
0.0439335
0.0460264
0.047763
0.049195
0.0503676
0.0513205
0.0520887
0.0527026
0.0531888
0.0535706
0.0538676
0.0540965
0.0542714
0.0544038
0.0545031
0.0545771
0.0546316
0.0546715
0.0547005
0.0547214
0.0547363
0.0547469
0.0547544
0.0547596
0.0547632
0.0547657
0.0547674
0.0547686
0.0547694
0.0547699
0.0547703
0.0547705
0.0547707
0.0547708
0.0547709
0.0547709
0.0547709
0.0547709
)
;
    }
    lowerWall
    {
        type            epsilonWallFunction;
        blending        stepwise;
        value           nonuniform List<scalar> 
62
(
0.00388811
0.0173863
0.0291365
0.0389393
0.047178
0.0541183
0.0599452
0.0647949
0.0687705
0.07195
0.0743899
0.0761256
0.0771692
0.0775041
0.0770748
0.0757706
0.0733961
0.0696237
0.0639207
0.0554594
0.0430971
0.025754
0.00470448
0.00470448
0.00944677
0.0165732
0.0238456
0.0315718
0.0410587
0.0568653
0.0982788
0.12229
0.0959217
0.0956236
0.120753
0.00509678
0.00910139
0.0157337
0.0225564
0.0298822
0.0390575
0.0545553
0.0933872
0.00509678
0.0280276
0.0459442
0.0579719
0.0656558
0.0703737
0.0730215
0.0741256
0.0739787
0.0727307
0.0704412
0.0671085
0.0626836
0.0570752
0.0501451
0.0416943
0.0314293
0.0189185
0.00423344
)
;
    }
    atmosphere
    {
        type            inletOutlet;
        inletValue      uniform 0.1;
        value           nonuniform List<scalar> 
46
(
0.0580024
0.0316228
0.0275055
0.0263302
0.02599
0.0259615
0.0260586
0.0262026
0.0263575
0.0265062
0.0266414
0.0267604
0.0268629
0.0269499
0.0270228
0.0270832
0.0271326
0.0271725
0.0272041
0.0272282
0.0272456
0.027257
0.0272627
0.0272627
0.0272615
0.027259
0.0272551
0.0272465
0.0272268
0.0271989
0.0271616
0.0271135
0.0270528
0.0269776
0.0268854
0.0267743
0.0266426
0.0264903
0.0263212
0.0261469
0.0259956
0.0259337
0.0261255
0.0270437
0.0306161
0.0547709
)
;
    }
    defaultFaces
    {
        type            empty;
    }
}


// ************************************************************************* //
