/*--------------------------------*- C++ -*----------------------------------*\
| =========                 |                                                 |
| \\      /  F ield         | OpenFOAM: The Open Source CFD Toolbox           |
|  \\    /   O peration     | Version:  2406                                  |
|   \\  /    A nd           | Website:  www.openfoam.com                      |
|    \\/     M anipulation  |                                                 |
\*---------------------------------------------------------------------------*/
FoamFile
{
    version     2.0;
    format      ascii;
    arch        "LSB;label=32;scalar=64";
    class       volScalarField;
    location    "0.95";
    object      epsilon;
}
// * * * * * * * * * * * * * * * * * * * * * * * * * * * * * * * * * * * * * //

dimensions      [0 2 -3 0 0 0 0];

internalField   nonuniform List<scalar> 
2268
(
3.11056
4.22461
4.22461
4.22461
4.22461
4.22461
4.22461
4.22461
4.22461
4.22461
4.22461
4.22461
4.22461
0.0816976
0.0121144
0.01943
0.0250522
0.0283271
0.0293719
0.0279434
0.0234982
0.0153436
0.00353352
1.99652
3.53904
3.87395
3.99094
4.04704
4.07915
4.09939
4.11284
4.12192
4.12796
4.13166
4.13343
4.13343
0.087157
0.0127891
0.0134875
0.0157616
0.0172311
0.0176715
0.016935
0.0148018
0.0110724
0.0063092
1.99652
3.12319
3.57197
3.77087
3.87484
3.93634
3.9757
4.00204
4.01993
4.03183
4.03916
4.04265
4.04265
0.0891938
0.0155463
0.0140653
0.015403
0.0164398
0.0167587
0.0162096
0.0146674
0.0121204
0.0103965
1.99652
2.85875
3.32579
3.572
3.71212
3.79847
3.85492
3.89313
3.91926
3.93673
3.9475
3.95265
3.95265
0.0937199
0.0182054
0.0154244
0.0162237
0.0170334
0.0173142
0.0169117
0.0157669
0.0139992
0.0144084
1.99652
2.68257
3.12893
3.39683
3.5614
3.66728
3.73821
3.78692
3.82053
3.84313
3.8571
3.86379
3.86379
0.0983721
0.0206469
0.0169334
0.0173455
0.0179993
0.0182768
0.0180304
0.017275
0.01629
0.0186856
1.99652
2.55993
2.97193
3.24473
3.4238
3.5439
3.62646
3.68409
3.72426
3.75145
3.76834
3.77643
3.77643
0.102916
0.0228986
0.018422
0.0185193
0.0190504
0.0193436
0.0192688
0.0189441
0.0189618
0.024139
1.99652
2.47111
2.84601
3.11357
3.29937
3.4289
3.52027
3.58516
3.63089
3.66208
3.68153
3.69088
3.69088
0.107357
0.024992
0.0198168
0.0196304
0.0200532
0.0203696
0.0204713
0.0206098
0.0220161
0.0336563
1.99652
2.40455
2.74408
3.00067
3.1875
3.32243
3.42001
3.4905
3.54077
3.57532
3.59698
3.60742
3.60742
0.111718
0.0269386
0.0210682
0.0206046
0.0209222
0.0212591
0.02152
0.0220686
0.0250608
0.0586858
0.00433546
0.0212223
0.0338009
0.0421866
0.0476044
0.0510193
0.0530309
0.0539804
0.0540516
0.0533344
0.05186
0.0496195
0.0465727
0.0426494
0.0377435
0.0316969
0.0242634
0.015045
0.00378754
0.00732498
0.0142519
0.0198304
0.0236961
0.0262613
0.0279102
0.0288996
0.0293837
0.0294489
0.0291374
0.0284623
0.027415
0.0259692
0.0240817
0.0216912
0.0187138
0.0150419
0.0105871
0.00576766
0.012293
0.0150737
0.018844
0.0216331
0.0235613
0.0248355
0.0256152
0.0260049
0.0260669
0.025832
0.0253084
0.0244861
0.0233403
0.0218319
0.019909
0.0175094
0.0145812
0.0112002
0.0089665
0.0173371
0.0170901
0.0197036
0.0218512
0.0234235
0.0244996
0.0251717
0.0255115
0.0255654
0.0253568
0.0248906
0.0241553
0.0231259
0.0217654
0.0200272
0.0178642
0.0152645
0.0124258
0.011931
0.0227889
0.0196203
0.0211267
0.0227161
0.0239963
0.0249153
0.0255028
0.0258011
0.0258424
0.0256433
0.0252053
0.0245155
0.023549
0.0222699
0.020637
0.0186159
0.0162272
0.0137642
0.0146396
0.0296973
0.0225181
0.022728
0.0237645
0.0247718
0.0255453
0.0260537
0.0263111
0.026336
0.0261383
0.0257161
0.0250555
0.0241312
0.0229097
0.0213546
0.0194442
0.0172267
0.0150761
0.0171515
0.0413302
0.0256671
0.0242793
0.0247784
0.0255294
0.0261639
0.0265945
0.0268098
0.0268154
0.0266147
0.0262025
0.0255636
0.0246736
0.0235013
0.0220163
0.0202092
0.0181543
0.0163011
0.0195229
0.0696242
0.0285418
0.0255597
0.0256191
0.0261448
0.026649
0.0270033
0.0271755
0.0271599
0.0269535
0.0265482
0.0259281
0.0250697
0.0239452
0.0225309
0.0208301
0.0189436
0.0174
0.0217911
1.99652
2.32441
2.61366
2.8485
3.03072
3.169
3.2727
3.34956
3.40536
3.44418
3.4687
3.48057
3.48057
0.118385
0.0297252
0.0227364
0.0218394
0.0219924
0.022348
0.022796
0.0236517
0.0260973
0.034666
1.99652
2.25444
2.49121
2.69467
2.86184
2.99523
3.09941
3.17909
3.23832
3.28021
3.30697
3.32001
3.32001
0.126644
0.033119
0.0248551
0.0234874
0.0234597
0.0238032
0.0243369
0.0252052
0.0268734
0.0302494
1.99652
2.20583
2.40242
2.5775
2.7271
2.85097
2.95086
3.0293
3.0888
3.13153
3.1591
3.17262
3.17262
0.134104
0.0361543
0.0268055
0.0250548
0.024875
0.0251805
0.0257183
0.0265091
0.0277182
0.0295523
1.99652
2.17008
2.33539
2.48606
2.61837
2.73094
2.824
2.89864
2.95625
2.99815
3.02544
3.0389
3.0389
0.140832
0.0388628
0.0285494
0.0264698
0.0261551
0.0264109
0.0269253
0.0276476
0.0286327
0.0299597
1.99652
2.14268
2.28314
2.41317
2.52957
2.63062
2.71576
2.7852
2.83955
2.87953
2.90577
2.91877
2.91877
0.146872
0.0412782
0.0300898
0.0277175
0.0272805
0.0274839
0.0279696
0.0286474
0.0295312
0.0306794
1.99652
2.12104
2.24142
2.35407
2.4563
2.54637
2.62337
2.68702
2.73739
2.77478
2.79949
2.81177
2.81177
0.152259
0.0434254
0.03144
0.0288031
0.0282542
0.0284066
0.0288652
0.0295156
0.030354
0.0314347
1.99652
2.10357
2.2075
2.3055
2.39532
2.47532
2.54448
2.60224
2.64837
2.68285
2.70576
2.71718
2.71718
0.157027
0.045325
0.0326165
0.02974
0.0290887
0.0291931
0.0296269
0.0302589
0.0310755
0.0321273
1.99652
2.08928
2.17959
2.26521
2.34425
2.41523
2.47711
2.5292
2.57111
2.60261
2.62363
2.63414
2.63414
0.161217
0.0469975
0.0336376
0.0305447
0.0298002
0.0298599
0.0302706
0.0308884
0.031692
0.0327283
1.99652
2.07745
2.15641
2.23157
2.30131
2.36434
2.41963
2.46647
2.50436
2.53297
2.55213
2.56173
2.56173
0.164877
0.0484654
0.034523
0.0312361
0.0304069
0.0304248
0.0308135
0.0314183
0.0322117
0.0332367
1.99652
2.06761
2.13708
2.20339
2.26517
2.32126
2.37071
2.41279
2.44697
2.47289
2.49028
2.49901
2.49901
0.168063
0.0497551
0.0352948
0.031834
0.0309277
0.0309061
0.031273
0.0318645
0.032648
0.0336625
1.99652
2.05941
2.12094
2.17979
2.23479
2.28489
2.32922
2.36709
2.39795
2.42141
2.43719
2.44512
2.44512
0.170838
0.050898
0.0359778
0.0323602
0.0313822
0.031322
0.0316661
0.0322429
0.0330153
0.034019
1.99652
2.05259
2.10749
2.16009
2.20936
2.25435
2.29427
2.32847
2.35641
2.37769
2.39204
2.39925
2.39925
0.173272
0.0519327
0.0366011
0.0328387
0.0317908
0.0316905
0.0320092
0.0325687
0.0333279
0.0343194
1.99652
2.04696
2.09637
2.14377
2.18824
2.22893
2.26511
2.29617
2.32159
2.34099
2.35408
2.36068
2.36067
0.175452
0.0529085
0.0371999
0.0332962
0.0321747
0.032029
0.0323174
0.0328556
0.0335986
0.0345758
1.99652
2.04236
2.08729
2.13042
2.17093
2.20806
2.24113
2.26956
2.29287
2.31067
2.3227
2.32876
2.32876
0.177488
0.0538931
0.0378183
0.0337622
0.0325548
0.0323534
0.0326039
0.0331151
0.033838
0.0347986
1.99652
2.03868
2.08001
2.11972
2.15705
2.1913
2.22184
2.24812
2.2697
2.2862
2.29735
2.30297
2.30297
0.179547
0.054986
0.038511
0.0342671
0.0329487
0.0326759
0.0328783
0.0333562
0.0340548
0.034996
1.99652
2.03583
2.07438
2.11143
2.14629
2.17829
2.20685
2.23145
2.25166
2.26713
2.27759
2.28286
2.28286
0.181917
0.0563388
0.0393375
0.0348317
0.0333642
0.0330006
0.033145
0.033584
0.0342549
0.0351744
1.99652
2.03374
2.07026
2.10537
2.13841
2.16876
2.19586
2.21922
2.23842
2.25312
2.26306
2.26808
2.26808
0.185187
0.0581536
0.0403203
0.0354391
0.0337848
0.0333185
0.033401
0.0337994
0.0344413
0.0353381
1.99652
2.03238
2.06756
2.10139
2.13324
2.16251
2.18865
2.21119
2.22973
2.24392
2.25353
2.25837
2.25837
0.190525
0.0604007
0.0412773
0.0359726
0.0341509
0.0336021
0.0336351
0.0339992
0.0346149
0.03549
1.99652
2.03171
2.06623
2.09943
2.13068
2.15941
2.18508
2.20722
2.22542
2.23936
2.2488
2.25356
2.25356
0.193997
0.0607375
0.0413821
0.0361452
0.034359
0.0338128
0.0338331
0.0341793
0.034776
0.0356324
1.99652
2.03171
2.06623
2.09943
2.13068
2.15941
2.18508
2.20721
2.22542
2.23936
2.2488
2.25356
0.293442
0.0812798
0.048404
0.0390789
0.0356584
0.034338
0.0339305
0.0339893
0.0343388
0.034926
0.0357678
0.155913
0.160028
0.163162
0.166481
0.169299
0.171684
0.17382
0.175948
0.178422
0.181897
0.187619
0.191756
0.0807587
0.0513139
0.0412134
0.0369331
0.035012
0.0342081
0.0339899
0.0341159
0.0344839
0.035069
0.0358998
0.023051
0.0294876
0.0353783
0.0398598
0.0433589
0.0461984
0.0486219
0.050848
0.0531142
0.0556877
0.0585857
0.0595035
0.0478432
0.0410158
0.0373763
0.0354458
0.0344793
0.0340815
0.0340367
0.0342331
0.0346245
0.0352112
0.0360332
0.0202731
0.0195597
0.0229681
0.0261363
0.0288276
0.0311062
0.0330814
0.0348697
0.036582
0.0382815
0.0398168
0.0403923
0.0385007
0.0366363
0.0353295
0.0345379
0.0341364
0.0340167
0.0341045
0.0343595
0.0347718
0.0353603
0.0361739
0.0253326
0.0196584
0.021401
0.0236698
0.0258102
0.0277143
0.0293969
0.0309069
0.0322921
0.0335617
0.0346227
0.0352124
0.0350575
0.0346532
0.0342878
0.0340583
0.0339779
0.0340338
0.0342121
0.034509
0.0349361
0.0355243
0.0363289
0.0298732
0.0210678
0.0218008
0.0234979
0.0252723
0.0269225
0.0284063
0.029732
0.0309173
0.0319622
0.0328259
0.0334243
0.0337055
0.0337998
0.0338334
0.0338802
0.0339755
0.0341352
0.0343697
0.0346927
0.0351276
0.0357124
0.0365064
0.0336209
0.022569
0.0226539
0.0239803
0.0255077
0.0269804
0.0283235
0.029522
0.0305791
0.0314956
0.0322587
0.0328461
0.0332541
0.0335306
0.0337352
0.0339148
0.0341018
0.0343185
0.0345843
0.0349208
0.0353573
0.0359358
0.0367175
0.0367571
0.0239362
0.0235754
0.0246568
0.0260185
0.0273691
0.028614
0.0297249
0.0306981
0.0315361
0.0322392
0.0328075
0.0332498
0.0335923
0.0338681
0.0341085
0.0343399
0.0345848
0.0348652
0.035206
0.0356392
0.0362087
0.0369762
0.0394627
0.0251557
0.0244678
0.0253849
0.0266385
0.0279089
0.0290883
0.0301409
0.0310595
0.0318475
0.0325115
0.03306
0.0335061
0.0338688
0.0341712
0.0344364
0.0346863
0.0349424
0.0352268
0.0355657
0.0359922
0.0365504
0.0373018
0.0419181
0.0262783
0.0253343
0.0261404
0.0273269
0.0285488
0.0296883
0.0307045
0.0315884
0.0323442
0.0329814
0.0335124
0.0339517
0.0343164
0.0346251
0.0348972
0.0351519
0.0354094
0.0356915
0.0360246
0.0364417
0.0369867
0.0377198
0.0443246
0.027388
0.0262271
0.0269574
0.0281061
0.0293028
0.0304208
0.0314159
0.0322782
0.0330125
0.0336305
0.0341462
0.0345753
0.0349342
0.03524
0.03551
0.0357622
0.0360155
0.0362916
0.0366162
0.037022
0.0375519
0.0382641
0.0469281
0.0286007
0.0272352
0.0279108
0.0290407
0.0302269
0.0313345
0.0323168
0.0331639
0.0338818
0.0344836
0.0349848
0.0354018
0.0357511
0.0360491
0.0363122
0.0365576
0.0368036
0.0370711
0.0373854
0.0377782
0.0382909
0.0389791
0.0500456
0.0300743
0.0284879
0.0291154
0.0302333
0.0314131
0.0325115
0.0334807
0.0343117
0.035012
0.0355961
0.0360807
0.0364829
0.0368192
0.0371059
0.037359
0.0375948
0.0378311
0.0380882
0.0383904
0.0387683
0.0392613
0.0399215
0.0540997
0.0320264
0.0301661
0.0307312
0.0318267
0.0329881
0.0340648
0.0350092
0.035814
0.0364884
0.0370481
0.0375105
0.0378931
0.0382123
0.0384841
0.0387239
0.0389475
0.0391721
0.0394169
0.0397052
0.0400659
0.040536
0.0411637
0.0596618
0.0347588
0.032518
0.032973
0.0340066
0.0351132
0.0361363
0.0370293
0.0377869
0.0384192
0.0389422
0.0393731
0.0397289
0.0400254
0.0402778
0.0405008
0.0407094
0.0409198
0.0411502
0.0414223
0.0417631
0.0422064
0.0427959
0.0675179
0.038693
0.0358804
0.0361189
0.0370033
0.0379821
0.0388932
0.0396905
0.0403679
0.0409342
0.0414032
0.0417899
0.0421095
0.0423764
0.0426041
0.0428063
0.0429968
0.0431902
0.0434036
0.0436568
0.0439742
0.0443863
0.0449315
0.0787928
0.0444315
0.0407071
0.0405163
0.0410861
0.0418121
0.0425211
0.0431598
0.0437141
0.0441847
0.0445791
0.0449074
0.0451806
0.0454103
0.0456079
0.0457849
0.0459536
0.0461272
0.0463206
0.0465516
0.0468418
0.0472175
0.0477117
0.0952251
0.0528742
0.0476039
0.0465732
0.0465423
0.0468257
0.0472122
0.0476169
0.0480007
0.0483455
0.0486457
0.048902
0.0491195
0.0493053
0.0494676
0.0496155
0.0497591
0.0499096
0.0500799
0.0502852
0.0505437
0.0508776
0.0513138
0.119824
0.0654447
0.0573435
0.0547013
0.0536203
0.0532145
0.0531469
0.0532479
0.0534232
0.0536205
0.0538131
0.0539889
0.0541447
0.0542822
0.0544058
0.0545217
0.0546375
0.0547621
0.0549059
0.0550816
0.0553038
0.0555901
0.0559615
0.158593
0.0844897
0.0707422
0.0651286
0.0624091
0.0610816
0.0604757
0.0602455
0.060205
0.0602539
0.0603394
0.0604351
0.0605293
0.0606181
0.0607023
0.060785
0.0608713
0.0609678
0.0610824
0.0612246
0.0614056
0.0616387
0.0619386
0.226518
0.113637
0.0879782
0.0774497
0.0726509
0.0703885
0.0693173
0.0688251
0.0686181
0.0685506
0.0685493
0.0685778
0.0686185
0.0686638
0.0687116
0.0687626
0.0688196
0.0688868
0.0689697
0.0690748
0.0692099
0.069384
0.0696063
0.387478
0.154982
0.106066
0.0898614
0.0836213
0.0809972
0.0798221
0.079277
0.079023
0.0789085
0.0788623
0.0788497
0.0788538
0.0788667
0.0788853
0.078909
0.0789389
0.0789771
0.0790268
0.0790916
0.0791763
0.0792856
0.0794247
0.983697
0.1738
0.110807
0.0981417
0.0943239
0.0929225
0.0923341
0.0920627
0.0919297
0.0918623
0.0918276
0.0918099
0.0918016
0.0917988
0.0917997
0.0918039
0.0918114
0.0918227
0.0918388
0.091861
0.0918906
0.0919295
0.0919793
0.0766729
0.0623858
0.0644584
0.0851307
0.0348585
0.0357459
0.0363392
0.0366009
0.0312889
0.0321045
0.0324135
0.0322417
0.0311749
0.0318176
0.0320426
0.0319023
0.031751
0.0323254
0.0325128
0.0323739
0.0324551
0.0329995
0.0331648
0.033015
0.0331238
0.0336512
0.0338013
0.0336397
0.0337095
0.0342249
0.0343636
0.0341922
0.0342058
0.0347114
0.0348411
0.034662
0.0346206
0.0351177
0.03524
0.0350546
0.0349664
0.0354558
0.0355715
0.0353809
0.0352562
0.0357382
0.0358478
0.0356523
0.0355014
0.0359761
0.0360797
0.0358795
0.0357122
0.0361792
0.0362766
0.0360716
0.0358965
0.0363555
0.0364464
0.0362363
0.0360608
0.0365113
0.0365955
0.03638
0.0362099
0.0366517
0.0367288
0.0365077
0.0363473
0.0367804
0.0368505
0.0366238
0.036476
0.0369008
0.0369642
0.0367319
0.036599
0.0370161
0.0370731
0.0368356
0.0367198
0.0371296
0.0371807
0.0369384
0.0368427
0.0372456
0.0372911
0.0370443
0.036973
0.037369
0.0374092
0.0371582
0.037117
0.0375059
0.0375408
0.037286
0.0372827
0.0376642
0.0376939
0.0374357
0.0374807
0.0378542
0.0378787
0.0376175
0.0377249
0.0380896
0.038109
0.0378456
0.038034
0.038389
0.0384035
0.0381389
0.0384332
0.0387774
0.0387871
0.0385227
0.0389559
0.0392879
0.0392932
0.0390305
0.0396456
0.0399637
0.0399649
0.0397061
0.0405585
0.0408607
0.0408583
0.0406059
0.0417659
0.04205
0.0420444
0.0418013
0.0433578
0.0436212
0.0436132
0.0433825
0.0454469
0.045687
0.0456772
0.0454624
0.0481744
0.0483886
0.0483777
0.0481821
0.0517176
0.0519034
0.0518923
0.0517193
0.0563008
0.0564559
0.0564452
0.056298
0.0622082
0.0623308
0.0623213
0.0622027
0.0698021
0.0698907
0.069883
0.0697955
0.0795437
0.0795973
0.0795922
0.0795377
0.0920207
0.0920386
0.0920365
0.0920167
0.0384259
0.0290225
0.0268125
0.0265374
0.0267835
0.0271044
0.0273449
0.0274502
0.0273997
0.0271822
0.0267855
0.0261931
0.0253838
0.024336
0.0230377
0.0215133
0.0199063
0.0188843
0.0252204
0.0323353
0.0291667
0.0279437
0.0276491
0.0277194
0.0278809
0.0280058
0.0280352
0.0279398
0.0277015
0.0273044
0.026731
0.0259628
0.0249848
0.023797
0.0224459
0.0211208
0.0206382
0.0290823
0.0309889
0.029594
0.0288988
0.0286619
0.028652
0.0287136
0.0287546
0.0287229
0.0285876
0.0283274
0.0279238
0.0273591
0.0266164
0.025685
0.0245738
0.0233443
0.0222186
0.0221272
0.0322183
0.0310884
0.0302233
0.0297545
0.0295532
0.0294983
0.0294937
0.0294732
0.0293931
0.0292236
0.0289423
0.0285298
0.0279678
0.0272406
0.0263406
0.0252823
0.0241379
0.0231537
0.0233516
0.0347542
0.0316326
0.0309171
0.0305254
0.0303297
0.0302407
0.0301885
0.0301218
0.0300031
0.0298048
0.0295043
0.0290817
0.0285184
0.0277997
0.0269197
0.0258968
0.0248108
0.0239268
0.0243415
0.036797
0.0322736
0.0315867
0.0312077
0.0309993
0.0308801
0.0307911
0.0306884
0.030539
0.0303165
0.0299987
0.0295655
0.0289984
0.0282829
0.0274144
0.026414
0.025367
0.0245535
0.0251323
0.0384334
0.0328847
0.0321898
0.0317991
0.0315703
0.0314239
0.0313051
0.0311738
0.0309994
0.0307566
0.0304234
0.0299797
0.029407
0.0286908
0.0278277
0.0268402
0.0258182
0.0250542
0.0257575
0.0397351
0.0334239
0.0327121
0.0323029
0.0320524
0.0318819
0.0317385
0.0315841
0.0313891
0.0311291
0.0307823
0.0303284
0.0297489
0.0290295
0.0281671
0.0271859
0.0261791
0.0254492
0.0262467
0.0407618
0.033883
0.0331544
0.0327264
0.0324558
0.0322647
0.032101
0.0319275
0.0317155
0.0314408
0.0310819
0.0306182
0.0300312
0.0293068
0.0284422
0.0274626
0.0264641
0.0257572
0.0266257
0.041564
0.0342673
0.0335241
0.0330794
0.0327913
0.0325826
0.032402
0.0322127
0.0319864
0.0316992
0.0313293
0.0308564
0.0302618
0.0295314
0.0286627
0.0276817
0.0266867
0.0259949
0.0269162
0.0421845
0.0345869
0.0338312
0.0333721
0.033069
0.0328454
0.0326506
0.0324481
0.0322096
0.0319115
0.0315319
0.0310505
0.0304484
0.0297115
0.0288375
0.0278533
0.0268588
0.0261764
0.0271366
0.0426594
0.0348524
0.0340858
0.0336141
0.0332981
0.0330619
0.032855
0.0326412
0.0323924
0.0320848
0.0316965
0.0312072
0.0305978
0.0298544
0.0289749
0.0279864
0.0269906
0.0263137
0.027302
0.0430191
0.0350738
0.0342971
0.0338142
0.0334868
0.0332397
0.0330224
0.032799
0.0325412
0.0322253
0.0318293
0.0313328
0.0307167
0.0299671
0.0290818
0.0280888
0.0270905
0.0264165
0.027425
0.0432886
0.0352599
0.0344735
0.0339802
0.0336426
0.0333857
0.0331594
0.0329275
0.0326619
0.0323386
0.0319358
0.0314328
0.0308106
0.0300551
0.0291645
0.0281669
0.0271657
0.0264927
0.0275155
0.0434887
0.0354181
0.0346219
0.0341187
0.0337717
0.033506
0.0332715
0.0330321
0.0327595
0.0324298
0.0320209
0.031512
0.0308843
0.0301235
0.029228
0.0282261
0.0272219
0.0265489
0.0275817
0.043636
0.0355547
0.0347486
0.0342357
0.0338795
0.0336056
0.0333637
0.0331175
0.0328387
0.0325032
0.0320888
0.0315748
0.0309421
0.0301766
0.0292767
0.0282708
0.0272637
0.0265901
0.0276297
0.0437438
0.0356751
0.0348587
0.034336
0.0339711
0.0336893
0.0334404
0.033188
0.0329035
0.0325628
0.0321435
0.0316249
0.0309878
0.030218
0.0293142
0.0283048
0.0272949
0.0266205
0.0276647
0.0438229
0.0357837
0.0349567
0.0344242
0.0340506
0.0337612
0.0335057
0.0332474
0.0329577
0.0326121
0.0321884
0.0316656
0.0310245
0.030251
0.0293436
0.028331
0.0273186
0.0266431
0.0276905
0.0438817
0.0358844
0.0350468
0.0345043
0.034122
0.0338252
0.0335632
0.0332994
0.0330047
0.0326546
0.0322268
0.0317001
0.0310553
0.0302783
0.0293676
0.0283522
0.0273374
0.0266607
0.0277102
0.0439272
0.035981
0.0351328
0.0345803
0.0341893
0.033885
0.0336168
0.0333475
0.033048
0.0326937
0.0322619
0.0317314
0.0310831
0.0303028
0.029389
0.0283706
0.0273536
0.0266755
0.0277267
0.0439654
0.0360772
0.0352185
0.0346561
0.0342564
0.0339447
0.0336702
0.0333955
0.0330913
0.0327327
0.032297
0.0317628
0.0311109
0.0303272
0.0294101
0.0283889
0.0273693
0.0266898
0.0277423
0.0440018
0.0361772
0.0353084
0.0347361
0.0343277
0.0340087
0.0337278
0.0334477
0.0331388
0.0327758
0.032336
0.0317979
0.0311423
0.0303548
0.0294341
0.0284095
0.0273872
0.0267058
0.0277597
0.0440426
0.0362859
0.0354075
0.0348256
0.0344086
0.0340822
0.033795
0.0335094
0.0331956
0.0328281
0.0323839
0.0318415
0.0311814
0.0303896
0.0294647
0.028436
0.0274101
0.0267266
0.0277823
0.044095
0.0364095
0.0355223
0.0349312
0.0345058
0.034172
0.0338785
0.0335873
0.0332683
0.0328959
0.0324468
0.0318995
0.0312343
0.0304372
0.0295068
0.0284729
0.0274425
0.026756
0.0278143
0.0441688
0.0365561
0.0356613
0.0350616
0.0346281
0.0342871
0.0339873
0.0336903
0.0333658
0.032988
0.0325335
0.0319802
0.0313088
0.030505
0.0295677
0.0285269
0.0274903
0.0268
0.0278622
0.0442784
0.0367366
0.0358358
0.0352284
0.0347873
0.0344395
0.0341333
0.0338304
0.0335002
0.0331165
0.0326556
0.0320955
0.0314164
0.0306042
0.0296579
0.0286078
0.0275628
0.0268672
0.0279358
0.0444447
0.0369656
0.0360609
0.0354472
0.0349994
0.034645
0.0343328
0.034024
0.0336878
0.0332977
0.0328298
0.0322616
0.0315733
0.0307505
0.0297925
0.0287302
0.0276738
0.0269711
0.02805
0.0446996
0.0372627
0.0363573
0.035739
0.0352856
0.0349256
0.0346076
0.0342932
0.033951
0.0335543
0.0330788
0.0325015
0.0318024
0.0309668
0.0299942
0.028916
0.0278444
0.0271326
0.0282277
0.0450912
0.0376544
0.036752
0.0361317
0.0356744
0.0353097
0.034987
0.0346675
0.0343198
0.0339169
0.0334337
0.032847
0.0321361
0.0312859
0.0302958
0.029198
0.028107
0.0273837
0.0285046
0.0456925
0.0381751
0.0372808
0.0366618
0.0362028
0.0358353
0.0355092
0.035186
0.0348341
0.034426
0.0339364
0.0333412
0.0326189
0.0317537
0.0307446
0.0296241
0.0285099
0.0277737
0.0289359
0.0466136
0.0388697
0.0379899
0.0373764
0.0369188
0.0365509
0.0362237
0.0358989
0.0355453
0.0351348
0.0346417
0.0340412
0.0333107
0.0324333
0.0314067
0.0302636
0.029125
0.0283772
0.0296054
0.048018
0.0397959
0.0389381
0.0383354
0.0378832
0.0375183
0.0371931
0.0368704
0.0365189
0.0361108
0.0356199
0.0350207
0.0342896
0.0334081
0.0323722
0.0312134
0.0300559
0.0293051
0.0306395
0.0501457
0.0410263
0.0401994
0.0396138
0.0391721
0.0388145
0.0384957
0.0381798
0.0378364
0.0374378
0.0369581
0.0363716
0.0356539
0.0347851
0.0337588
0.0326043
0.0314477
0.0307178
0.0322245
0.0533409
0.0426517
0.0418659
0.0413048
0.0408794
0.0405345
0.0402277
0.0399249
0.0395971
0.0392179
0.0387622
0.0382053
0.037523
0.0366953
0.035714
0.0346054
0.0334961
0.0328412
0.0346292
0.058089
0.0447857
0.0440518
0.0435235
0.0431213
0.0427953
0.0425069
0.0422245
0.0419215
0.0415736
0.041158
0.0406527
0.0400366
0.0392923
0.0384134
0.0374257
0.0364556
0.0359859
0.0382382
0.0650728
0.0475695
0.046899
0.0464124
0.0460408
0.0457406
0.0454775
0.0452235
0.044955
0.0446514
0.0442938
0.0438656
0.0433532
0.0427483
0.042055
0.0413087
0.0406436
0.0405739
0.0436103
0.0752817
0.0511805
0.0505849
0.0501492
0.049816
0.0495486
0.0493178
0.0490997
0.048875
0.0486275
0.0483447
0.0480186
0.0476486
0.0472463
0.0468441
0.046514
0.0464315
0.0471703
0.051592
0.0902577
0.0558422
0.0553326
0.054957
0.0546701
0.0544422
0.0542498
0.0540739
0.0538997
0.0537168
0.0535203
0.0533137
0.0531159
0.0529712
0.0529682
0.0532709
0.0541927
0.0564988
0.0635489
0.112676
0.061838
0.0614249
0.0611185
0.0608852
0.0607027
0.0605534
0.0604232
0.0603024
0.0601861
0.0600772
0.0599917
0.0599705
0.0601011
0.0605588
0.0616843
0.0641398
0.0693285
0.0818129
0.147917
0.0695288
0.0692219
0.068993
0.0688199
0.0686875
0.0685837
0.0684993
0.0684289
0.0683725
0.0683384
0.0683515
0.0684691
0.0688161
0.0696614
0.071592
0.0759307
0.0858427
0.110392
0.210651
0.0793743
0.0791824
0.079039
0.0789318
0.0788523
0.0787935
0.0787507
0.0787217
0.0787087
0.0787213
0.0787837
0.0789512
0.0793495
0.0802745
0.0824701
0.0879927
0.10336
0.154149
0.377658
0.0919598
0.0918921
0.0918417
0.0918048
0.0917789
0.0917616
0.0917516
0.0917488
0.0917546
0.0917738
0.0918176
0.0919113
0.0921142
0.0925787
0.0937539
0.0972541
0.110701
0.192555
1.44581
)
;

boundaryField
{
    leftWall
    {
        type            epsilonWallFunction;
        blending        stepwise;
        value           nonuniform List<scalar> 
50
(
3.11056
1.99652
1.99652
1.99652
1.99652
1.99652
1.99652
1.99652
1.99652
1.99652
1.99652
1.99652
1.99652
1.99652
1.99652
1.99652
1.99652
1.99652
1.99652
1.99652
1.99652
1.99652
1.99652
1.99652
1.99652
1.99652
1.99652
1.99652
0.155913
0.023051
0.0202731
0.0253326
0.0298732
0.0336209
0.0367571
0.0394627
0.0419181
0.0443246
0.0469281
0.0500456
0.0540997
0.0596618
0.0675179
0.0787928
0.0952251
0.119824
0.158593
0.226518
0.387478
0.983697
)
;
    }
    rightWall
    {
        type            epsilonWallFunction;
        blending        stepwise;
        value           nonuniform List<scalar> 
50
(
0.00378754
0.00576766
0.0089665
0.011931
0.0146396
0.0171515
0.0195229
0.0217911
0.0252204
0.0290823
0.0322183
0.0347542
0.036797
0.0384334
0.0397351
0.0407618
0.041564
0.0421845
0.0426594
0.0430191
0.0432886
0.0434887
0.043636
0.0437438
0.0438229
0.0438817
0.0439272
0.0439654
0.0440018
0.0440426
0.044095
0.0441688
0.0442784
0.0444447
0.0446996
0.0450912
0.0456925
0.0466136
0.048018
0.0501457
0.0533409
0.058089
0.0650728
0.0752817
0.0902577
0.112676
0.147917
0.210651
0.377658
1.44581
)
;
    }
    lowerWall
    {
        type            epsilonWallFunction;
        blending        stepwise;
        value           nonuniform List<scalar> 
62
(
3.11056
4.22461
4.22461
4.22461
4.22461
4.22461
4.22461
4.22461
4.22461
4.22461
4.22461
4.22461
4.22461
0.0816976
0.0121144
0.01943
0.0250522
0.0283271
0.0293719
0.0279434
0.0234982
0.0153436
0.00353352
0.00353352
0.0063092
0.0103965
0.0144084
0.0186856
0.024139
0.0336563
0.0586858
0.0766729
0.0623858
0.0644584
0.0851307
0.00433546
0.00732498
0.012293
0.0173371
0.0227889
0.0296973
0.0413302
0.0696242
0.00433546
0.0212223
0.0338009
0.0421866
0.0476044
0.0510193
0.0530309
0.0539804
0.0540516
0.0533344
0.05186
0.0496195
0.0465727
0.0426494
0.0377435
0.0316969
0.0242634
0.015045
0.00378754
)
;
    }
    atmosphere
    {
        type            inletOutlet;
        inletValue      uniform 0.1;
        value           uniform 0.1;
    }
    defaultFaces
    {
        type            empty;
    }
}


// ************************************************************************* //
