/*--------------------------------*- C++ -*----------------------------------*\
| =========                 |                                                 |
| \\      /  F ield         | OpenFOAM: The Open Source CFD Toolbox           |
|  \\    /   O peration     | Version:  2406                                  |
|   \\  /    A nd           | Website:  www.openfoam.com                      |
|    \\/     M anipulation  |                                                 |
\*---------------------------------------------------------------------------*/
FoamFile
{
    version     2.0;
    format      ascii;
    arch        "LSB;label=32;scalar=64";
    class       volScalarField;
    location    "0.95";
    object      k;
}
// * * * * * * * * * * * * * * * * * * * * * * * * * * * * * * * * * * * * * //

dimensions      [0 2 -2 0 0 0 0];

internalField   nonuniform List<scalar> 
2268
(
0.1
0.1
0.1
0.1
0.1
0.1
0.1
0.1
0.1
0.1
0.1
0.1
0.1
0.00719793
0.0019375
0.0026592
0.0031578
0.0034317
0.00351841
0.00340514
0.00303446
0.00228371
0.000858359
0.1
0.1
0.1
0.1
0.1
0.1
0.1
0.1
0.1
0.1
0.1
0.1
0.1
0.0053022
0.00429232
0.00602049
0.00707881
0.00767366
0.00786459
0.00762151
0.00682664
0.00523744
0.00207964
0.1
0.1
0.1
0.1
0.1
0.1
0.1
0.1
0.1
0.1
0.1
0.1
0.1
0.00551156
0.0057991
0.00791508
0.00922022
0.00996909
0.0102216
0.00993808
0.00897501
0.00701945
0.00290321
0.1
0.1
0.1
0.1
0.1
0.1
0.1
0.1
0.1
0.1
0.1
0.1
0.1
0.00603022
0.00699784
0.00936639
0.0108349
0.0116936
0.0120041
0.0117224
0.010687
0.00850845
0.00361093
0.1
0.1
0.1
0.1
0.1
0.1
0.1
0.1
0.1
0.1
0.1
0.1
0.1
0.00658126
0.00802298
0.0106004
0.0122042
0.0131592
0.0135351
0.0132888
0.0122469
0.00993533
0.0042966
0.1
0.1
0.1
0.1
0.1
0.1
0.1
0.1
0.1
0.1
0.1
0.1
0.1
0.00713986
0.00893653
0.0116982
0.0134247
0.0144727
0.0149245
0.0147452
0.0137612
0.0114265
0.00509959
0.1
0.1
0.1
0.1
0.1
0.1
0.1
0.1
0.1
0.1
0.1
0.1
0.1
0.00770547
0.00977371
0.0126993
0.0145403
0.0156808
0.0162195
0.0161365
0.0152783
0.0130902
0.00636914
0.1
0.1
0.1
0.1
0.1
0.1
0.1
0.1
0.1
0.1
0.1
0.1
0.1
0.00827972
0.0105546
0.0136245
0.0155723
0.016805
0.0174394
0.0174767
0.016807
0.0150004
0.00923272
0.000987583
0.00285139
0.00389031
0.00451014
0.00488824
0.00511865
0.00525138
0.00531269
0.00531597
0.00526726
0.005168
0.00501622
0.0048068
0.00453096
0.00417451
0.00371384
0.00310569
0.00225615
0.00112453
0.00247638
0.0065565
0.00875378
0.0100849
0.010905
0.0114077
0.011698
0.0118321
0.0118391
0.0117321
0.0115142
0.0111809
0.0107206
0.0101136
0.00932869
0.0083146
0.00698109
0.00514118
0.0021005
0.00350039
0.00879021
0.0114908
0.0131213
0.0141315
0.0147538
0.0151135
0.0152784
0.0152835
0.015145
0.0148662
0.0144414
0.0138556
0.0130838
0.0120867
0.0108012
0.00911831
0.00680857
0.00282189
0.00440483
0.0106535
0.0136521
0.0154359
0.0165447
0.0172312
0.0176285
0.017808
0.0178075
0.0176438
0.0173204
0.0168301
0.0161556
0.0152684
0.0141238
0.0126514
0.0107304
0.00809489
0.00341664
0.00528777
0.0124201
0.0155932
0.0174414
0.0185937
0.0193115
0.0197268
0.0199109
0.019901
0.0197139
0.0193523
0.0188077
0.018061
0.0170808
0.0158185
0.0141981
0.0120884
0.00918605
0.00391834
0.00631046
0.014219
0.0174339
0.0192726
0.0204266
0.021151
0.0215701
0.0217506
0.0217279
0.0215174
0.0211209
0.0205285
0.0197194
0.0186596
0.0172977
0.0155528
0.0132835
0.0101481
0.00435672
0.00786745
0.016143
0.0192209
0.0209823
0.0221048
0.0228167
0.023228
0.0233984
0.0233598
0.0231257
0.0226963
0.0220603
0.0211954
0.0200658
0.0186172
0.0167646
0.0143563
0.0110132
0.0047514
0.0111376
0.0182368
0.0209586
0.0225887
0.0236552
0.02434
0.0247345
0.0248895
0.0248324
0.0245741
0.0241131
0.0234369
0.0225215
0.0213294
0.0198043
0.0178573
0.0153271
0.0117986
0.00511421
0.1
0.1
0.1
0.1
0.1
0.1
0.1
0.1
0.1
0.1
0.1
0.1
0.1
0.00919491
0.0117013
0.0149664
0.0170686
0.0184436
0.019236
0.0194844
0.0191615
0.0181411
0.0159842
0.1
0.1
0.1
0.1
0.1
0.1
0.1
0.1
0.1
0.1
0.1
0.1
0.1
0.010395
0.0130359
0.0165135
0.0188043
0.0203677
0.0213803
0.0219229
0.0220427
0.0217822
0.021211
0.1
0.1
0.1
0.1
0.1
0.1
0.1
0.1
0.1
0.1
0.1
0.1
0.1
0.0115454
0.0141875
0.0178393
0.0203016
0.0220413
0.0232574
0.0240564
0.0245194
0.0247377
0.024847
0.1
0.1
0.1
0.1
0.1
0.1
0.1
0.1
0.1
0.1
0.1
0.1
0.1
0.0126402
0.0151928
0.0189841
0.0215977
0.0234947
0.0248866
0.0258921
0.0266028
0.0271127
0.027537
0.1
0.1
0.1
0.1
0.1
0.1
0.1
0.1
0.1
0.1
0.1
0.1
0.1
0.0136724
0.0160749
0.0199746
0.0227175
0.0247494
0.0262871
0.0274537
0.0283413
0.0290361
0.0296308
0.1
0.1
0.1
0.1
0.1
0.1
0.1
0.1
0.1
0.1
0.1
0.1
0.1
0.0146348
0.0168489
0.0208299
0.0236808
0.0258255
0.0274816
0.0287729
0.0297889
0.0306077
0.0313075
0.1
0.1
0.1
0.1
0.1
0.1
0.1
0.1
0.1
0.1
0.1
0.1
0.1
0.0155222
0.0175261
0.0215661
0.0245056
0.0267433
0.0284948
0.0298829
0.0309939
0.0319004
0.0326713
0.1
0.1
0.1
0.1
0.1
0.1
0.1
0.1
0.1
0.1
0.1
0.1
0.1
0.0163317
0.0181168
0.0221982
0.0252099
0.0275236
0.0293516
0.0308152
0.0319979
0.0329685
0.0337904
0.1
0.1
0.1
0.1
0.1
0.1
0.1
0.1
0.1
0.1
0.1
0.1
0.1
0.0170629
0.0186314
0.022741
0.0258113
0.0281869
0.0300763
0.0315989
0.0328363
0.0338546
0.034714
0.1
0.1
0.1
0.1
0.1
0.1
0.1
0.1
0.1
0.1
0.1
0.1
0.1
0.0177186
0.0190815
0.0232104
0.0263285
0.0287544
0.0306926
0.0322609
0.0335398
0.0345935
0.0354804
0.1
0.1
0.1
0.1
0.1
0.1
0.1
0.1
0.1
0.1
0.1
0.1
0.1
0.0183037
0.0194804
0.0236233
0.0267808
0.0292472
0.0312234
0.0328263
0.0341356
0.0352146
0.0361205
0.1
0.1
0.1
0.1
0.1
0.1
0.1
0.1
0.1
0.1
0.1
0.1
0.1
0.0188264
0.0198439
0.023999
0.0271892
0.0296875
0.0316918
0.0333189
0.0346485
0.0357436
0.036661
0.1
0.1
0.1
0.1
0.1
0.1
0.1
0.1
0.1
0.1
0.1
0.1
0.1
0.0192979
0.0201918
0.0243604
0.0275775
0.0300986
0.0321208
0.0337616
0.0351014
0.0362035
0.0371246
0.1
0.1
0.1
0.1
0.1
0.1
0.1
0.1
0.1
0.1
0.1
0.1
0.1
0.0197352
0.0205509
0.0247362
0.0279732
0.0305063
0.0325342
0.0341767
0.0355155
0.0366149
0.0375316
0.1
0.1
0.1
0.1
0.1
0.1
0.1
0.1
0.1
0.1
0.1
0.1
0.1
0.0201652
0.0209608
0.0251648
0.0284098
0.0309388
0.0329562
0.0345854
0.0359106
0.0369965
0.0378999
0.1
0.1
0.1
0.1
0.1
0.1
0.1
0.1
0.1
0.1
0.1
0.1
0.1
0.0206365
0.021486
0.0256999
0.0289278
0.0314266
0.0334105
0.035008
0.0363043
0.0373645
0.038245
0.1
0.1
0.1
0.1
0.1
0.1
0.1
0.1
0.1
0.1
0.1
0.1
0.1
0.0212518
0.0222393
0.0264164
0.0295735
0.0319996
0.0339189
0.0354613
0.0367113
0.0377325
0.0385798
0.1
0.1
0.1
0.1
0.1
0.1
0.1
0.1
0.1
0.1
0.1
0.1
0.1
0.0222606
0.0234179
0.0274053
0.0303891
0.0326806
0.0344963
0.0359576
0.0371428
0.0381112
0.0389147
0.1
0.1
0.1
0.1
0.1
0.1
0.1
0.1
0.1
0.1
0.1
0.1
0.1
0.0241584
0.0252495
0.0287166
0.031385
0.0334739
0.0351472
0.0365022
0.037605
0.0385078
0.0392578
0.1
0.1
0.1
0.1
0.1
0.1
0.1
0.1
0.1
0.1
0.1
0.1
0.0290485
0.0240274
0.0273093
0.0302106
0.0325099
0.0343592
0.0358639
0.0370937
0.0381
0.0389264
0.0396147
0.0182511
0.0176014
0.0180417
0.0185299
0.0189368
0.0192776
0.0195858
0.0199038
0.0202932
0.0208689
0.0218942
0.0238846
0.0239229
0.0267043
0.0294593
0.0317843
0.0337112
0.0353085
0.0366321
0.0377258
0.0386265
0.0393692
0.0399897
0.00500355
0.00945514
0.0121594
0.0141386
0.0156853
0.0169525
0.0180435
0.0190467
0.0200597
0.0212199
0.0227414
0.0248564
0.0271237
0.0293985
0.0314945
0.0333416
0.0349348
0.0362915
0.0374352
0.0383904
0.0391822
0.0398374
0.0403867
0.00453263
0.0106687
0.0140177
0.0164688
0.0184074
0.0200101
0.0213913
0.0226435
0.0238567
0.0251309
0.0265722
0.0282356
0.0299806
0.0317101
0.0333423
0.0348267
0.0361416
0.0372837
0.0382593
0.039081
0.0397654
0.0403332
0.0408108
0.00526584
0.0121811
0.0158825
0.0185959
0.020765
0.0225727
0.0241318
0.025529
0.0268407
0.0281375
0.0294771
0.0308785
0.0322962
0.0336863
0.0350058
0.0362214
0.037313
0.0382716
0.039097
0.0397953
0.0403781
0.0408617
0.0412691
0.00588726
0.0134608
0.0174483
0.0203602
0.022699
0.0246566
0.0263435
0.0278397
0.0292101
0.0305086
0.031774
0.0330219
0.0342409
0.035413
0.0365168
0.0375333
0.0384483
0.0392543
0.0399495
0.0405376
0.0410271
0.0414321
0.041773
0.00637836
0.0145145
0.0187574
0.0218428
0.0243244
0.0264048
0.0281937
0.0297663
0.03118
0.0324795
0.0336972
0.0348501
0.0359413
0.0369666
0.0379176
0.0387853
0.0395619
0.0402431
0.0408279
0.0413197
0.041726
0.0420593
0.0423388
0.00677744
0.0153946
0.0198713
0.0231192
0.0257324
0.0279235
0.0298028
0.0314423
0.0328951
0.0342016
0.0353918
0.0364849
0.0374914
0.038415
0.0392556
0.0400113
0.0406798
0.0412599
0.0417527
0.0421621
0.0424955
0.0427651
0.0429891
0.00711514
0.0161558
0.0208533
0.0242606
0.0270035
0.0293023
0.0312687
0.0329731
0.0344663
0.035787
0.0369649
0.0380213
0.0389708
0.0398229
0.0405829
0.0412538
0.0418377
0.0423366
0.0427535
0.0430935
0.0433645
0.0435786
0.0437536
0.00741788
0.0168526
0.0217693
0.0253406
0.028218
0.030628
0.0326834
0.0344544
0.0359912
0.0373325
0.0385088
0.0395436
0.0404549
0.0412559
0.041956
0.0425623
0.04308
0.0435138
0.0438688
0.0441512
0.0443696
0.0445363
0.044669
0.00771211
0.0175432
0.0226917
0.0264403
0.0294631
0.0319917
0.0341407
0.0359811
0.0375643
0.0389303
0.0401115
0.041134
0.0420187
0.0427819
0.0434365
0.0439925
0.0444579
0.0448396
0.0451443
0.0453794
0.0455544
0.0456817
0.0457789
0.00802743
0.018294
0.023704
0.0276529
0.0308371
0.0334941
0.0357413
0.0376525
0.0392821
0.0406732
0.041861
0.0428749
0.0437387
0.0444718
0.0450898
0.0456053
0.0460283
0.0463678
0.0466318
0.0468287
0.0469686
0.0470641
0.0471325
0.00839942
0.0191844
0.0249053
0.0290869
0.0324523
0.035247
0.0375942
0.0395736
0.0412447
0.0426556
0.0438463
0.0448497
0.0456929
0.0463984
0.046984
0.0474645
0.0478519
0.0481564
0.0483873
0.0485536
0.0486658
0.0487366
0.0487826
0.00887193
0.0203114
0.0264139
0.0308693
0.0344362
0.0373739
0.0398165
0.0418536
0.0435539
0.0449728
0.0461561
0.0471412
0.047959
0.0486345
0.0491879
0.0496356
0.049991
0.0502654
0.0504688
0.0506108
0.0507019
0.0507544
0.0507841
0.00949909
0.0217928
0.0283712
0.0331473
0.0369316
0.040008
0.04253
0.0446038
0.0463113
0.047718
0.0488767
0.0498302
0.0506128
0.051252
0.0517697
0.0521837
0.0525083
0.0527553
0.0529352
0.0530578
0.0531332
0.053173
0.053192
0.0103477
0.0237745
0.0309474
0.0360911
0.0400964
0.0432901
0.0458587
0.0479335
0.0496147
0.05098
0.0520904
0.0529937
0.0537273
0.0543205
0.0547965
0.0551736
0.0554664
0.0556871
0.055846
0.0559526
0.0560165
0.0560484
0.0560613
0.0115028
0.0264438
0.034354
0.0399009
0.0441043
0.0473658
0.0499244
0.0519469
0.0535556
0.0548419
0.0558745
0.0567052
0.0573732
0.0579089
0.0583353
0.0586708
0.0589296
0.0591235
0.0592624
0.0593553
0.0594109
0.0594384
0.0594487
0.0130834
0.0300633
0.0388688
0.0448164
0.0491449
0.0523816
0.0548427
0.0567393
0.0582177
0.059381
0.0603028
0.0610365
0.0616216
0.0620874
0.062456
0.0627445
0.0629663
0.0631323
0.0632514
0.0633316
0.0633806
0.063406
0.0634163
0.0152803
0.0350385
0.0448737
0.0511239
0.0554151
0.0584734
0.0607142
0.0623937
0.063676
0.0646695
0.0654477
0.0660615
0.0665476
0.0669324
0.0672356
0.0674724
0.0676543
0.0677907
0.0678895
0.0679572
0.0680002
0.0680245
0.0680361
0.0184499
0.0420506
0.0528912
0.0591348
0.063087
0.0657429
0.0676116
0.0689746
0.0699964
0.0707781
0.071385
0.0718608
0.0722357
0.0725315
0.0727642
0.0729458
0.0730856
0.0731912
0.0732687
0.0733234
0.07336
0.0733828
0.0733958
0.0234023
0.052282
0.063547
0.0690855
0.072234
0.0742173
0.0755628
0.0765248
0.077238
0.0777804
0.0781999
0.078528
0.0787862
0.0789898
0.07915
0.0792753
0.0793723
0.0794463
0.0795018
0.0795423
0.0795713
0.0795914
0.0796047
0.0326297
0.0676612
0.0772366
0.0808864
0.0827146
0.0838107
0.0845449
0.0850706
0.0854625
0.0857622
0.085995
0.0861777
0.0863218
0.0864358
0.0865258
0.0865966
0.0866519
0.0866947
0.0867276
0.0867528
0.0867722
0.0867872
0.0867986
0.0543439
0.0910434
0.0932507
0.0937933
0.0941097
0.0943389
0.0945129
0.0946474
0.0947525
0.0948354
0.0949012
0.0949534
0.0949951
0.0950283
0.0950548
0.0950758
0.0950924
0.0951057
0.0951163
0.0951251
0.0951324
0.095139
0.0951448
0.0110899
0.00967493
0.00989345
0.0119121
0.0207175
0.0206531
0.0209826
0.0217093
0.0250193
0.0252205
0.025546
0.0259897
0.0278957
0.0281668
0.0284887
0.0288572
0.0300714
0.0303719
0.0306952
0.0310385
0.0317956
0.032114
0.0324411
0.0327749
0.0331916
0.0335229
0.0338547
0.034185
0.0343342
0.0346754
0.0350117
0.0353414
0.0352753
0.0356242
0.0359645
0.0362943
0.0360545
0.036409
0.0367521
0.0370822
0.0367032
0.0370613
0.0374061
0.0377359
0.037248
0.0376076
0.0379524
0.038281
0.0377116
0.0380704
0.0384135
0.0387394
0.038114
0.0384693
0.0388084
0.03913
0.0384726
0.0388215
0.0391541
0.0394692
0.0388022
0.0391416
0.039465
0.0397714
0.0391157
0.0394421
0.0397535
0.0400486
0.0394234
0.0397337
0.04003
0.0403114
0.0397337
0.0400246
0.0403032
0.0405684
0.0400531
0.0403219
0.0405804
0.0408274
0.0403871
0.0406317
0.0408683
0.0410955
0.0407409
0.0409601
0.0411736
0.0413799
0.041121
0.0413143
0.0415042
0.0416892
0.041536
0.0417038
0.0418702
0.0420342
0.0419984
0.0421415
0.0422854
0.0424289
0.0425254
0.0426454
0.042768
0.0428921
0.0431403
0.0432391
0.043342
0.0434481
0.0438731
0.0439528
0.0440379
0.0441276
0.0447608
0.0448237
0.0448929
0.0449678
0.0458471
0.0458954
0.0459508
0.0460125
0.0471811
0.0472171
0.0472605
0.0473107
0.0488156
0.0488417
0.0488749
0.0489149
0.0508053
0.0508234
0.0508482
0.0508792
0.0532048
0.0532169
0.0532348
0.053258
0.0560688
0.0560766
0.0560889
0.0561053
0.0594535
0.0594584
0.0594663
0.059477
0.0634201
0.0634232
0.0634279
0.0634338
0.0680401
0.0680423
0.0680446
0.0680468
0.0734005
0.0734023
0.0734031
0.0734026
0.0796099
0.0796117
0.0796116
0.0796095
0.0868036
0.0868052
0.0868048
0.0868024
0.0951478
0.0951488
0.0951486
0.095147
0.0182447
0.0215171
0.0235505
0.0249386
0.0258943
0.026521
0.0268786
0.0270029
0.0269135
0.0266168
0.0261084
0.0253734
0.0243859
0.0231062
0.0214749
0.019398
0.0167
0.0129144
0.00563975
0.0233041
0.0251511
0.0265907
0.0276819
0.0284726
0.0289992
0.0292887
0.0293589
0.0292186
0.028868
0.0282986
0.0274924
0.0264211
0.0250425
0.0232941
0.0210755
0.0181947
0.0141265
0.00620529
0.0268552
0.0280921
0.029168
0.0300327
0.0306765
0.0311032
0.0313194
0.03133
0.0311356
0.0307306
0.0301025
0.0292308
0.0280848
0.0266201
0.0247714
0.0224325
0.0193968
0.015092
0.00664772
0.0295266
0.0304833
0.031339
0.0320401
0.0325635
0.0328997
0.0330449
0.0329957
0.0327468
0.0322881
0.0316039
0.0306712
0.0294574
0.0279161
0.0259792
0.0235355
0.0203663
0.0158626
0.00699625
0.0316328
0.0324451
0.0331636
0.0337479
0.0341757
0.0344339
0.0345139
0.0344079
0.0341062
0.0335959
0.0328586
0.0318693
0.0305935
0.0289832
0.026968
0.0244324
0.0211482
0.0164779
0.00727186
0.0333349
0.0340656
0.0346951
0.0351954
0.0355482
0.0357409
0.035763
0.0356045
0.0352534
0.0346945
0.0339075
0.0328658
0.0315336
0.0298612
0.0277764
0.0251603
0.0217774
0.0169685
0.00748983
0.0347278
0.0354092
0.0359789
0.0364177
0.0367118
0.0368499
0.0368216
0.0366159
0.0362195
0.0356156
0.0347827
0.0336931
0.0323096
0.0305816
0.0284351
0.0257489
0.0222818
0.0173584
0.00766172
0.035875
0.0365249
0.0370529
0.0374459
0.0376936
0.0377865
0.0377149
0.0374674
0.0370299
0.0363851
0.0355105
0.0343773
0.0329477
0.0311701
0.0289694
0.0262225
0.0226843
0.0176667
0.00779658
0.0368228
0.0374513
0.0379492
0.0383073
0.038518
0.0385736
0.0384648
0.0381806
0.0377066
0.0370249
0.0361127
0.0349404
0.0334696
0.0316483
0.0294003
0.0266014
0.0230035
0.0179089
0.00790168
0.0376071
0.0382201
0.0386954
0.0390262
0.039207
0.0392314
0.0390909
0.0387747
0.0382685
0.0375541
0.0366082
0.0354012
0.0338942
0.0320345
0.0297457
0.0269025
0.0232548
0.0180978
0.00798292
0.0382575
0.0388581
0.0393152
0.039624
0.0397802
0.0397784
0.0396108
0.0392668
0.0387323
0.037989
0.0370136
0.035776
0.0342372
0.0323443
0.0300205
0.02714
0.0234512
0.0182439
0.00804518
0.0387985
0.0393878
0.0398295
0.0401197
0.0402552
0.0402311
0.0400401
0.0396721
0.0391129
0.0383444
0.037343
0.0360788
0.0345125
0.0325911
0.0302376
0.0273259
0.0236034
0.018356
0.00809244
0.0392511
0.0398291
0.0402566
0.0405305
0.0406479
0.0406044
0.0403932
0.0400042
0.0394236
0.0386331
0.0376092
0.036322
0.034732
0.0327864
0.030408
0.0274704
0.0237204
0.0184413
0.00812799
0.0396338
0.0401991
0.0406127
0.0408713
0.0409724
0.0409118
0.0406829
0.0402756
0.0396762
0.0388666
0.0378233
0.0365162
0.0349061
0.03294
0.0305407
0.0275819
0.0238098
0.0185056
0.00815449
0.0399624
0.040513
0.0409118
0.0411556
0.0412414
0.0411653
0.0409205
0.0404971
0.0398814
0.0390552
0.0379951
0.036671
0.0350437
0.0330603
0.0306437
0.0276674
0.0238776
0.0185538
0.00817411
0.0402506
0.0407839
0.0411668
0.0413953
0.0414665
0.0413759
0.0411166
0.0406788
0.0400486
0.0392078
0.0381331
0.0367944
0.0351526
0.0331546
0.0307236
0.0277331
0.0239289
0.0185898
0.00818856
0.0405104
0.0410233
0.0413885
0.0416012
0.0416577
0.0415532
0.0412805
0.0408295
0.0401863
0.0393327
0.0382453
0.0368939
0.0352395
0.0332292
0.0307861
0.0277838
0.023968
0.0186168
0.00819924
0.0407522
0.0412414
0.0415871
0.041783
0.0418246
0.0417064
0.0414209
0.0409577
0.0403027
0.0394374
0.0383385
0.0369759
0.0353105
0.0332895
0.030836
0.0278237
0.0239984
0.0186374
0.00820724
0.0409848
0.0414473
0.0417715
0.0419495
0.0419758
0.041844
0.0415461
0.0410712
0.040405
0.039529
0.0384196
0.0370467
0.0353713
0.0333406
0.0308778
0.0278567
0.0240231
0.0186539
0.0082135
0.0412165
0.0416495
0.0419503
0.0421094
0.0421198
0.0419743
0.0416641
0.0411778
0.0405008
0.0396145
0.038495
0.0371123
0.0354274
0.0333874
0.0309158
0.0278863
0.0240449
0.0186681
0.00821881
0.041455
0.0418561
0.0421322
0.0422715
0.0422655
0.042106
0.0417834
0.0412857
0.0405981
0.0397014
0.0385718
0.0371792
0.0354844
0.0334349
0.0309542
0.0279161
0.0240666
0.0186821
0.00822392
0.0417082
0.0420761
0.0423264
0.0424452
0.0424224
0.0422486
0.0419134
0.0414042
0.0407055
0.0397981
0.0386578
0.0372545
0.0355491
0.0334891
0.0309981
0.0279501
0.0240913
0.0186979
0.00822967
0.0419857
0.0423195
0.0425435
0.0426415
0.0426017
0.0424134
0.0420652
0.041544
0.0408336
0.0399146
0.0387626
0.0373473
0.0356296
0.033557
0.0310536
0.0279935
0.0241231
0.0187183
0.00823705
0.0422989
0.0425989
0.0427966
0.0428737
0.0428167
0.0426136
0.0422521
0.0417183
0.0409954
0.0400636
0.0388982
0.0374687
0.0357361
0.0336481
0.0311288
0.0280529
0.024167
0.0187468
0.00824744
0.0426628
0.0429297
0.0431017
0.0431583
0.0430842
0.0428662
0.042491
0.0419438
0.0412073
0.040261
0.03908
0.0376336
0.0358826
0.0337749
0.0312349
0.0281377
0.0242305
0.0187885
0.00826275
0.0430968
0.043332
0.0434792
0.0435158
0.043425
0.0431921
0.0428028
0.0422415
0.0414901
0.0405276
0.0393285
0.0378616
0.0360877
0.0339547
0.0313873
0.0282612
0.024324
0.0188506
0.00828584
0.0436256
0.043831
0.0439546
0.0439721
0.0438649
0.0436174
0.0432139
0.042638
0.0418707
0.0408901
0.0396701
0.0381788
0.0363765
0.0342112
0.0316076
0.0284421
0.024463
0.0189441
0.00832097
0.04428
0.0444576
0.0445592
0.0445585
0.0444359
0.0441742
0.0437569
0.0431663
0.0423825
0.0413824
0.0401389
0.0386191
0.0367825
0.0345765
0.0319257
0.028707
0.0246694
0.019085
0.00837451
0.0450975
0.0452495
0.0453304
0.0453128
0.0451757
0.0449009
0.0444707
0.0438662
0.0430663
0.0420464
0.0407778
0.0392262
0.0373494
0.0350935
0.0323825
0.0290932
0.0249749
0.0192965
0.00845596
0.0461216
0.0462499
0.0463116
0.0462785
0.0461284
0.0458422
0.0454011
0.0447848
0.0439707
0.0429325
0.0416393
0.0400542
0.0381327
0.035818
0.0330324
0.0296515
0.0254236
0.0196123
0.00857923
0.0474012
0.0475074
0.0475513
0.0475039
0.0473428
0.0470479
0.0465991
0.0459751
0.0451513
0.0440991
0.0427848
0.0411681
0.0392002
0.0368201
0.0339457
0.0304492
0.0260759
0.0200792
0.00876439
0.0489885
0.049074
0.0491011
0.0490413
0.0488718
0.0485717
0.0481203
0.0474948
0.0466687
0.0456108
0.0442837
0.0426423
0.0406318
0.0381842
0.0352095
0.0315727
0.0270115
0.0207612
0.00903946
0.0509375
0.0510033
0.0510149
0.0509445
0.0507697
0.0504695
0.0500223
0.0494041
0.0485867
0.0475359
0.0462101
0.0445582
0.042517
0.0400079
0.0369283
0.0331288
0.0283317
0.021742
0.00944212
0.0533023
0.0533494
0.0533466
0.0532681
0.053092
0.0527976
0.0523631
0.0517638
0.0509696
0.0499437
0.0486401
0.0470006
0.0449516
0.0423994
0.0392218
0.0352452
0.0301628
0.0231283
0.0100212
0.0561369
0.0561665
0.0561511
0.0560672
0.0558944
0.0556129
0.0552012
0.0546341
0.053881
0.0529027
0.0516491
0.0500548
0.0480343
0.0454747
0.0422253
0.0380733
0.0326606
0.0250559
0.0108385
0.0594972
0.059511
0.059485
0.0593991
0.0592349
0.0589739
0.0585958
0.0580759
0.0573836
0.0564792
0.0553096
0.0538036
0.0518634
0.0493544
0.0460883
0.041793
0.036023
0.0277043
0.0119745
0.0634442
0.0634444
0.0634107
0.0633267
0.0631766
0.0629439
0.06261
0.0621522
0.0615413
0.0607386
0.0596912
0.0583248
0.0565328
0.0541595
0.0509735
0.0466205
0.0405122
0.0313294
0.0135434
0.0680493
0.0680388
0.0680009
0.067923
0.0677923
0.067595
0.0673151
0.0669327
0.0664219
0.0657477
0.0648608
0.0636895
0.0621258
0.0600018
0.057047
0.0528101
0.0464884
0.0363307
0.0157296
0.0733993
0.0733818
0.0733438
0.0732764
0.0731701
0.073014
0.0727955
0.0724985
0.0721022
0.0715779
0.0708843
0.0699597
0.0687068
0.0669643
0.0644489
0.0606304
0.0544399
0.0433881
0.0188842
0.0796028
0.0795828
0.0795491
0.0794964
0.0794184
0.0793073
0.0791543
0.078948
0.0786736
0.0783109
0.0778306
0.0771881
0.076311
0.0750731
0.0732327
0.0702744
0.0649525
0.0537421
0.0239275
0.086795
0.0867776
0.0867531
0.086719
0.0866718
0.086607
0.0865195
0.0864028
0.0862488
0.0860464
0.0857797
0.0854253
0.0849455
0.0842739
0.0832777
0.0816386
0.0783939
0.0696532
0.0353367
0.0951426
0.095134
0.0951239
0.0951117
0.0950962
0.0950761
0.0950497
0.0950153
0.0949705
0.0949124
0.0948373
0.0947401
0.0946141
0.0944508
0.0942409
0.0939803
0.0936781
0.0931824
0.0865049
)
;

boundaryField
{
    leftWall
    {
        type            kqRWallFunction;
        value           nonuniform List<scalar> 
50
(
0.1
0.1
0.1
0.1
0.1
0.1
0.1
0.1
0.1
0.1
0.1
0.1
0.1
0.1
0.1
0.1
0.1
0.1
0.1
0.1
0.1
0.1
0.1
0.1
0.1
0.1
0.1
0.1
0.0182511
0.00500355
0.00453263
0.00526584
0.00588726
0.00637836
0.00677744
0.00711514
0.00741788
0.00771211
0.00802743
0.00839942
0.00887193
0.00949909
0.0103477
0.0115028
0.0130834
0.0152803
0.0184499
0.0234023
0.0326297
0.0543439
)
;
    }
    rightWall
    {
        type            kqRWallFunction;
        value           nonuniform List<scalar> 
50
(
0.00112453
0.0021005
0.00282189
0.00341664
0.00391834
0.00435672
0.0047514
0.00511421
0.00563975
0.00620529
0.00664772
0.00699625
0.00727186
0.00748983
0.00766172
0.00779658
0.00790168
0.00798292
0.00804518
0.00809244
0.00812799
0.00815449
0.00817411
0.00818856
0.00819924
0.00820724
0.0082135
0.00821881
0.00822392
0.00822967
0.00823705
0.00824744
0.00826275
0.00828584
0.00832097
0.00837451
0.00845596
0.00857923
0.00876439
0.00903946
0.00944212
0.0100212
0.0108385
0.0119745
0.0135434
0.0157296
0.0188842
0.0239275
0.0353367
0.0865049
)
;
    }
    lowerWall
    {
        type            kqRWallFunction;
        value           nonuniform List<scalar> 
62
(
0.1
0.1
0.1
0.1
0.1
0.1
0.1
0.1
0.1
0.1
0.1
0.1
0.1
0.00719793
0.0019375
0.0026592
0.0031578
0.0034317
0.00351841
0.00340514
0.00303446
0.00228371
0.000858359
0.000858359
0.00207964
0.00290321
0.00361093
0.0042966
0.00509959
0.00636914
0.00923272
0.0110899
0.00967493
0.00989345
0.0119121
0.000987583
0.00247638
0.00350039
0.00440483
0.00528777
0.00631046
0.00786745
0.0111376
0.000987583
0.00285139
0.00389031
0.00451014
0.00488824
0.00511865
0.00525138
0.00531269
0.00531597
0.00526726
0.005168
0.00501622
0.0048068
0.00453096
0.00417451
0.00371384
0.00310569
0.00225615
0.00112453
)
;
    }
    atmosphere
    {
        type            inletOutlet;
        inletValue      uniform 0.1;
        value           uniform 0.1;
    }
    defaultFaces
    {
        type            empty;
    }
}


// ************************************************************************* //
