/*--------------------------------*- C++ -*----------------------------------*\
| =========                 |                                                 |
| \\      /  F ield         | OpenFOAM: The Open Source CFD Toolbox           |
|  \\    /   O peration     | Version:  2406                                  |
|   \\  /    A nd           | Website:  www.openfoam.com                      |
|    \\/     M anipulation  |                                                 |
\*---------------------------------------------------------------------------*/
FoamFile
{
    version     2.0;
    format      ascii;
    arch        "LSB;label=32;scalar=64";
    class       volScalarField;
    location    "0.95";
    object      k;
}
// * * * * * * * * * * * * * * * * * * * * * * * * * * * * * * * * * * * * * //

dimensions      [0 2 -2 0 0 0 0];

internalField   nonuniform List<scalar> 
2268
(
0.00112351
0.00249284
0.00352049
0.00427465
0.00486138
0.00533044
0.00570977
0.00601692
0.00626369
0.00645824
0.00660619
0.00671109
0.00677458
0.00679619
0.00677284
0.00669771
0.00655824
0.00633245
0.00598226
0.00544196
0.0045991
0.00326134
0.00104795
0.00222376
0.00570679
0.00786725
0.00947476
0.0107327
0.0117407
0.0125563
0.0132168
0.0137473
0.0141653
0.0144832
0.0147085
0.0148448
0.0148914
0.0148417
0.0146815
0.0143844
0.0139052
0.013166
0.0120341
0.0102855
0.007543
0.0027502
0.00308574
0.00756697
0.0102205
0.0122002
0.0137582
0.0150112
0.0160276
0.0168519
0.017515
0.0180383
0.0184369
0.0187205
0.0188936
0.0189555
0.0188984
0.0187056
0.0183464
0.0177675
0.016879
0.0155268
0.013445
0.0101426
0.00400444
0.00379254
0.00899066
0.0119585
0.0141653
0.0159087
0.0173157
0.01846
0.0193902
0.0201397
0.0207326
0.0211855
0.0215093
0.0217094
0.0217852
0.0217291
0.0215237
0.0211371
0.0205151
0.0195653
0.0181283
0.0159138
0.0123104
0.00510702
0.00437885
0.0101815
0.013394
0.0157661
0.0176432
0.0191623
0.0204012
0.0214104
0.0222256
0.022872
0.0233676
0.0237242
0.0239478
0.0240387
0.0239894
0.0237835
0.0233903
0.0227578
0.0217976
0.0203542
0.0181237
0.0143664
0.00616113
0.00487764
0.0112119
0.0146337
0.0171393
0.0191216
0.0207291
0.0220431
0.0231161
0.0239848
0.0246758
0.0252077
0.0255933
0.0258393
0.0259467
0.0259092
0.0257118
0.0253267
0.0247066
0.0237716
0.0223784
0.0202271
0.0164747
0.00734443
0.00531077
0.012119
0.0157282
0.0183483
0.0204186
0.0220995
0.0234762
0.0246029
0.0255175
0.0262472
0.0268116
0.027224
0.0274921
0.0276177
0.0275961
0.0274144
0.0270485
0.0264578
0.0255739
0.0242738
0.0222901
0.0187738
0.00913074
0.00569247
0.0129262
0.0167063
0.0194289
0.0215759
0.0233201
0.0247509
0.0259245
0.0268795
0.027644
0.0282382
0.0286762
0.0289664
0.0291119
0.0291096
0.0289492
0.028611
0.0280619
0.0272469
0.0260697
0.0243246
0.0213568
0.0131572
0.00110484
0.00344939
0.00479733
0.00560197
0.00608592
0.00637276
0.00652987
0.00659345
0.00658236
0.0065055
0.00636541
0.00616001
0.00588304
0.00552349
0.00506364
0.00447436
0.00370309
0.00263734
0.00121472
0.00287615
0.00791788
0.0106893
0.0123628
0.0133792
0.013986
0.0143198
0.0144551
0.0144309
0.0142657
0.0139647
0.0135233
0.0129278
0.0121546
0.0111661
0.0099014
0.00825391
0.00600465
0.00235128
0.00414701
0.0105854
0.0139144
0.0159064
0.0171211
0.0178497
0.0182507
0.0184104
0.0183744
0.0181642
0.0177858
0.017233
0.0164889
0.0155246
0.0142944
0.0127255
0.0106925
0.00792669
0.00322202
0.00527638
0.0127886
0.0164
0.0185137
0.0198034
0.0205803
0.0210071
0.0211719
0.0211214
0.0208777
0.020446
0.0198191
0.0189781
0.0178909
0.0165076
0.0147494
0.01248
0.00938722
0.00394356
0.00636814
0.0148649
0.0185979
0.0207181
0.0220109
0.0227927
0.0232203
0.0233776
0.023309
0.0230351
0.0225601
0.0218756
0.0209609
0.0197821
0.0182864
0.0163911
0.01395
0.0106059
0.00454484
0.00761703
0.0169758
0.0206649
0.0227004
0.0239449
0.024701
0.0251114
0.0252513
0.0251607
0.0248576
0.0243444
0.0236112
0.0226361
0.0213835
0.0197987
0.0177953
0.0152168
0.0116597
0.0050569
0.00952389
0.0192433
0.0226667
0.0245382
0.0256959
0.026404
0.0267833
0.0268981
0.0267819
0.0264493
0.0259006
0.0251244
0.0240974
0.0227825
0.0211233
0.0190297
0.016334
0.0125876
0.00550147
0.0136371
0.0217332
0.0246185
0.0262656
0.0273102
0.0279543
0.0282925
0.0283759
0.028231
0.0278684
0.0272858
0.0264702
0.025397
0.0240277
0.0223041
0.0201321
0.0173323
0.0134136
0.00589304
0.00622442
0.0140578
0.018084
0.0209528
0.0232071
0.025039
0.0265448
0.0277836
0.0287956
0.02961
0.0302479
0.0307245
0.0310497
0.0312285
0.0312607
0.0311403
0.0308551
0.0303838
0.0296935
0.0287304
0.0273956
0.0254604
0.0222154
0.00679976
0.0152938
0.0196021
0.0226405
0.0250178
0.0269486
0.0285387
0.0298514
0.0309292
0.0318029
0.0324949
0.0330221
0.0333962
0.033625
0.0337124
0.0336583
0.0334595
0.0331092
0.0325975
0.0319115
0.031034
0.0299382
0.0285803
0.00726607
0.0163007
0.020848
0.0240338
0.0265187
0.0285361
0.0302
0.0315778
0.0327146
0.0336424
0.0343854
0.0349618
0.0353854
0.0356664
0.0358122
0.0358278
0.0357169
0.0354826
0.0351294
0.0346656
0.0341073
0.0334854
0.0328633
0.00764751
0.0171272
0.0218772
0.0251914
0.0277717
0.0298665
0.0315968
0.0330337
0.0342245
0.0352029
0.0359944
0.0366185
0.0370908
0.0374238
0.0376277
0.0377111
0.0376823
0.0375505
0.0373271
0.0370287
0.0366795
0.0363155
0.0359896
0.00796079
0.0178082
0.0227298
0.0261556
0.0288207
0.0309852
0.032776
0.0342672
0.0355082
0.0365341
0.0373715
0.0380415
0.038561
0.0389442
0.0392033
0.0393496
0.039394
0.0393488
0.0392282
0.0390502
0.0388379
0.0386202
0.0384316
0.00821827
0.0183695
0.0234362
0.026959
0.0296993
0.0319267
0.0337727
0.035314
0.0366017
0.0376721
0.038553
0.0392666
0.0398308
0.0402613
0.0405716
0.0407745
0.0408827
0.0409094
0.0408694
0.0407795
0.0406594
0.0405308
0.0404159
0.00842952
0.0188314
0.0240208
0.0276274
0.0304342
0.0327182
0.0346145
0.036202
0.037533
0.0386451
0.0395668
0.0403212
0.0409273
0.0414015
0.0417584
0.0420117
0.0421746
0.0422606
0.042284
0.0422599
0.0422045
0.0421341
0.0420639
0.00860225
0.0192105
0.0245031
0.028182
0.0310473
0.0333821
0.0353241
0.036954
0.038325
0.0394756
0.0404353
0.0412276
0.0418723
0.0423865
0.0427853
0.0430829
0.0432926
0.0434277
0.0435016
0.0435277
0.0435194
0.0434895
0.0434489
0.00874279
0.0195202
0.0248994
0.0286404
0.0315571
0.0339372
0.0359204
0.0375888
0.0389965
0.0401827
0.0411773
0.0420046
0.0426847
0.043235
0.0436712
0.0440074
0.044257
0.0444329
0.0445475
0.0446128
0.0446401
0.0446397
0.04462
0.00885646
0.0197719
0.0252235
0.0290177
0.0319792
0.0343993
0.0364195
0.0381228
0.0395639
0.0407826
0.0418092
0.0426682
0.0433803
0.0439631
0.0444324
0.0448023
0.0450861
0.045296
0.0454438
0.0455402
0.0455952
0.0456172
0.0456129
0.00894777
0.0199752
0.0254871
0.0293264
0.0323268
0.0347822
0.0368354
0.03857
0.0400413
0.0412893
0.0423448
0.0432327
0.0439735
0.0445853
0.0450837
0.0454829
0.0457958
0.0460344
0.0462095
0.0463311
0.046408
0.0464474
0.0464549
0.00902058
0.0201383
0.0257
0.0295777
0.0326116
0.0350978
0.0371801
0.0389425
0.0404408
0.0417153
0.0427968
0.0437104
0.0444769
0.0451143
0.0456383
0.0460629
0.0464008
0.0466635
0.0468613
0.0470035
0.047098
0.0471512
0.0471679
0.00907818
0.0202682
0.0258709
0.0297808
0.0328434
0.0353564
0.0374642
0.0392512
0.0407735
0.0420714
0.0431761
0.0441125
0.0449018
0.0455617
0.0461081
0.0465547
0.0469139
0.047197
0.0474138
0.047573
0.0476818
0.0477461
0.0477702
0.00912335
0.0203708
0.0260071
0.0299439
0.0330309
0.0355669
0.0376969
0.0395055
0.0410488
0.0423674
0.0434925
0.0444492
0.0452584
0.0459381
0.0465038
0.0469694
0.0473469
0.0476473
0.0478799
0.0480531
0.0481737
0.0482471
0.0482771
0.00915849
0.0204513
0.0261148
0.030074
0.0331815
0.0357372
0.0378863
0.0397135
0.0412752
0.0426119
0.0437548
0.0447292
0.0455558
0.0462527
0.0468352
0.047317
0.0477101
0.0480251
0.0482711
0.048456
0.0485864
0.0486671
0.0487019
0.00918559
0.0205139
0.0261994
0.0301769
0.0333017
0.035874
0.0380393
0.0398826
0.0414602
0.0428125
0.043971
0.0449606
0.0458023
0.046514
0.047111
0.0476067
0.0480131
0.0483404
0.0485976
0.0487923
0.0489306
0.0490175
0.0490562
0.00920629
0.0205621
0.0262652
0.0302578
0.0333968
0.035983
0.0381622
0.0400191
0.0416102
0.042976
0.0441478
0.0451506
0.0460053
0.0467296
0.0473389
0.0478465
0.0482641
0.0486018
0.0488684
0.0490712
0.0492162
0.0493081
0.04935
0.00922199
0.0205991
0.026316
0.0303208
0.0334715
0.0360694
0.03826
0.0401285
0.0417311
0.0431083
0.0442914
0.0453054
0.0461712
0.0469063
0.0475261
0.0480437
0.0484707
0.0488171
0.0490915
0.0493011
0.0494517
0.0495477
0.0495922
0.00923377
0.0206271
0.026355
0.0303695
0.0335298
0.0361372
0.0383374
0.0402155
0.0418277
0.0432146
0.0444072
0.0454307
0.0463058
0.0470501
0.0476787
0.0482047
0.0486396
0.0489933
0.0492743
0.0494895
0.0496446
0.0497441
0.0497906
0.00924256
0.0206482
0.0263846
0.0304069
0.0335749
0.03619
0.0383981
0.0402842
0.0419044
0.0432993
0.0445
0.0455314
0.0464143
0.0471662
0.0478021
0.0483352
0.0487767
0.0491365
0.0494228
0.0496427
0.0498016
0.0499038
0.0499521
0.00924905
0.0206639
0.026407
0.0304354
0.0336095
0.0362309
0.0384454
0.040338
0.0419648
0.0433663
0.0445736
0.0456116
0.046501
0.0472592
0.0479013
0.0484402
0.0488872
0.049252
0.0495428
0.0497664
0.0499284
0.0500329
0.0500826
0.0092538
0.0206756
0.0264237
0.030457
0.0336359
0.0362624
0.038482
0.0403799
0.042012
0.043419
0.0446317
0.0456751
0.0465699
0.0473333
0.0479804
0.0485241
0.0489756
0.0493445
0.0496389
0.0498656
0.0500301
0.0501365
0.0501874
0.00925726
0.0206842
0.0264362
0.0304731
0.0336559
0.0362863
0.0385101
0.0404121
0.0420486
0.04346
0.0446771
0.045725
0.046624
0.0473917
0.048043
0.0485906
0.0490457
0.0494179
0.0497153
0.0499446
0.0501112
0.050219
0.0502708
0.00925976
0.0206904
0.0264454
0.0304851
0.0336709
0.0363044
0.0385314
0.0404369
0.0420768
0.0434917
0.0447124
0.0457638
0.0466664
0.0474375
0.0480921
0.0486429
0.049101
0.0494759
0.0497757
0.050007
0.0501752
0.0502842
0.0503367
0.00926155
0.020695
0.0264521
0.030494
0.033682
0.036318
0.0385475
0.0404556
0.0420983
0.043516
0.0447396
0.0457938
0.0466992
0.0474731
0.0481304
0.0486837
0.0491442
0.0495212
0.0498229
0.0500559
0.0502254
0.0503354
0.0503885
0.00926282
0.0206982
0.0264569
0.0305005
0.0336903
0.0363281
0.0385596
0.0404698
0.0421147
0.0435345
0.0447603
0.0458168
0.0467245
0.0475006
0.04816
0.0487153
0.0491777
0.0495565
0.0498597
0.0500939
0.0502645
0.0503752
0.0504288
0.00926372
0.0207006
0.0264605
0.0305053
0.0336963
0.0363356
0.0385686
0.0404804
0.0421269
0.0435485
0.0447761
0.0458344
0.0467438
0.0475216
0.0481827
0.0487396
0.0492035
0.0495836
0.049888
0.0501233
0.0502947
0.050406
0.0504599
0.00926435
0.0207022
0.026463
0.0305087
0.0337008
0.0363411
0.0385753
0.0404883
0.0421361
0.043559
0.044788
0.0458476
0.0467584
0.0475376
0.0481999
0.0487581
0.0492232
0.0496044
0.0499098
0.0501458
0.0503178
0.0504296
0.0504838
0.00926479
0.0207034
0.0264648
0.0305112
0.033704
0.0363451
0.0385802
0.0404941
0.0421429
0.0435669
0.0447968
0.0458575
0.0467694
0.0475496
0.048213
0.0487722
0.0492381
0.0496202
0.0499262
0.0501629
0.0503354
0.0504476
0.050502
0.0092651
0.0207042
0.0264661
0.0305129
0.0337063
0.036348
0.0385837
0.0404984
0.0421479
0.0435726
0.0448034
0.0458649
0.0467776
0.0475587
0.0482228
0.0487827
0.0492493
0.049632
0.0499387
0.0501759
0.0503487
0.0504612
0.0505158
0.00926531
0.0207048
0.026467
0.0305142
0.0337079
0.0363501
0.0385863
0.0405015
0.0421516
0.0435769
0.0448083
0.0458704
0.0467837
0.0475654
0.0482301
0.0487906
0.0492577
0.0496409
0.049948
0.0501855
0.0503587
0.0504714
0.0505261
0.00926545
0.0207052
0.0264676
0.0305151
0.0337091
0.0363516
0.0385882
0.0405037
0.0421542
0.04358
0.0448118
0.0458744
0.0467882
0.0475703
0.0482355
0.0487964
0.049264
0.0496475
0.0499549
0.0501927
0.0503661
0.0504789
0.0505337
0.00926555
0.0207054
0.026468
0.0305157
0.0337099
0.0363526
0.0385895
0.0405053
0.0421561
0.0435822
0.0448144
0.0458773
0.0467914
0.0475739
0.0482394
0.0488007
0.0492685
0.0496524
0.04996
0.050198
0.0503716
0.0504845
0.0505394
0.00926562
0.0207056
0.0264683
0.0305161
0.0337105
0.0363534
0.0385904
0.0405065
0.0421575
0.0435838
0.0448162
0.0458794
0.0467938
0.0475765
0.0482423
0.0488038
0.0492719
0.0496559
0.0499637
0.0502019
0.0503756
0.0504886
0.0505436
0.00926566
0.0207057
0.0264685
0.0305164
0.0337109
0.0363539
0.0385911
0.0405073
0.0421585
0.043585
0.0448176
0.045881
0.0467955
0.0475784
0.0482444
0.048806
0.0492743
0.0496585
0.0499665
0.0502047
0.0503785
0.0504916
0.0505466
0.00926569
0.0207058
0.0264687
0.0305166
0.0337112
0.0363543
0.0385915
0.0405079
0.0421592
0.0435858
0.0448185
0.045882
0.0467967
0.0475798
0.0482459
0.0488077
0.049276
0.0496603
0.0499684
0.0502068
0.0503806
0.0504937
0.0505487
0.00926571
0.0207059
0.0264688
0.0305167
0.0337114
0.0363545
0.0385919
0.0405082
0.0421597
0.0435863
0.0448192
0.0458828
0.0467976
0.0475807
0.0482469
0.0488088
0.0492773
0.0496616
0.0499698
0.0502082
0.0503821
0.0504953
0.0505503
0.00926572
0.0207059
0.0264688
0.0305168
0.0337115
0.0363547
0.0385921
0.0405085
0.04216
0.0435867
0.0448196
0.0458833
0.0467982
0.0475814
0.0482477
0.0488096
0.0492782
0.0496626
0.0499708
0.0502092
0.0503831
0.0504963
0.0505514
0.00926573
0.0207059
0.0264689
0.0305169
0.0337116
0.0363548
0.0385922
0.0405087
0.0421602
0.043587
0.0448199
0.0458837
0.0467986
0.0475819
0.0482482
0.0488102
0.0492787
0.0496632
0.0499714
0.0502099
0.0503838
0.0504971
0.0505521
0.00926574
0.020706
0.0264689
0.0305169
0.0337116
0.0363549
0.0385923
0.0405088
0.0421604
0.0435872
0.0448201
0.0458839
0.0467989
0.0475822
0.0482485
0.0488105
0.0492791
0.0496636
0.0499719
0.0502104
0.0503843
0.0504975
0.0505526
0.00926574
0.020706
0.0264689
0.030517
0.0337117
0.0363549
0.0385924
0.0405089
0.0421604
0.0435873
0.0448203
0.0458841
0.046799
0.0475823
0.0482487
0.0488108
0.0492794
0.0496639
0.0499721
0.0502107
0.0503846
0.0504978
0.0505528
0.00926574
0.020706
0.0264689
0.030517
0.0337117
0.0363549
0.0385924
0.0405089
0.0421605
0.0435873
0.0448203
0.0458841
0.0467991
0.0475824
0.0482488
0.0488109
0.0492795
0.049664
0.0499723
0.0502108
0.0503847
0.0504979
0.050553
0.0152859
0.0130043
0.0129767
0.0151552
0.0274011
0.0269144
0.026893
0.0273371
0.0325122
0.0323712
0.0323527
0.0324573
0.0358314
0.0357679
0.0357497
0.0357767
0.0383406
0.0383012
0.0382826
0.0382847
0.0403559
0.0403267
0.0403075
0.0402982
0.0420211
0.0419973
0.0419775
0.0419616
0.0434169
0.0433964
0.043376
0.0433555
0.0445955
0.044577
0.044556
0.0445322
0.0455936
0.0455766
0.045555
0.0455285
0.0464395
0.0464235
0.0464013
0.0463727
0.0471555
0.0471402
0.0471174
0.0470871
0.0477601
0.0477453
0.047722
0.0476902
0.0482688
0.0482544
0.0482307
0.0481976
0.0486951
0.0486809
0.0486568
0.0486226
0.0490505
0.0490365
0.049012
0.0489769
0.0493452
0.0493313
0.0493065
0.0492707
0.0495881
0.0495743
0.0495493
0.0495128
0.0497871
0.0497734
0.0497481
0.0497111
0.0499491
0.0499354
0.0499099
0.0498724
0.05008
0.0500663
0.0500406
0.0500027
0.050185
0.0501714
0.0501455
0.0501073
0.0502686
0.050255
0.050229
0.0501905
0.0503348
0.0503212
0.0502951
0.0502564
0.0503867
0.050373
0.0503469
0.050308
0.0504271
0.0504135
0.0503872
0.0503482
0.0504583
0.0504447
0.0504184
0.0503793
0.0504823
0.0504687
0.0504423
0.0504031
0.0505005
0.0504869
0.0504605
0.0504212
0.0505143
0.0505007
0.0504742
0.0504349
0.0505246
0.050511
0.0504845
0.0504451
0.0505323
0.0505187
0.0504922
0.0504528
0.050538
0.0505244
0.0504979
0.0504584
0.0505421
0.0505285
0.050502
0.0504625
0.0505452
0.0505315
0.050505
0.0504655
0.0505473
0.0505337
0.0505072
0.0504677
0.0505489
0.0505352
0.0505087
0.0504692
0.05055
0.0505363
0.0505098
0.0504703
0.0505507
0.050537
0.0505105
0.050471
0.0505512
0.0505375
0.050511
0.0504715
0.0505514
0.0505378
0.0505113
0.0504718
0.0505515
0.0505379
0.0505114
0.0504719
0.0223669
0.0256384
0.0275483
0.0288121
0.0296587
0.030187
0.0304497
0.0304767
0.0302831
0.0298724
0.0292385
0.0283654
0.0272264
0.025781
0.0239679
0.0216863
0.0187387
0.014572
0.00643839
0.028548
0.0299421
0.0310278
0.0318492
0.0324309
0.0327887
0.0329336
0.0328719
0.0326045
0.0321262
0.0314249
0.0304808
0.0292641
0.0277312
0.0258163
0.0234094
0.0202902
0.0158379
0.00702773
0.0327773
0.0333928
0.0339892
0.0344871
0.0348469
0.0350473
0.0350759
0.0349233
0.0345799
0.0340333
0.0332665
0.0322557
0.0309681
0.029357
0.027352
0.0248347
0.0215656
0.01687
0.00750509
0.0358863
0.0361712
0.0364866
0.0367614
0.0369479
0.0370137
0.0369358
0.0366963
0.0362787
0.0356654
0.0348351
0.033761
0.0324075
0.0307248
0.0286382
0.0260221
0.0226212
0.017718
0.00789553
0.0383198
0.038445
0.0385934
0.0387154
0.0387699
0.0387245
0.0385532
0.038234
0.0377465
0.0370693
0.0361785
0.0350445
0.0336293
0.0318803
0.0297193
0.0270143
0.0234977
0.0184174
0.00821632
0.040298
0.0403345
0.0403773
0.0403921
0.0403461
0.0402101
0.0399585
0.039568
0.0390161
0.0382793
0.0373314
0.0361411
0.0346681
0.0328578
0.0306288
0.0278441
0.024226
0.018995
0.00848018
0.0419406
0.0419217
0.0418932
0.0418303
0.0417068
0.0414971
0.0411771
0.0407237
0.0401133
0.0393215
0.0383206
0.0370778
0.0355512
0.0336843
0.0313933
0.0285372
0.0248306
0.0194715
0.00869696
0.0433206
0.0432638
0.0431844
0.0430632
0.0428788
0.0426088
0.0422308
0.0417222
0.0410595
0.0402176
0.0391679
0.0378765
0.0363004
0.0343817
0.0320346
0.029115
0.0253312
0.0198635
0.00887452
0.0444872
0.0444027
0.0442851
0.0441189
0.0438858
0.043566
0.0431387
0.0425821
0.0418728
0.0409856
0.0398914
0.0385556
0.0369343
0.0349685
0.0325709
0.0295951
0.0257444
0.0201848
0.00901932
0.0454758
0.0453701
0.045223
0.0450211
0.0447485
0.0443873
0.043918
0.0433196
0.0425692
0.0416415
0.0405071
0.0391309
0.0374686
0.0354603
0.0330175
0.0299922
0.0260838
0.0204469
0.00913675
0.0463138
0.0461915
0.0460208
0.0457902
0.0454851
0.0450892
0.0445841
0.0439494
0.0431628
0.042199
0.0410285
0.0396161
0.0379169
0.0358706
0.0333878
0.0303192
0.0263611
0.0206594
0.00923138
0.0470232
0.0468874
0.0466977
0.0464435
0.0461115
0.0456864
0.0451506
0.0444846
0.0436662
0.0426705
0.041468
0.0400233
0.0382913
0.0362112
0.0336932
0.0305868
0.0265865
0.0208307
0.0093071
0.0476222
0.0474754
0.04727
0.0469963
0.0466418
0.046192
0.04563
0.0449369
0.0440909
0.0430671
0.0418364
0.040363
0.038602
0.0364922
0.0339435
0.0308046
0.0267684
0.0209678
0.00936723
0.0481261
0.0479702
0.0477519
0.0474619
0.0470886
0.0466178
0.0460335
0.045317
0.044447
0.0433988
0.0421433
0.0406449
0.0388584
0.0367227
0.0341474
0.0309807
0.0269142
0.0210768
0.00941459
0.0485483
0.0483848
0.0481557
0.0478521
0.0474629
0.0469745
0.0463711
0.0456346
0.0447438
0.0436744
0.0423973
0.0408771
0.0390686
0.0369106
0.0343124
0.0311221
0.0270302
0.0211626
0.00945159
0.0489001
0.0487303
0.0484922
0.0481773
0.0477747
0.0472713
0.0466518
0.0458981
0.0449896
0.043902
0.0426063
0.0410673
0.0392398
0.0370626
0.034445
0.0312348
0.0271219
0.0212298
0.00948025
0.0491919
0.0490167
0.0487711
0.0484467
0.0480329
0.0475169
0.0468836
0.0461154
0.0451917
0.0440885
0.042777
0.0412219
0.0393782
0.0371847
0.0345507
0.0313239
0.0271938
0.0212819
0.00950226
0.0494322
0.0492527
0.0490008
0.0486684
0.0482452
0.0477187
0.0470738
0.0462933
0.0453568
0.0442403
0.0429153
0.0413467
0.0394893
0.0372821
0.0346344
0.0313939
0.0272497
0.021322
0.00951903
0.0496291
0.0494459
0.0491888
0.0488498
0.0484187
0.0478833
0.0472288
0.046438
0.0454906
0.044363
0.0430267
0.0414466
0.0395778
0.0373592
0.0347002
0.0314484
0.0272928
0.0213527
0.00953168
0.0497892
0.0496029
0.0493415
0.048997
0.0485595
0.0480167
0.0473541
0.0465547
0.0455983
0.0444615
0.0431157
0.0415261
0.0396478
0.0374197
0.0347515
0.0314906
0.0273259
0.0213759
0.00954116
0.0499185
0.0497297
0.0494647
0.0491157
0.0486728
0.0481239
0.0474547
0.0466481
0.0456843
0.0445398
0.0431862
0.0415887
0.0397026
0.037467
0.0347912
0.0315229
0.027351
0.0213933
0.0095482
0.0500222
0.0498314
0.0495635
0.0492107
0.0487634
0.0482095
0.0475348
0.0467224
0.0457525
0.0446017
0.0432417
0.0416378
0.0397454
0.0375035
0.0348216
0.0315475
0.0273699
0.0214063
0.00955339
0.0501048
0.0499123
0.049642
0.0492862
0.0488353
0.0482774
0.0475982
0.046781
0.0458061
0.0446501
0.043285
0.0416759
0.0397784
0.0375315
0.0348448
0.0315661
0.027384
0.0214159
0.00955718
0.0501701
0.0499762
0.0497039
0.0493457
0.0488919
0.0483307
0.0476479
0.0468269
0.0458479
0.0446878
0.0433185
0.0417053
0.0398037
0.0375528
0.0348624
0.0315801
0.0273945
0.0214229
0.00955993
0.0502213
0.0500263
0.0497525
0.0493923
0.0489362
0.0483723
0.0476866
0.0468625
0.0458803
0.0447169
0.0433443
0.0417278
0.0398229
0.0375689
0.0348755
0.0315904
0.0274023
0.0214281
0.00956191
0.0502611
0.0500652
0.0497902
0.0494284
0.0489705
0.0484045
0.0477165
0.0468899
0.0459052
0.0447392
0.0433639
0.0417448
0.0398374
0.037581
0.0348853
0.0315981
0.0274079
0.0214318
0.00956333
0.0502919
0.0500953
0.0498193
0.0494563
0.0489968
0.0484292
0.0477394
0.0469109
0.0459242
0.0447561
0.0433788
0.0417577
0.0398483
0.03759
0.0348926
0.0316037
0.027412
0.0214344
0.00956433
0.0503155
0.0501184
0.0498416
0.0494776
0.049017
0.0484481
0.0477568
0.0469268
0.0459386
0.0447689
0.04339
0.0417673
0.0398564
0.0375967
0.0348979
0.0316078
0.027415
0.0214363
0.00956504
0.0503334
0.0501359
0.0498585
0.0494938
0.0490323
0.0484623
0.04777
0.0469388
0.0459493
0.0447784
0.0433983
0.0417744
0.0398624
0.0376016
0.0349018
0.0316107
0.0274171
0.0214377
0.00956553
0.050347
0.0501491
0.0498712
0.0495059
0.0490438
0.048473
0.0477799
0.0469478
0.0459574
0.0447855
0.0434044
0.0417796
0.0398667
0.0376051
0.0349046
0.0316128
0.0274186
0.0214386
0.00956588
0.0503572
0.050159
0.0498808
0.049515
0.0490523
0.048481
0.0477872
0.0469544
0.0459633
0.0447908
0.043409
0.0417835
0.0398699
0.0376077
0.0349066
0.0316143
0.0274197
0.0214393
0.00956612
0.0503647
0.0501664
0.0498879
0.0495218
0.0490587
0.0484869
0.0477926
0.0469593
0.0459677
0.0447946
0.0434122
0.0417862
0.0398722
0.0376095
0.034908
0.0316154
0.0274204
0.0214398
0.00956628
0.0503703
0.0501718
0.0498931
0.0495268
0.0490634
0.0484913
0.0477966
0.0469629
0.0459709
0.0447974
0.0434146
0.0417883
0.0398739
0.0376109
0.034909
0.0316162
0.0274209
0.0214401
0.00956639
0.0503744
0.0501758
0.0498969
0.0495304
0.0490668
0.0484944
0.0477995
0.0469655
0.0459732
0.0447994
0.0434164
0.0417897
0.039875
0.0376118
0.0349097
0.0316167
0.0274213
0.0214403
0.00956647
0.0503773
0.0501787
0.0498997
0.049533
0.0490692
0.0484967
0.0478016
0.0469674
0.0459748
0.0448008
0.0434176
0.0417907
0.0398759
0.0376124
0.0349102
0.0316171
0.0274215
0.0214404
0.00956652
0.0503795
0.0501807
0.0499017
0.0495349
0.049071
0.0484983
0.047803
0.0469687
0.045976
0.0448018
0.0434184
0.0417914
0.0398765
0.0376129
0.0349106
0.0316173
0.0274217
0.0214405
0.00956655
0.050381
0.0501822
0.0499031
0.0495363
0.0490723
0.0484995
0.0478041
0.0469697
0.0459768
0.0448025
0.043419
0.0417919
0.0398769
0.0376132
0.0349108
0.0316175
0.0274218
0.0214406
0.00956657
0.050382
0.0501832
0.0499041
0.0495372
0.0490731
0.0485003
0.0478048
0.0469703
0.0459774
0.044803
0.0434195
0.0417923
0.0398771
0.0376134
0.034911
0.0316176
0.0274219
0.0214407
0.00956659
0.0503828
0.0501839
0.0499048
0.0495379
0.0490737
0.0485009
0.0478053
0.0469708
0.0459778
0.0448034
0.0434198
0.0417925
0.0398773
0.0376136
0.0349111
0.0316177
0.027422
0.0214407
0.0095666
0.0503832
0.0501844
0.0499052
0.0495383
0.0490741
0.0485012
0.0478057
0.0469711
0.045978
0.0448036
0.0434199
0.0417927
0.0398774
0.0376137
0.0349112
0.0316177
0.027422
0.0214407
0.0095666
0.0503835
0.0501847
0.0499055
0.0495385
0.0490744
0.0485014
0.0478059
0.0469712
0.0459782
0.0448037
0.0434201
0.0417928
0.0398775
0.0376137
0.0349112
0.0316177
0.027422
0.0214407
0.00956661
0.0503836
0.0501848
0.0499056
0.0495386
0.0490745
0.0485015
0.047806
0.0469713
0.0459783
0.0448038
0.0434201
0.0417928
0.0398776
0.0376138
0.0349112
0.0316178
0.027422
0.0214407
0.00956661
)
;

boundaryField
{
    leftWall
    {
        type            kqRWallFunction;
        value           nonuniform List<scalar> 
50
(
0.00112351
0.00222376
0.00308574
0.00379254
0.00437885
0.00487764
0.00531077
0.00569247
0.00622442
0.00679976
0.00726607
0.00764751
0.00796079
0.00821827
0.00842952
0.00860225
0.00874279
0.00885646
0.00894777
0.00902058
0.00907818
0.00912335
0.00915849
0.00918559
0.00920629
0.00922199
0.00923377
0.00924256
0.00924905
0.0092538
0.00925726
0.00925976
0.00926155
0.00926282
0.00926372
0.00926435
0.00926479
0.0092651
0.00926531
0.00926545
0.00926555
0.00926562
0.00926566
0.00926569
0.00926571
0.00926572
0.00926573
0.00926574
0.00926574
0.00926574
)
;
    }
    rightWall
    {
        type            kqRWallFunction;
        value           nonuniform List<scalar> 
50
(
0.00121472
0.00235128
0.00322202
0.00394356
0.00454484
0.0050569
0.00550147
0.00589304
0.00643839
0.00702773
0.00750509
0.00789553
0.00821632
0.00848018
0.00869696
0.00887452
0.00901932
0.00913675
0.00923138
0.0093071
0.00936723
0.00941459
0.00945159
0.00948025
0.00950226
0.00951903
0.00953168
0.00954116
0.0095482
0.00955339
0.00955718
0.00955993
0.00956191
0.00956333
0.00956433
0.00956504
0.00956553
0.00956588
0.00956612
0.00956628
0.00956639
0.00956647
0.00956652
0.00956655
0.00956657
0.00956659
0.0095666
0.0095666
0.00956661
0.00956661
)
;
    }
    lowerWall
    {
        type            kqRWallFunction;
        value           nonuniform List<scalar> 
62
(
0.00112351
0.00249284
0.00352049
0.00427465
0.00486138
0.00533044
0.00570977
0.00601692
0.00626369
0.00645824
0.00660619
0.00671109
0.00677458
0.00679619
0.00677284
0.00669771
0.00655824
0.00633245
0.00598226
0.00544196
0.0045991
0.00326134
0.00104795
0.00104795
0.0027502
0.00400444
0.00510702
0.00616113
0.00734443
0.00913074
0.0131572
0.0152859
0.0130043
0.0129767
0.0151552
0.00110484
0.00287615
0.00414701
0.00527638
0.00636814
0.00761703
0.00952389
0.0136371
0.00110484
0.00344939
0.00479733
0.00560197
0.00608592
0.00637276
0.00652987
0.00659345
0.00658236
0.0065055
0.00636541
0.00616001
0.00588304
0.00552349
0.00506364
0.00447436
0.00370309
0.00263734
0.00121472
)
;
    }
    atmosphere
    {
        type            inletOutlet;
        inletValue      uniform 0.1;
        value           nonuniform List<scalar> 
46
(
0.00926574
0.020706
0.0264689
0.030517
0.0337117
0.0363549
0.0385924
0.0405089
0.0421605
0.0435873
0.0448203
0.0458841
0.0467991
0.0475824
0.0482488
0.0488109
0.0492795
0.049664
0.0499723
0.0502108
0.0503847
0.0504979
0.050553
0.0505515
0.0505379
0.0505114
0.0504719
0.0503836
0.0501848
0.0499056
0.0495386
0.0490745
0.0485015
0.047806
0.0469713
0.0459783
0.0448038
0.0434201
0.0417928
0.0398776
0.0376138
0.0349112
0.0316178
0.027422
0.0214407
0.00956661
)
;
    }
    defaultFaces
    {
        type            empty;
    }
}


// ************************************************************************* //
