/*--------------------------------*- C++ -*----------------------------------*\
| =========                 |                                                 |
| \\      /  F ield         | OpenFOAM: The Open Source CFD Toolbox           |
|  \\    /   O peration     | Version:  2406                                  |
|   \\  /    A nd           | Website:  www.openfoam.com                      |
|    \\/     M anipulation  |                                                 |
\*---------------------------------------------------------------------------*/
FoamFile
{
    version     2.0;
    format      ascii;
    arch        "LSB;label=32;scalar=64";
    class       volScalarField;
    location    "0.95";
    object      nut;
}
// * * * * * * * * * * * * * * * * * * * * * * * * * * * * * * * * * * * * * //

dimensions      [0 2 -1 0 0 0 0];

internalField   nonuniform List<scalar> 
2268
(
0.000289337
0.000213038
0.000213038
0.000213038
0.000213038
0.000213038
0.000213038
0.000213038
0.000213038
0.000213038
0.000213038
0.000213038
0.000213038
5.70754e-05
2.78883e-05
3.27545e-05
3.58233e-05
3.74162e-05
3.79318e-05
3.73451e-05
3.52671e-05
3.05914e-05
1.87661e-05
0.000450785
0.000254306
0.000232321
0.000225511
0.000222385
0.000220634
0.000219545
0.000218827
0.000218345
0.000218025
0.00021783
0.000217737
0.000217737
2.90304e-05
0.000129655
0.000241867
0.000286128
0.000307564
0.000315007
0.000308702
0.000283362
0.000222965
6.16945e-05
0.000450785
0.000288167
0.000251962
0.000238672
0.000232268
0.000228639
0.000226375
0.000224885
0.000223885
0.000223223
0.000222819
0.000222626
0.000222626
3.06519e-05
0.000194687
0.00040087
0.000496729
0.000544075
0.000561095
0.000548373
0.000494266
0.000365876
7.29648e-05
0.000450785
0.000314823
0.000270613
0.00025196
0.000242449
0.000236938
0.000233468
0.000231176
0.000229635
0.000228616
0.000227992
0.000227696
0.000227696
3.49203e-05
0.000242087
0.000511894
0.000651244
0.000722496
0.000749034
0.00073129
0.000651941
0.000465414
8.14452e-05
0.000450785
0.000335499
0.000287638
0.000264953
0.000252709
0.000245413
0.000240757
0.00023766
0.000235569
0.000234184
0.000233336
0.000232932
0.000232932
3.96268e-05
0.000280581
0.000597231
0.000772808
0.000865857
0.000902117
0.000881471
0.00078141
0.000545364
8.89171e-05
0.000450785
0.000351572
0.000302834
0.000277373
0.000262866
0.000253958
0.000248176
0.000244294
0.000241659
0.000239907
0.000238832
0.00023832
0.00023832
4.45798e-05
0.000313886
0.000668563
0.00087584
0.000989541
0.00103635
0.00101552
0.00089966
0.000619711
9.69604e-05
0.000450785
0.000364209
0.000316232
0.000289057
0.00027278
0.000262475
0.000255662
0.000251035
0.000247873
0.000245762
0.000244464
0.000243844
0.000243844
4.97748e-05
0.000344001
0.000732435
0.000969303
0.00110356
0.00116234
0.00114476
0.00101934
0.000700475
0.000108477
0.000450785
0.00037429
0.000327979
0.000299933
0.000282353
0.000270886
0.000263157
0.000257843
0.000254182
0.000251726
0.00025021
0.000249486
0.000249486
5.52268e-05
0.000372179
0.000792969
0.00105921
0.00121482
0.00128753
0.00127737
0.00115199
0.000808076
0.000130728
2.02467e-05
3.44797e-05
4.02979e-05
4.33958e-05
4.51751e-05
4.62188e-05
4.68015e-05
4.70582e-05
4.70543e-05
4.68172e-05
4.63507e-05
4.56397e-05
4.46501e-05
4.33221e-05
4.15539e-05
3.91626e-05
3.57772e-05
3.04499e-05
3.0049e-05
7.53476e-05
0.000271464
0.000347779
0.000386288
0.000407548
0.000419635
0.000426157
0.000428805
0.000428363
0.000425154
0.000419221
0.000410401
0.000398311
0.00038227
0.000361077
0.000332479
0.000291599
0.000224694
6.88477e-05
8.9705e-05
0.00046134
0.000630625
0.000716274
0.000762822
0.000788814
0.000802557
0.000807868
0.00080649
0.000799135
0.000785923
0.000766547
0.000740261
0.000705699
0.000660406
0.000599674
0.00051319
0.000372503
7.99283e-05
0.000100722
0.000597694
0.000851323
0.00098137
0.00105174
0.00109073
0.00111111
0.00111876
0.00111634
0.00110492
0.00108474
0.00105537
0.00101576
0.00096397
0.000896454
0.000806378
0.000678877
0.000474615
8.80567e-05
0.000110424
0.000707602
0.00103581
0.00120524
0.00129667
0.00134712
0.00137331
0.00138288
0.0013793
0.00136399
0.00133726
0.00129859
0.00124668
0.00117907
0.00109126
0.000974587
0.000810467
0.000551758
9.4388e-05
0.000120684
0.00080807
0.00120357
0.00140667
0.00151592
0.00157614
0.00160722
0.00161825
0.00161334
0.00159421
0.00156121
0.00151375
0.00145027
0.00136782
0.00126104
0.00111962
0.000921855
0.000614781
9.96001e-05
0.000134785
0.000913758
0.00136947
0.0015991
0.00172257
0.0017908
0.00182589
0.0018379
0.00183146
0.00180847
0.00176933
0.00171334
0.00163868
0.00154193
0.00141686
0.00125164
0.00102176
0.000669657
0.000104074
0.000160348
0.00104872
0.00154671
0.00179251
0.00192624
0.0020008
0.00203907
0.00205162
0.00204339
0.00201643
0.00197112
0.00190665
0.0018209
0.00170995
0.0015667
0.00137779
0.00111609
0.000720038
0.000108024
0.000450785
0.000387195
0.000344345
0.000315956
0.000296959
0.000284001
0.000275003
0.000268692
0.000264289
0.000261311
0.000259463
0.000258578
0.000258578
6.42746e-05
0.000414561
0.000886656
0.00120059
0.00139207
0.00149016
0.00149885
0.00139713
0.00113494
0.000663316
0.000450785
0.000399213
0.00036127
0.000333993
0.000314483
0.000300478
0.000290378
0.0002831
0.000277922
0.000274373
0.000272153
0.000271084
0.000271084
7.67897e-05
0.000461792
0.000987433
0.00135495
0.00159148
0.00172836
0.00177735
0.00173493
0.001589
0.00133859
0.000450785
0.000408009
0.000374622
0.000349176
0.000330021
0.000315682
0.000304996
0.000297098
0.000291375
0.0002874
0.000284891
0.000283677
0.000283677
8.94577e-05
0.000501063
0.0010685
0.0014805
0.00175774
0.00193331
0.00202516
0.00204112
0.00198699
0.00188017
0.000450785
0.000414731
0.000385375
0.000362019
0.000343726
0.000329557
0.000318697
0.00031049
0.00030444
0.000300185
0.000297477
0.00029616
0.00029616
0.000102106
0.000534544
0.00113612
0.00158602
0.00189944
0.00211052
0.00224087
0.00230377
0.0023106
0.00227792
0.000450785
0.000420035
0.000394195
0.000372953
0.000355791
0.000342125
0.000331399
0.000323136
0.000316951
0.000312551
0.000309729
0.00030835
0.00030835
0.000114549
0.000563405
0.00119338
0.00167575
0.00202079
0.00226281
0.00242526
0.00252347
0.00256943
0.00257562
0.000450785
0.000424321
0.000401532
0.000382316
0.000366405
0.000353445
0.00034307
0.000334944
0.00032878
0.00032435
0.000321488
0.000320083
0.000320083
0.0001266
0.000588361
0.00124203
0.00175224
0.0021245
0.0023928
0.00258129
0.00270582
0.00277772
0.00280628
0.000450785
0.000427843
0.0004077
0.00039037
0.000375733
0.000363589
0.000353707
0.000345857
0.000339832
0.000335464
0.000332624
0.000331225
0.000331226
0.000138094
0.000609926
0.00128336
0.00181733
0.00221284
0.0025032
0.00271271
0.00285721
0.00294724
0.0029902
0.000450785
0.000430771
0.000412922
0.000397315
0.000383919
0.000372635
0.000363326
0.000355843
0.000350044
0.000345807
0.000343036
0.000341667
0.000341667
0.000148899
0.000628536
0.00131842
0.00187261
0.00228787
0.00259668
0.00282325
0.00298326
0.00308667
0.00313982
0.000450785
0.000433224
0.00041736
0.000403304
0.000391081
0.000380656
0.000371957
0.000364894
0.000359374
0.000355314
0.000352647
0.000351325
0.000351326
0.000158924
0.000644618
0.0013482
0.00191958
0.00235161
0.00267587
0.00291638
0.00308865
0.00320231
0.00326313
0.000450785
0.000435286
0.000421136
0.000408462
0.000397321
0.000387721
0.000379634
0.000373012
0.000367801
0.000363947
0.000361405
0.000360142
0.000360142
0.000168123
0.000658615
0.00137372
0.00195976
0.00240605
0.00274325
0.0029952
0.00317728
0.00329894
0.00336568
0.000450785
0.000437019
0.000424341
0.000412883
0.000402723
0.000393892
0.000386395
0.000380214
0.000375321
0.000371684
0.000369277
0.000368079
0.000368079
0.000176497
0.000671025
0.00139601
0.0019947
0.00245318
0.00280126
0.00306261
0.00325254
0.00338042
0.00345168
0.000450785
0.00043847
0.000427048
0.000416648
0.000407359
0.000399229
0.000392281
0.00038652
0.000381937
0.000378518
0.000376248
0.000375117
0.000375117
0.000184097
0.000682426
0.00141623
0.00202605
0.00249509
0.00285238
0.0031214
0.0033175
0.00345009
0.00352461
0.000450785
0.000439677
0.000429313
0.00041982
0.00041129
0.000403782
0.000397332
0.000391958
0.000387665
0.000384452
0.000382314
0.000381247
0.000381247
0.000191031
0.00069353
0.00143572
0.00205569
0.00253408
0.00289916
0.00317433
0.00337507
0.00351093
0.00358751
0.000450785
0.000440668
0.000431182
0.000422451
0.000414568
0.000407597
0.000401583
0.000396553
0.000392522
0.000389497
0.00038748
0.000386472
0.000386472
0.000197495
0.000705293
0.00145615
0.00208591
0.00257281
0.00294444
0.00322428
0.0034281
0.00356577
0.00364314
0.000450785
0.000441463
0.00043269
0.000424584
0.000417236
0.000410715
0.00040507
0.000400334
0.000396528
0.000393667
0.000391756
0.0003908
0.0003908
0.000203831
0.000719131
0.00147994
0.00211984
0.00261464
0.0029915
0.00327432
0.00347946
0.0036173
0.00369404
0.000450785
0.000442081
0.000433865
0.000426251
0.000419329
0.000413168
0.000407821
0.000403325
0.000399705
0.000396978
0.000395155
0.000394242
0.000394243
0.000210689
0.000737473
0.00151111
0.00216221
0.00266413
0.0030443
0.00332781
0.00353204
0.00366807
0.00374253
0.000450785
0.000442534
0.000434728
0.000427479
0.000420874
0.000414985
0.000409863
0.000405548
0.000402069
0.000399446
0.000397691
0.000396811
0.000396812
0.000219494
0.000765436
0.00155763
0.00222108
0.00272779
0.00310771
0.00338838
0.00358868
0.00372045
0.00379069
0.000450785
0.000442831
0.000435296
0.000428287
0.000421893
0.000416184
0.000411213
0.00040702
0.000403637
0.000401084
0.000399374
0.000398517
0.000398518
0.00023408
0.000817142
0.00163757
0.0023105
0.00281463
0.00318729
0.00345963
0.00365193
0.00377646
0.00384029
0.000450785
0.000442978
0.000435577
0.000428688
0.0004224
0.00041678
0.000411884
0.000407754
0.000404418
0.0004019
0.000400214
0.000399368
0.000399368
0.000270758
0.000944691
0.00179347
0.00245266
0.00293505
0.00328809
0.00354437
0.00372367
0.0038376
0.00389268
0.000450785
0.000442978
0.000435577
0.000428688
0.0004224
0.00041678
0.000411885
0.000407754
0.000404418
0.0004019
0.000400214
0.000399368
0.000258802
0.000639255
0.0013867
0.00210193
0.00266755
0.00309422
0.00341167
0.00364334
0.00380458
0.00390465
0.00394878
0.000192283
0.000174237
0.000179546
0.000185619
0.000190635
0.000194814
0.000198622
0.000202642
0.000207728
0.000215484
0.000229944
0.00026775
0.000637793
0.00125075
0.00189518
0.00246179
0.00292128
0.00327998
0.00355317
0.00375458
0.00389402
0.0039777
0.00400909
9.77481e-05
0.000272859
0.000376122
0.000451361
0.000510682
0.000559864
0.000602634
0.000642106
0.000681835
0.000727726
0.000794484
0.000934496
0.00138395
0.00189646
0.00238845
0.00282261
0.00318566
0.00347803
0.00370558
0.00387473
0.00399058
0.00405642
0.00407396
9.12057e-05
0.000523727
0.000769969
0.000933942
0.00105783
0.00115849
0.0012449
0.00132337
0.00140022
0.0014848
0.00159599
0.00177639
0.00210114
0.00247018
0.00283201
0.0031606
0.00344382
0.0036778
0.00386283
0.00400063
0.00409285
0.0041405
0.00414377
9.85139e-05
0.000679304
0.00106083
0.00131486
0.00150355
0.00165465
0.00178287
0.00189781
0.00200786
0.0021231
0.00225866
0.00243702
0.00267771
0.00294717
0.00321649
0.00346698
0.00368778
0.00387333
0.00402113
0.00413023
0.00420009
0.00423009
0.0042193
0.000104421
0.000774039
0.00125683
0.00158774
0.0018349
0.00203233
0.00219875
0.0023461
0.00248375
0.00262089
0.00276803
0.00293618
0.00313063
0.00333928
0.00354718
0.00374222
0.0039159
0.0040627
0.00417918
0.00426305
0.00431257
0.0043261
0.00430194
0.000108906
0.000840109
0.00139779
0.00179063
0.00208765
0.00232573
0.00252582
0.00270115
0.00286134
0.00301447
0.00316798
0.00332786
0.00349611
0.00366792
0.00383568
0.00399196
0.00413066
0.00424713
0.00433789
0.00440021
0.00443176
0.00443036
0.00439386
0.000112469
0.000891094
0.00150742
0.00195097
0.00229045
0.00256401
0.00279369
0.00299331
0.00317243
0.00333832
0.00349674
0.00365171
0.00380465
0.0039537
0.00409502
0.00422421
0.00433711
0.00443009
0.00450007
0.00454433
0.00456038
0.00454578
0.00449818
0.000115457
0.000933816
0.00159955
0.00208674
0.00246361
0.00276889
0.00302514
0.00324643
0.0034422
0.00361925
0.00378254
0.00393543
0.00407942
0.00421413
0.00433779
0.00444789
0.00454172
0.0046166
0.00466996
0.00469932
0.00470223
0.00467624
0.00461892
0.000118141
0.000972703
0.00168354
0.00221087
0.00262242
0.00295727
0.00323826
0.00347959
0.00369068
0.00387812
0.00404662
0.00419942
0.00433833
0.00446388
0.00457551
0.00467199
0.00475166
0.00481259
0.00485276
0.00486998
0.00486199
0.00482641
0.00476087
0.000120766
0.00101135
0.00176697
0.00233399
0.0027797
0.00314347
0.00344839
0.00370887
0.00393445
0.0041318
0.00430574
0.00445966
0.0045958
0.00471532
0.00481855
0.00490511
0.00497412
0.0050243
0.00505407
0.00506159
0.00504479
0.00500143
0.00492927
0.000123584
0.00105313
0.00185676
0.00246576
0.00294701
0.00334029
0.0036691
0.00394823
0.00418762
0.00439432
0.00457351
0.004729
0.0048635
0.00497878
0.00507582
0.00515489
0.00521573
0.00525757
0.00527923
0.00527916
0.00525553
0.00520626
0.00512922
0.000126875
0.0011014
0.00195958
0.00261526
0.00313506
0.00355939
0.00391244
0.00420977
0.00446207
0.00467712
0.00486078
0.00501748
0.00515052
0.00526227
0.00535426
0.00542732
0.00548168
0.00551699
0.00553241
0.00552666
0.00549812
0.00544488
0.00536495
0.000130944
0.00115934
0.00208155
0.00279073
0.00335337
0.00381085
0.00418854
0.00450325
0.00476699
0.00498871
0.00517528
0.005332
0.00546289
0.00557093
0.00565819
0.00572598
0.00577493
0.00580503
0.00581575
0.00580607
0.00577452
0.00571938
0.00563877
0.000136116
0.00122972
0.00222779
0.00299903
0.00360974
0.00410266
0.00450495
0.0048355
0.00510829
0.00533406
0.0055211
0.00567581
0.00580305
0.00590647
0.00598865
0.00605131
0.00609542
0.00612127
0.00612859
0.00611655
0.00608389
0.00602903
0.00595021
0.000142727
0.00131472
0.00240233
0.0032457
0.00391032
0.00444058
0.00486645
0.00520997
0.00548816
0.0057142
0.00589826
0.0060481
0.00616952
0.00626681
0.00634303
0.00640025
0.00643973
0.00646199
0.00646696
0.00645402
0.00642209
0.00636973
0.00629531
0.000151133
0.00141644
0.00260931
0.00353653
0.00426097
0.00482916
0.0052755
0.00562706
0.00590515
0.00612627
0.00630287
0.00644422
0.00655706
0.00664628
0.00671531
0.00676649
0.00680126
0.00682033
0.00682381
0.00681125
0.00678174
0.00673401
0.00666658
0.000161782
0.00153841
0.00285629
0.00388133
0.00467037
0.0052737
0.00573358
0.00608485
0.00635486
0.00656418
0.0067278
0.0068564
0.00695753
0.00703649
0.00709692
0.00714127
0.0071711
0.00718722
0.00718983
0.00717867
0.00715301
0.00711176
0.0070536
0.000175374
0.00168833
0.00316039
0.00430025
0.0051543
0.00578269
0.00624231
0.00657993
0.00683069
0.00701958
0.00716379
0.00727504
0.00736124
0.00742775
0.00747819
0.00751494
0.0075395
0.00755272
0.00755489
0.00754584
0.00752504
0.00749162
0.00744444
0.000193173
0.00188357
0.00355903
0.00483232
0.00573951
0.00636838
0.00680306
0.00710716
0.00732421
0.00748265
0.00760075
0.00769019
0.00775855
0.00781076
0.00785006
0.00787855
0.00789757
0.00790787
0.00790976
0.00790318
0.00788774
0.00786282
0.00782751
0.000217599
0.00216485
0.00413103
0.00554621
0.00646376
0.0070429
0.00741339
0.00765772
0.00782467
0.00794277
0.00802883
0.00809297
0.00814145
0.00817817
0.00820567
0.00822557
0.00823889
0.00824621
0.0082478
0.00824365
0.00823354
0.00821704
0.00819353
0.000247299
0.00265853
0.00506187
0.00655269
0.00736359
0.00780497
0.00805925
0.00821589
0.00831842
0.008389
0.00843955
0.0084768
0.00850475
0.00852583
0.00854158
0.00855299
0.00856066
0.00856498
0.0085661
0.00856405
0.00855872
0.00854987
0.00853714
0.000270198
0.0042923
0.00706286
0.00806737
0.00845065
0.00861992
0.00870688
0.00875742
0.00878958
0.00881143
0.00882698
0.00883841
0.00884697
0.00885343
0.00885827
0.00886178
0.00886417
0.00886555
0.00886597
0.00886546
0.00886398
0.00886145
0.00885772
0.000144364
0.000135037
0.000136665
0.000150014
0.00110818
0.00107396
0.0010904
0.0011589
0.00180053
0.00178313
0.00181202
0.00188551
0.00224653
0.00224414
0.0022796
0.00234925
0.00256326
0.00256828
0.00260812
0.00267823
0.00280346
0.00281269
0.00285599
0.00292829
0.00299336
0.00300555
0.00305173
0.00312653
0.00314733
0.00316186
0.00321049
0.00328762
0.00327405
0.0032905
0.00334116
0.00342031
0.0033793
0.0033973
0.00344963
0.00353044
0.00346736
0.00348655
0.00354017
0.0036223
0.00354171
0.00356173
0.00361626
0.00369932
0.00360535
0.00362579
0.00368084
0.00376445
0.00366097
0.0036814
0.00373653
0.00382029
0.00371101
0.00373093
0.00378567
0.00386915
0.00375768
0.00377652
0.00383037
0.0039131
0.00380292
0.00382006
0.00387247
0.00395397
0.00384839
0.00386316
0.00391355
0.00399332
0.00389541
0.00390715
0.00395495
0.0040325
0.00394498
0.00395307
0.00399776
0.00407267
0.00399785
0.00400177
0.00404295
0.00411484
0.00405463
0.00405406
0.00409142
0.00416007
0.00411609
0.00411086
0.00414427
0.00420955
0.0041833
0.00417343
0.0042029
0.00426483
0.00425794
0.0042436
0.00426926
0.00432793
0.00434241
0.00432388
0.00434596
0.00440156
0.00443997
0.00441763
0.00443643
0.0044892
0.00455477
0.00452906
0.00454491
0.00459509
0.00469171
0.00466313
0.00467639
0.00472421
0.00485615
0.00482527
0.00483628
0.00488192
0.00505339
0.00502083
0.00502992
0.00507345
0.00528784
0.00525433
0.0052618
0.00530317
0.0055621
0.00552847
0.00553458
0.00557357
0.00587594
0.00584312
0.0058481
0.00588433
0.0062256
0.0061946
0.00619864
0.00623159
0.00660361
0.00657546
0.00657868
0.00660777
0.00699935
0.00697499
0.0069775
0.00700216
0.00740044
0.00738059
0.00738248
0.00740227
0.00779458
0.00777964
0.00778098
0.00779572
0.00817163
0.00816163
0.0081625
0.00817232
0.00852535
0.00851993
0.0085204
0.00852575
0.0088543
0.00885277
0.00885293
0.00885455
0.000779634
0.00143574
0.00186168
0.00210924
0.00225311
0.00233552
0.00237781
0.00239066
0.00237923
0.00234568
0.00229035
0.00221215
0.00210845
0.00197447
0.00180164
0.00157416
0.00126092
0.000794863
0.000113504
0.00151158
0.00195196
0.0022773
0.00249433
0.00263216
0.00271462
0.00275673
0.00276705
0.00275003
0.00270753
0.00263961
0.0025448
0.00241987
0.00225904
0.00205217
0.00178099
0.00141066
0.00087024
0.000119162
0.00209457
0.00239998
0.00264957
0.00283221
0.00295596
0.00303225
0.00307016
0.00307564
0.00305196
0.00300039
0.00292061
0.00281075
0.00266707
0.00248303
0.00224736
0.00194008
0.001524
0.000926422
0.000123448
0.00252389
0.0027671
0.00297071
0.00312627
0.00323525
0.00330291
0.00333444
0.0033336
0.00330252
0.00324185
0.00315084
0.00302725
0.00286691
0.00266272
0.00240258
0.00206533
0.00161231
0.000969785
0.000126755
0.00284697
0.00306439
0.00324267
0.00337962
0.00347605
0.00353487
0.00355919
0.00355133
0.00351255
0.00344293
0.00334134
0.00320524
0.00303012
0.00280844
0.00252751
0.00216538
0.0016823
0.00100392
0.000129337
0.00309879
0.00330652
0.00347151
0.00359636
0.00368299
0.00373377
0.00375091
0.00373593
0.00368949
0.00361127
0.00349984
0.00335241
0.00316421
0.00292738
0.00262881
0.00224597
0.00173836
0.0010311
0.000131364
0.00330067
0.00350556
0.00366373
0.00378085
0.00386005
0.00390391
0.00391434
0.00389251
0.00383874
0.00375244
0.00363197
0.00347435
0.00327463
0.00302473
0.00271123
0.00231117
0.00178346
0.00105283
0.00013296
0.00346553
0.00367038
0.00382513
0.00393723
0.00401082
0.00404883
0.00405322
0.00402503
0.00396444
0.00387068
0.00374201
0.00357531
0.00336552
0.00310439
0.00277829
0.00236394
0.00181979
0.00107023
0.000134214
0.00360158
0.00380746
0.0039605
0.00406924
0.0041385
0.00417161
0.00417066
0.00413672
0.00406989
0.00396939
0.00383338
0.00365868
0.00344014
0.00316941
0.00283273
0.00240655
0.00184897
0.00108412
0.000135196
0.00371452
0.00392166
0.00407382
0.00418018
0.00424604
0.00427502
0.0042694
0.00423032
0.00415793
0.0040514
0.0039089
0.0037272
0.00350113
0.00322226
0.00287672
0.0024408
0.00187231
0.00109517
0.000135961
0.00380859
0.00401687
0.0041685
0.00427305
0.00433612
0.00436159
0.00435191
0.00430831
0.00423098
0.00411915
0.00397096
0.00378322
0.0035507
0.00326497
0.00291207
0.00246817
0.00189086
0.00110389
0.000136552
0.00388722
0.00409631
0.00424748
0.00435051
0.00441122
0.00443368
0.00442046
0.00437289
0.00429125
0.00417478
0.00402168
0.00382874
0.00359076
0.00329928
0.0029403
0.00248989
0.0019055
0.00111072
0.000137006
0.00395334
0.00416281
0.00431338
0.00441501
0.00447364
0.00449345
0.00447713
0.0044261
0.00434069
0.00422021
0.00406287
0.00386551
0.00362292
0.00332665
0.00296268
0.002507
0.00191696
0.00111604
0.000137352
0.00400953
0.00421882
0.00436857
0.00446878
0.00452547
0.0045429
0.00452384
0.00446977
0.00438109
0.00425714
0.00409618
0.00389507
0.00364862
0.00334838
0.00298032
0.0025204
0.00192587
0.00112014
0.000137613
0.00405807
0.00426658
0.00441517
0.00451385
0.00456865
0.00458388
0.00456236
0.00450561
0.00441407
0.00428713
0.00412307
0.00391877
0.00366908
0.00336556
0.00299416
0.00253083
0.00193275
0.00112328
0.000137809
0.00410099
0.00430806
0.0044551
0.00455205
0.00460495
0.00461809
0.0045943
0.00453516
0.0044411
0.00431156
0.00414483
0.00393783
0.00368542
0.00337917
0.00300504
0.00253895
0.00193807
0.00112568
0.000137956
0.00414009
0.00434503
0.00449006
0.00458507
0.00463598
0.00464708
0.00462117
0.00455983
0.00446353
0.00433169
0.00416264
0.00395331
0.00369859
0.00339004
0.00301365
0.00254532
0.00194219
0.00112753
0.000138066
0.00417694
0.00437904
0.00452163
0.00461442
0.00466324
0.00467229
0.00464435
0.00458097
0.00448261
0.0043487
0.00417759
0.00396621
0.00370947
0.00339895
0.00302063
0.00255043
0.00194546
0.00112897
0.000138151
0.00421292
0.00441151
0.00455122
0.00464153
0.00468813
0.0046951
0.00466516
0.00459983
0.00449953
0.00436372
0.00419071
0.00397746
0.00371889
0.00340659
0.00302657
0.00255473
0.00194818
0.00113016
0.000138218
0.00424925
0.00444375
0.00458019
0.00466779
0.00471202
0.00471686
0.00468493
0.00461768
0.00451551
0.00437785
0.00420303
0.00398799
0.00372767
0.00341368
0.00303203
0.00255865
0.00195063
0.00113121
0.000138277
0.00428709
0.00447702
0.00460989
0.00469457
0.00473633
0.00473898
0.00470502
0.00463584
0.00453181
0.0043923
0.00421564
0.00399879
0.00373668
0.00342095
0.00303762
0.00256264
0.00195311
0.00113227
0.000138334
0.00432764
0.00451269
0.00464176
0.0047234
0.0047626
0.00476299
0.00472696
0.0046558
0.00454983
0.00440839
0.00422979
0.00401098
0.00374691
0.00342924
0.00304402
0.00256722
0.00195595
0.00113348
0.000138399
0.00437227
0.00455228
0.00467746
0.00475599
0.00479258
0.00479066
0.00475249
0.00467927
0.00457123
0.00442769
0.00424694
0.00402591
0.00375957
0.0034396
0.00305208
0.00257303
0.00195959
0.00113504
0.000138483
0.00442269
0.00459766
0.00471897
0.00479439
0.00482835
0.00482409
0.00478371
0.0047083
0.00459803
0.00445215
0.00426892
0.00404527
0.00377618
0.00345335
0.00306292
0.00258092
0.00196457
0.00113718
0.0001386
0.00448108
0.00465116
0.0047687
0.00484108
0.00487245
0.00486582
0.00482316
0.00474542
0.00463269
0.00448416
0.00429804
0.00407124
0.00379874
0.00347226
0.00307799
0.00259204
0.00197166
0.00114027
0.000138771
0.00455024
0.00471567
0.00482963
0.0048991
0.00492794
0.00491895
0.00487394
0.00479373
0.0046783
0.00452675
0.00433723
0.00410661
0.00382984
0.00349867
0.00309931
0.00260796
0.00198195
0.00114481
0.000139026
0.0046337
0.00479477
0.00490535
0.00497206
0.00499846
0.00498715
0.00493975
0.00485695
0.00473859
0.00458365
0.00439018
0.00415496
0.00387288
0.00353567
0.00312958
0.00263086
0.00199693
0.00115149
0.000139408
0.00473568
0.00489265
0.00500005
0.00506415
0.00508823
0.00507467
0.0050249
0.00493946
0.004818
0.00465934
0.00446138
0.00422072
0.00393214
0.00358729
0.00317237
0.00266368
0.00201869
0.00116132
0.000139981
0.00486106
0.00501405
0.00511838
0.00517998
0.00520186
0.00518617
0.00513415
0.00504612
0.00492155
0.004759
0.00455611
0.00430925
0.00401293
0.00365858
0.00323229
0.00271027
0.00205002
0.00117567
0.000140839
0.005015
0.00516391
0.00526513
0.00532424
0.00534402
0.00532639
0.00527236
0.00518203
0.00505456
0.00488821
0.00468024
0.0044266
0.00412137
0.00375558
0.00331495
0.00277549
0.00209452
0.00119636
0.000142111
0.00520246
0.00534684
0.00544464
0.00550115
0.0055189
0.00549959
0.00544398
0.00535187
0.00522209
0.00505246
0.00483969
0.00457912
0.00426411
0.00388498
0.00342681
0.00286502
0.00215651
0.00122565
0.000143973
0.00542741
0.00556635
0.00566012
0.00571373
0.00572948
0.00570882
0.00565226
0.00555926
0.0054282
0.00525636
0.00503971
0.00477268
0.00444758
0.00405357
0.00357456
0.00298495
0.00224076
0.0012661
0.000146654
0.00569188
0.00582397
0.00591275
0.00596295
0.00597666
0.00595508
0.00589842
0.00580576
0.005675
0.00550269
0.00528388
0.00501175
0.00467708
0.00426724
0.00376431
0.00314097
0.00235179
0.00132024
0.000150425
0.00599511
0.00611844
0.00620091
0.00624701
0.00625857
0.00623656
0.00618087
0.00609019
0.00596184
0.00579156
0.00557325
0.00529848
0.00495589
0.00453028
0.00400087
0.00333771
0.00249326
0.00139023
0.000155591
0.00633286
0.00644516
0.00651981
0.00656097
0.00657027
0.00654839
0.00649493
0.00640817
0.00628486
0.00611989
0.0059058
0.00563219
0.00528491
0.00484505
0.00428763
0.00357865
0.00266783
0.00147763
0.000162473
0.00669741
0.0067963
0.00686156
0.00689698
0.00690392
0.00688282
0.00683299
0.00675236
0.00663718
0.00648151
0.00627653
0.00600958
0.00566299
0.00521286
0.00462787
0.00386774
0.00287842
0.00158398
0.000171423
0.00707819
0.00716157
0.00721612
0.00724515
0.00724975
0.00723013
0.0071854
0.00711325
0.0070096
0.0068679
0.00667813
0.00642538
0.006088
0.00563556
0.00502745
0.00421293
0.00313146
0.00171224
0.000182899
0.00746323
0.00752965
0.00757266
0.00759497
0.00759744
0.00758009
0.00754189
0.00748053
0.00739187
0.00726918
0.00710181
0.00687313
0.00655764
0.00611725
0.00549818
0.00463164
0.00344265
0.00186932
0.000197627
0.00784099
0.00788997
0.0079213
0.00793705
0.00793782
0.00792349
0.0078931
0.00784452
0.00777398
0.00767522
0.00753793
0.00734515
0.00706901
0.00666425
0.00606036
0.00515817
0.00384739
0.00207091
0.000216979
0.00820228
0.0082345
0.00825482
0.00826463
0.00826431
0.0082537
0.008232
0.00819756
0.0081474
0.00807648
0.00797619
0.00783156
0.007616
0.00728148
0.00674199
0.00585356
0.00442314
0.00235469
0.000244611
0.00854186
0.00855911
0.0085698
0.0085747
0.008574
0.00856758
0.00855493
0.00853501
0.00850601
0.00846477
0.00840573
0.00831874
0.00818426
0.00796253
0.00756838
0.0068169
0.00535127
0.00283259
0.000297574
0.0088592
0.00886412
0.00886711
0.00886839
0.00886801
0.00886593
0.00886197
0.00885583
0.00884691
0.00883425
0.00881606
0.00878904
0.00874637
0.00867247
0.00852575
0.0081735
0.00713455
0.00405841
0.000465814
)
;

boundaryField
{
    leftWall
    {
        type            nutkWallFunction;
        blending        stepwise;
        value           nonuniform List<scalar> 
50
(
0
0
0
0
0
0
0
0
0
0
0
0
0
0
0
0
0
0
0
0
0
0
0
0
0
0
0
5.36008e-05
1.87515e-05
4.99927e-06
4.22918e-06
5.41022e-06
6.33911e-06
7.0341e-06
7.57656e-06
8.02146e-06
8.41015e-06
8.77929e-06
9.16606e-06
9.61131e-06
1.01609e-05
1.08652e-05
1.17769e-05
1.2952e-05
1.44555e-05
1.63822e-05
1.89019e-05
2.23871e-05
2.79004e-05
3.80701e-05
)
;
    }
    rightWall
    {
        type            nutkWallFunction;
        blending        stepwise;
        value           nonuniform List<scalar> 
50
(
0
4.36104e-07
2.32893e-06
3.68782e-06
4.73152e-06
5.58221e-06
6.30699e-06
6.94335e-06
7.82082e-06
8.71422e-06
9.38113e-06
9.88879e-06
1.02801e-05
1.05836e-05
1.08194e-05
1.10023e-05
1.11436e-05
1.1252e-05
1.13347e-05
1.13973e-05
1.14442e-05
1.14791e-05
1.15048e-05
1.15238e-05
1.15378e-05
1.15483e-05
1.15565e-05
1.15635e-05
1.15702e-05
1.15777e-05
1.15873e-05
1.16009e-05
1.16209e-05
1.1651e-05
1.16968e-05
1.17662e-05
1.18715e-05
1.20296e-05
1.22647e-05
1.26089e-05
1.3102e-05
1.37906e-05
1.47249e-05
1.59592e-05
1.75586e-05
1.96205e-05
2.23265e-05
2.61641e-05
3.34099e-05
5.55319e-05
)
;
    }
    lowerWall
    {
        type            nutkWallFunction;
        blending        stepwise;
        value           nonuniform List<scalar> 
62
(
0
0
0
0
0
0
0
0
0
0
0
0
2.16739e-05
0
0
0
0
0
0
0
0
0
0
0
0
1.13316e-06
2.5762e-06
3.82586e-06
5.15115e-06
7.02133e-06
1.05694e-05
1.26568e-05
1.11679e-05
1.14056e-05
1.34724e-05
0
1.46228e-06
3.8679e-06
5.67252e-06
7.23862e-06
8.87517e-06
1.10977e-05
1.50568e-05
0
0
0
0
0
0
0
0
0
0
0
0
0
0
0
0
0
0
0
)
;
    }
    atmosphere
    {
        type            calculated;
        value           uniform 0.009;
    }
    defaultFaces
    {
        type            empty;
    }
}


// ************************************************************************* //
