/*--------------------------------*- C++ -*----------------------------------*\
| =========                 |                                                 |
| \\      /  F ield         | OpenFOAM: The Open Source CFD Toolbox           |
|  \\    /   O peration     | Version:  2406                                  |
|   \\  /    A nd           | Website:  www.openfoam.com                      |
|    \\/     M anipulation  |                                                 |
\*---------------------------------------------------------------------------*/
FoamFile
{
    version     2.0;
    format      ascii;
    arch        "LSB;label=32;scalar=64";
    class       volScalarField;
    location    "0.95";
    object      nut;
}
// * * * * * * * * * * * * * * * * * * * * * * * * * * * * * * * * * * * * * //

dimensions      [0 2 -1 0 0 0 0];

internalField   nonuniform List<scalar> 
2268
(
2.92187e-05
3.21679e-05
3.82835e-05
4.22334e-05
4.5084e-05
4.72525e-05
4.89469e-05
5.02864e-05
5.13453e-05
5.21723e-05
5.27996e-05
5.32473e-05
5.35257e-05
5.36351e-05
5.35638e-05
5.32837e-05
5.27406e-05
5.18357e-05
5.03886e-05
4.80594e-05
4.41713e-05
3.71697e-05
2.10094e-05
6.41155e-05
0.000246438
0.000328924
0.000380098
0.000416482
0.000444049
0.000465617
0.000482742
0.000496369
0.000507105
0.000515349
0.000521347
0.000525225
0.000526986
0.000526483
0.000523352
0.000516881
0.000505727
0.000487359
0.000456829
0.000403918
0.000304273
7.20588e-05
7.56456e-05
0.000416016
0.000601562
0.000719287
0.000803542
0.000867679
0.000918108
0.000958364
0.000990589
0.00101615
0.00103592
0.00105046
0.00106004
0.00106463
0.00106387
0.00105684
0.00104174
0.00101517
0.000970616
0.000895483
0.000764843
0.000526765
8.70805e-05
8.39544e-05
0.000534595
0.000814532
0.000997892
0.00113074
0.00123254
0.00131298
0.00137746
0.00142929
0.00147056
0.00150265
0.00152637
0.00154214
0.00154988
0.00154896
0.00153783
0.00151347
0.00147017
0.00139707
0.00127355
0.00106079
0.000688464
9.84392e-05
9.02856e-05
0.000623131
0.000984998
0.00122922
0.00140852
0.0015469
0.00165677
0.00174518
0.00181648
0.00187345
0.00191789
0.0019509
0.00197298
0.00198402
0.00198309
0.00196803
0.00193461
0.00187487
0.00177387
0.00160356
0.00131266
0.000817896
0.000108209
9.53551e-05
0.000692896
0.00112536
0.00142496
0.00164773
0.00182092
0.00195908
0.00207066
0.00216092
0.00223325
0.00228986
0.00233208
0.00236052
0.002375
0.00237435
0.00235584
0.00231417
0.00223947
0.00211336
0.0019015
0.00154108
0.000934406
0.000118237
9.95603e-05
0.000750046
0.00124366
0.00159333
0.00185642
0.0020624
0.00222748
0.00236127
0.00246983
0.00255707
0.00262556
0.00267687
0.0027117
0.00272984
0.00272989
0.00270868
0.00266008
0.00257281
0.0024261
0.00218121
0.00176526
0.00105665
0.000131949
0.000103135
0.000798168
0.00134522
0.00174012
0.00204044
0.00227715
0.00246772
0.00262271
0.00274883
0.00285048
0.00293056
0.00299083
0.0030321
0.00305414
0.00305544
0.0030325
0.00297868
0.00288192
0.00272042
0.00245414
0.00200604
0.00122059
0.00015853
2.1555e-05
3.82068e-05
4.50829e-05
4.87199e-05
5.07717e-05
5.19383e-05
5.25535e-05
5.27836e-05
5.27108e-05
5.23704e-05
5.17689e-05
5.08895e-05
4.96927e-05
4.81086e-05
4.60193e-05
4.32143e-05
3.92678e-05
3.30893e-05
3.13689e-05
8.18007e-05
0.000319388
0.00041626
0.000465188
0.000491697
0.00050621
0.000513518
0.000515921
0.000514519
0.000509784
0.000501801
0.000490366
0.000474987
0.000454782
0.000428233
0.000392533
0.000341707
0.000259204
7.32092e-05
9.83743e-05
0.000561705
0.000795365
0.000916197
0.000981065
0.0010159
0.00103299
0.00103823
0.00103442
0.00102278
0.00100356
0.000976339
0.000940031
0.000892657
0.000830769
0.000747984
0.000630831
0.000443958
8.58432e-05
0.000111082
0.000740964
0.00111023
0.00130779
0.00141438
0.00147134
0.00149897
0.00150718
0.0015007
0.00148159
0.00145036
0.00140641
0.00134808
0.00127233
0.00117387
0.001043
0.000859777
0.000575457
9.50816e-05
0.000122139
0.000885295
0.0013797
0.00165068
0.00179773
0.00187627
0.00191417
0.00192513
0.0019158
0.00188909
0.00184577
0.00178511
0.00170491
0.00160121
0.00146705
0.0012899
0.00104477
0.000674505
0.000102163
0.000133693
0.00101493
0.00162341
0.0019595
0.00214245
0.00224033
0.00228738
0.00230054
0.00228808
0.00225371
0.00219843
0.00212137
0.0020199
0.00188919
0.00172088
0.0015001
0.00119809
0.000752867
0.000107843
0.000149635
0.00114937
0.00185933
0.00224685
0.00245828
0.00257188
0.00262627
0.00264071
0.00262472
0.0025826
0.00251553
0.00242252
0.00230053
0.00214397
0.00194329
0.00168177
0.00132791
0.000817166
0.000112554
0.000179224
0.00132398
0.00210578
0.00252289
0.00275287
0.00287752
0.00293693
0.00295148
0.00293142
0.00288139
0.00280271
0.00269422
0.00255251
0.00237133
0.00214015
0.00184075
0.00143971
0.000871345
0.000116559
0.000107935
0.000862768
0.00148373
0.0019432
0.002298
0.00258046
0.00280945
0.00299668
0.00314973
0.00327365
0.00337177
0.00344617
0.00349782
0.00352655
0.00353073
0.00350664
0.00344734
0.00334059
0.00316542
0.00288643
0.00244741
0.00178067
0.000910263
0.000112933
0.000929627
0.00162936
0.0021598
0.00257601
0.00291111
0.00318508
0.00341063
0.00359618
0.0037474
0.00386815
0.0039609
0.00402694
0.00406636
0.00407783
0.00405812
0.00400132
0.0038976
0.00373164
0.00348132
0.00311942
0.00262624
0.00202609
0.000116859
0.000982472
0.00174591
0.0023351
0.00280328
0.0031838
0.00349728
0.00375705
0.00397208
0.00414856
0.00429075
0.00440152
0.00448253
0.00453433
0.00455621
0.00454595
0.00449948
0.0044104
0.00426987
0.00406761
0.00379588
0.00346009
0.00309992
0.000120002
0.00102522
0.00184115
0.00247952
0.00299191
0.0034117
0.00375985
0.00405012
0.00429187
0.00449167
0.00465416
0.00478256
0.00487897
0.00494449
0.00497919
0.00498207
0.00495104
0.00488296
0.00477421
0.00462232
0.00442953
0.00420951
0.00399709
0.000122547
0.00106029
0.00191998
0.00259985
0.00315
0.00360378
0.00398236
0.00429979
0.00456572
0.00478702
0.00496864
0.00511417
0.00522614
0.00530619
0.00535522
0.00537338
0.0053603
0.00531536
0.00523842
0.00513122
0.0049998
0.00485788
0.00473005
0.000124621
0.0010893
0.00198573
0.00270077
0.00328326
0.00376648
0.00417177
0.00451335
0.00480111
0.00504216
0.00524173
0.00540371
0.00553104
0.0056259
0.00568987
0.00572411
0.00572953
0.00570721
0.00565902
0.00558853
0.00550245
0.00541195
0.00533313
0.000126315
0.0011134
0.00204075
0.00278567
0.00339588
0.0039046
0.00433328
0.0046963
0.00500372
0.00526283
0.00547909
0.00565668
0.00579888
0.00590832
0.00598714
0.00603725
0.00606045
0.00605887
0.00603532
0.00599394
0.00594083
0.00588444
0.00583517
0.0001277
0.00113344
0.00208684
0.00285711
0.00349107
0.00402185
0.00447099
0.00485298
0.00517801
0.00545354
0.00568521
0.00587741
0.00603373
0.00615712
0.00625018
0.00631531
0.00635491
0.00637163
0.00636865
0.00635005
0.00632099
0.00628773
0.00625712
0.00012883
0.00115009
0.00212539
0.00291714
0.00357138
0.00412119
0.00458816
0.00498687
0.00532762
0.00561798
0.00586372
0.00606944
0.00623892
0.00637538
0.00648173
0.00656069
0.00661499
0.00664752
0.00666152
0.00666073
0.00664944
0.00663234
0.00661406
0.000129749
0.00116389
0.00215753
0.00296742
0.00363892
0.00420508
0.00468753
0.00510091
0.0054556
0.00575925
0.00601774
0.0062358
0.00641736
0.00656584
0.00668434
0.00677578
0.00684303
0.00688906
0.00691701
0.00693024
0.00693231
0.00692682
0.00691705
0.000130493
0.00117527
0.0021842
0.00300932
0.00369546
0.00427561
0.00477142
0.00519761
0.00556457
0.00588004
0.00614996
0.00637916
0.00657168
0.00673105
0.00686048
0.00696299
0.00704153
0.00709902
0.00713843
0.00716279
0.00717509
0.00717817
0.00717448
0.000131092
0.0011846
0.0022062
0.00304405
0.00374252
0.00433456
0.00484187
0.00527915
0.00565685
0.00598274
0.00626283
0.00650198
0.0067043
0.00687339
0.00701253
0.00712478
0.00721306
0.00728024
0.0073291
0.00736238
0.00738265
0.00739222
0.00739301
0.000131571
0.0011922
0.00222424
0.00307264
0.00378144
0.00438354
0.00490065
0.00534748
0.00573452
0.00606953
0.00635856
0.0066065
0.00681749
0.00699518
0.00714286
0.00726357
0.00736022
0.00743557
0.00749224
0.00753273
0.00755929
0.00757388
0.00757805
0.000131951
0.00119834
0.00223891
0.00309601
0.0038134
0.00442395
0.00494936
0.00540437
0.00579944
0.00614236
0.00643919
0.00669482
0.00691342
0.00709863
0.00725373
0.00738176
0.00748555
0.00756777
0.00763091
0.00767726
0.00770885
0.00772738
0.00773415
0.000132251
0.00120327
0.00225075
0.00311497
0.00383944
0.00445704
0.00498944
0.00545137
0.00585332
0.00620305
0.00650661
0.00676891
0.00699411
0.00718583
0.00734733
0.00748163
0.00759149
0.00767948
0.00774798
0.00779913
0.00783477
0.00785644
0.00786524
0.000132485
0.0012072
0.00226022
0.00313021
0.0038605
0.00448392
0.00502215
0.00548993
0.00589769
0.00625322
0.00656255
0.00683058
0.00706144
0.00725875
0.00742575
0.00756538
0.00768036
0.00777319
0.00784614
0.00790121
0.00794014
0.00796431
0.00797472
0.000132666
0.00121029
0.00226774
0.00314237
0.00387738
0.00450559
0.00504865
0.00552129
0.00593395
0.00629438
0.00660861
0.00688151
0.0071172
0.00731926
0.00749091
0.00763505
0.00775434
0.00785121
0.00792783
0.00798614
0.00802774
0.00805393
0.00806562
0.000132806
0.00121271
0.00227365
0.00315199
0.00389081
0.00452291
0.00506994
0.00554661
0.00596334
0.00632788
0.00664622
0.00692323
0.00716299
0.00736907
0.00754464
0.00769256
0.00781545
0.00791567
0.00799533
0.00805628
0.00810006
0.00812788
0.0081406
0.000132912
0.00121458
0.00227826
0.00315953
0.00390139
0.00453663
0.0050869
0.00556687
0.00598698
0.00635492
0.00667669
0.00695712
0.00720029
0.00740973
0.00758857
0.00773965
0.00786553
0.00796852
0.00805068
0.00811379
0.00815934
0.00818849
0.00820202
0.000132993
0.00121602
0.00228182
0.00316538
0.00390966
0.00454742
0.0051003
0.00558296
0.00600582
0.00637656
0.00670116
0.00698444
0.00723043
0.00744265
0.00762421
0.00777789
0.00790624
0.00801151
0.00809571
0.00816059
0.00820758
0.00823779
0.00825198
0.000133053
0.00121712
0.00228454
0.0031699
0.00391607
0.00455583
0.00511079
0.00559563
0.00602072
0.00639375
0.00672066
0.00700627
0.00725458
0.00746909
0.00765287
0.0078087
0.00793906
0.0080462
0.00813207
0.00819838
0.00824653
0.0082776
0.00829232
0.000133098
0.00121794
0.00228661
0.00317335
0.003921
0.00456233
0.00511895
0.00560552
0.00603241
0.00640728
0.00673607
0.00702357
0.00727377
0.00749015
0.00767575
0.00783332
0.00796533
0.00807397
0.00816119
0.00822866
0.00827775
0.0083095
0.00832465
0.000133131
0.00121856
0.00228817
0.00317596
0.00392476
0.00456731
0.00512524
0.00561318
0.0060415
0.00641785
0.00674815
0.00703717
0.0072889
0.00750678
0.00769386
0.00785284
0.00798617
0.00809603
0.00818434
0.00825274
0.00830257
0.00833488
0.00835035
0.000133156
0.00121902
0.00228933
0.00317792
0.00392759
0.0045711
0.00513004
0.00561906
0.00604851
0.00642604
0.00675754
0.00704778
0.00730073
0.00751982
0.00770807
0.00786818
0.00800257
0.00811341
0.00820258
0.00827172
0.00832216
0.0083549
0.00837064
0.000133173
0.00121935
0.00229019
0.00317938
0.00392972
0.00457396
0.00513369
0.00562355
0.00605388
0.00643233
0.00676478
0.00705599
0.0073099
0.00752995
0.00771914
0.00788015
0.00801538
0.00812699
0.00821686
0.00828658
0.00833749
0.00837057
0.00838652
0.000133186
0.0012196
0.00229083
0.00318046
0.00393131
0.0045761
0.00513643
0.00562694
0.00605796
0.00643713
0.00677032
0.00706228
0.00731696
0.00753777
0.00772769
0.0078894
0.00802531
0.00813753
0.00822794
0.00829812
0.0083494
0.00838275
0.00839886
0.000133195
0.00121978
0.00229129
0.00318126
0.00393248
0.00457769
0.00513848
0.00562949
0.00606103
0.00644075
0.00677453
0.00706708
0.00732235
0.00754374
0.00773424
0.00789651
0.00803294
0.00814563
0.00823647
0.00830702
0.00835858
0.00839214
0.00840838
0.000133201
0.0012199
0.00229162
0.00318183
0.00393333
0.00457886
0.00514
0.00563138
0.00606333
0.00644348
0.00677769
0.0070707
0.00732643
0.00754828
0.00773923
0.00790193
0.00803876
0.00815183
0.00824299
0.00831381
0.0083656
0.00839933
0.00841566
0.000133206
0.00121999
0.00229186
0.00318225
0.00393396
0.00457971
0.00514111
0.00563278
0.00606504
0.00644551
0.00678006
0.00707341
0.0073295
0.0075517
0.00774299
0.00790602
0.00804316
0.00815652
0.00824793
0.00831897
0.00837093
0.00840479
0.00842119
0.000133209
0.00122006
0.00229203
0.00318255
0.00393441
0.00458034
0.00514193
0.00563381
0.0060663
0.00644701
0.00678182
0.00707544
0.00733179
0.00755426
0.00774581
0.0079091
0.00804647
0.00816004
0.00825165
0.00832286
0.00837495
0.0084089
0.00842536
0.000133211
0.0012201
0.00229215
0.00318277
0.00393473
0.00458079
0.00514252
0.00563456
0.00606722
0.00644811
0.00678311
0.00707693
0.00733349
0.00755616
0.00774791
0.00791138
0.00804894
0.00816268
0.00825443
0.00832577
0.00837796
0.00841198
0.00842848
0.000133213
0.00122014
0.00229224
0.00318292
0.00393496
0.00458111
0.00514295
0.0056351
0.00606788
0.00644892
0.00678406
0.00707802
0.00733473
0.00755756
0.00774946
0.00791308
0.00805077
0.00816463
0.00825649
0.00832792
0.00838019
0.00841426
0.0084308
0.000133214
0.00122016
0.0022923
0.00318302
0.00393513
0.00458134
0.00514325
0.00563549
0.00606837
0.0064495
0.00678475
0.00707882
0.00733564
0.00755858
0.00775059
0.00791432
0.00805211
0.00816607
0.00825801
0.00832951
0.00838183
0.00841595
0.0084325
0.000133215
0.00122017
0.00229234
0.0031831
0.00393524
0.0045815
0.00514347
0.00563577
0.00606871
0.00644992
0.00678524
0.0070794
0.0073363
0.00755932
0.00775142
0.00791522
0.00805309
0.00816711
0.00825912
0.00833067
0.00838303
0.00841718
0.00843375
0.000133215
0.00122018
0.00229237
0.00318315
0.00393532
0.00458161
0.00514362
0.00563596
0.00606896
0.00645022
0.0067856
0.00707981
0.00733678
0.00755986
0.00775201
0.00791588
0.0080538
0.00816787
0.00825993
0.00833151
0.00838391
0.00841807
0.00843466
0.000133216
0.00122019
0.00229239
0.00318319
0.00393538
0.00458169
0.00514373
0.0056361
0.00606913
0.00645043
0.00678585
0.00708011
0.00733712
0.00756024
0.00775244
0.00791635
0.00805431
0.00816842
0.00826051
0.00833212
0.00838454
0.00841872
0.00843531
0.000133216
0.0012202
0.0022924
0.00318321
0.00393541
0.00458175
0.0051438
0.0056362
0.00606925
0.00645058
0.00678603
0.00708032
0.00733735
0.00756051
0.00775274
0.00791668
0.00805467
0.00816881
0.00826092
0.00833255
0.00838498
0.00841918
0.00843578
0.000133216
0.0012202
0.00229241
0.00318323
0.00393544
0.00458178
0.00514385
0.00563626
0.00606934
0.00645068
0.00678615
0.00708046
0.00733752
0.0075607
0.00775295
0.00791691
0.00805493
0.00816908
0.00826121
0.00833286
0.0083853
0.0084195
0.00843611
0.000133216
0.0012202
0.00229241
0.00318324
0.00393546
0.00458181
0.00514389
0.00563631
0.00606939
0.00645075
0.00678624
0.00708056
0.00733764
0.00756083
0.0077531
0.00791707
0.0080551
0.00816927
0.00826141
0.00833306
0.00838551
0.00841972
0.00843633
0.000133216
0.0012202
0.00229242
0.00318324
0.00393547
0.00458182
0.00514391
0.00563634
0.00606943
0.00645079
0.00678629
0.00708062
0.00733771
0.00756092
0.0077532
0.00791718
0.00805522
0.00816939
0.00826154
0.0083332
0.00838566
0.00841986
0.00843648
0.000133216
0.0012202
0.00229242
0.00318325
0.00393548
0.00458183
0.00514392
0.00563635
0.00606945
0.00645082
0.00678632
0.00708066
0.00733776
0.00756097
0.00775325
0.00791724
0.00805529
0.00816947
0.00826162
0.00833329
0.00838574
0.00841995
0.00843656
0.000133216
0.0012202
0.00229242
0.00318325
0.00393548
0.00458184
0.00514393
0.00563636
0.00606946
0.00645083
0.00678634
0.00708068
0.00733778
0.00756099
0.00775328
0.00791727
0.00805532
0.0081695
0.00826165
0.00833332
0.00838578
0.00841999
0.0084366
0.000171961
0.000158672
0.000158492
0.000171186
0.0015656
0.00149187
0.00149082
0.00156174
0.00289384
0.00283099
0.00282869
0.00288672
0.00389334
0.00385725
0.00385408
0.00388375
0.00467164
0.00465024
0.00464642
0.00466013
0.00529732
0.00528331
0.00527898
0.00528427
0.00581173
0.00580166
0.00579689
0.00579738
0.006241
0.00623317
0.00622801
0.0062255
0.00660253
0.00659604
0.00659053
0.00658598
0.00690854
0.00690288
0.00689705
0.00689103
0.00716805
0.00716292
0.0071568
0.00714966
0.00738805
0.00738326
0.00737687
0.00736886
0.00757415
0.00756959
0.00756297
0.00755424
0.00773105
0.00772664
0.0077198
0.0077105
0.00786273
0.00785842
0.00785139
0.00784161
0.00797268
0.00796843
0.00796123
0.00795105
0.00806393
0.00805972
0.00805238
0.00804187
0.00813918
0.008135
0.00812753
0.00811674
0.00820081
0.00819665
0.00818907
0.00817805
0.00825094
0.00824678
0.00823912
0.0082279
0.00829141
0.00828725
0.00827951
0.00826814
0.00832383
0.00831968
0.00831187
0.00830037
0.00834962
0.00834546
0.0083376
0.008326
0.00836996
0.00836581
0.0083579
0.00834621
0.00838589
0.00838173
0.00837379
0.00836204
0.00839827
0.00839411
0.00838614
0.00837433
0.00840781
0.00840365
0.00839566
0.00838381
0.00841512
0.00841095
0.00840294
0.00839106
0.00842066
0.00841649
0.00840847
0.00839656
0.00842484
0.00842067
0.00841264
0.00840071
0.00842797
0.0084238
0.00841576
0.00840381
0.00843029
0.00842612
0.00841807
0.00840611
0.00843201
0.00842783
0.00841978
0.00840781
0.00843326
0.00842908
0.00842103
0.00840905
0.00843417
0.00842999
0.00842193
0.00840995
0.00843482
0.00843065
0.00842258
0.0084106
0.00843529
0.00843111
0.00842305
0.00841106
0.00843562
0.00843144
0.00842337
0.00841139
0.00843584
0.00843166
0.0084236
0.00841161
0.00843599
0.00843181
0.00842374
0.00841175
0.00843607
0.00843189
0.00842383
0.00841184
0.00843611
0.00843193
0.00842386
0.00841188
0.000952133
0.00186934
0.00253912
0.00295165
0.00319347
0.00332784
0.00339137
0.00340413
0.00337662
0.00331373
0.00321674
0.00308424
0.00291226
0.00269371
0.00241679
0.00206156
0.00159262
0.000944103
0.000121934
0.00204805
0.00268222
0.00318079
0.00352353
0.00374031
0.00386462
0.00392081
0.00392414
0.00388318
0.00380192
0.00368105
0.00351861
0.00330993
0.003047
0.00271682
0.00229803
0.00175385
0.00101941
0.000127529
0.00309997
0.00348203
0.00382238
0.00407919
0.00425142
0.00435094
0.00439015
0.00437822
0.00432065
0.00421982
0.00407544
0.00388481
0.00364259
0.00334003
0.0029633
0.00249016
0.00188321
0.00107899
0.000131923
0.00398425
0.00420524
0.00442488
0.00460291
0.00472611
0.00479408
0.00481056
0.00477938
0.00470293
0.00458171
0.00441428
0.00419713
0.00392426
0.00358631
0.00316885
0.00264905
0.00198921
0.00112724
0.000135442
0.00470974
0.00483507
0.00496996
0.00508392
0.00516152
0.00519677
0.0051882
0.00513575
0.00503919
0.00489731
0.00470753
0.00446552
0.00416468
0.00379512
0.00334196
0.00278194
0.0020772
0.00116692
0.000138293
0.00530794
0.00537596
0.00545284
0.00551735
0.00555577
0.0055603
0.00552676
0.00545264
0.00533575
0.00517351
0.00496233
0.00469717
0.00437087
0.00397311
0.00348862
0.00289386
0.00215083
0.00119983
0.000140619
0.00580633
0.00583867
0.00587562
0.0059027
0.00590872
0.00588589
0.0058289
0.00573381
0.00559718
0.00541537
0.005184
0.00489744
0.00454806
0.00412519
0.00361325
0.00298843
0.00221269
0.00122725
0.000142523
0.00622531
0.00623434
0.00624325
0.00624198
0.00622166
0.00617517
0.00609692
0.00598228
0.00582702
0.0056268
0.00537666
0.0050705
0.00470033
0.00425516
0.00371919
0.00306841
0.00226472
0.00125013
0.000144083
0.00657969
0.00657274
0.00656142
0.00653847
0.00649682
0.00643019
0.00633309
0.00620066
0.00602823
0.00581101
0.00554366
0.00521972
0.00483091
0.00436605
0.00380911
0.00313596
0.00230843
0.00126922
0.000145358
0.00688041
0.00686202
0.00683568
0.0067959
0.00673695
0.0066533
0.00653976
0.00639141
0.00620343
0.00597077
0.00568782
0.00534789
0.00494252
0.00446034
0.00388519
0.00319283
0.00234504
0.0012851
0.000146398
0.00713583
0.00710893
0.00707114
0.00701812
0.00694507
0.00684708
0.0067193
0.00655692
0.00635506
0.00610855
0.00581162
0.00545746
0.00503747
0.00454016
0.00394928
0.0032405
0.00237557
0.00129826
0.000147242
0.00735256
0.00731914
0.00727243
0.00720883
0.00712422
0.00701418
0.00687416
0.00669952
0.0064854
0.00622661
0.00591731
0.0055506
0.0051178
0.00460736
0.00400297
0.00328023
0.00240089
0.00130909
0.000147924
0.00753599
0.00749746
0.00744367
0.00737153
0.00727739
0.00715722
0.00700675
0.00682148
0.00659665
0.00632708
0.00600692
0.00562924
0.00518532
0.00466358
0.00404766
0.00331313
0.00242175
0.00131796
0.000148472
0.00769068
0.00764806
0.00758858
0.00750948
0.00740745
0.00727878
0.00711941
0.006925
0.0066909
0.00641197
0.00608237
0.00569519
0.00524169
0.00471028
0.0040846
0.00334019
0.00243881
0.00132517
0.000148908
0.00782051
0.00777459
0.00771049
0.00762569
0.00751712
0.00738132
0.00721441
0.0070122
0.00677013
0.00648313
0.00614541
0.00575007
0.00528839
0.00474879
0.0041149
0.00336227
0.00245265
0.00133099
0.000149254
0.00792891
0.00788029
0.00781241
0.00772292
0.00760894
0.00746716
0.0072939
0.00708507
0.00683621
0.00654232
0.00619768
0.00579539
0.00532678
0.00478029
0.00413956
0.00338013
0.00246379
0.00133564
0.000149525
0.00801885
0.00796804
0.00789706
0.0078037
0.00768523
0.00753848
0.00735988
0.00714548
0.00689088
0.00659117
0.00624065
0.00583251
0.00535809
0.00480585
0.00415946
0.00339447
0.00247268
0.00133932
0.000149736
0.00809301
0.00804039
0.00796687
0.00787034
0.00774816
0.00759728
0.00741423
0.00719515
0.00693574
0.00663113
0.00627571
0.00586267
0.00538341
0.00482642
0.00417538
0.00340587
0.00247971
0.00134222
0.000149899
0.00815373
0.00809963
0.00802404
0.00792489
0.00779965
0.00764536
0.00745862
0.00723566
0.00697224
0.00666357
0.00630406
0.00588696
0.00540371
0.00484283
0.00418802
0.00341487
0.00248522
0.00134447
0.000150024
0.0082031
0.00814779
0.00807049
0.00796921
0.00784147
0.00768437
0.0074946
0.00726843
0.00700171
0.00668967
0.0063268
0.00590637
0.00541986
0.00485581
0.00419795
0.0034219
0.0024895
0.00134621
0.000150119
0.00824294
0.00818665
0.00810797
0.00800494
0.00787516
0.00771577
0.00752351
0.00729473
0.00702529
0.00671051
0.00634488
0.00592174
0.00543259
0.00486599
0.00420571
0.00342736
0.00249279
0.00134754
0.00015019
0.00827485
0.00821776
0.00813796
0.00803353
0.00790208
0.00774083
0.00754656
0.00731564
0.00704401
0.006727
0.00635915
0.00593382
0.00544255
0.00487391
0.0042117
0.00343154
0.00249531
0.00134855
0.000150244
0.00830022
0.00824248
0.00816177
0.00805621
0.00792343
0.00776068
0.00756478
0.00733215
0.00705874
0.00673994
0.0063703
0.00594323
0.00545026
0.00488002
0.0042163
0.00343474
0.00249721
0.00134931
0.000150283
0.00832022
0.00826197
0.00818054
0.00807407
0.00794023
0.00777628
0.00757908
0.00734507
0.00707025
0.00675001
0.00637896
0.0059505
0.0054562
0.0048847
0.00421979
0.00343715
0.00249864
0.00134987
0.000150313
0.00833588
0.00827721
0.00819522
0.00808802
0.00795333
0.00778843
0.0075902
0.0073551
0.00707916
0.00675779
0.00638562
0.00595607
0.00546073
0.00488824
0.00422243
0.00343896
0.00249971
0.00135029
0.000150334
0.00834804
0.00828905
0.0082066
0.00809884
0.00796348
0.00779783
0.00759878
0.00736283
0.00708601
0.00676375
0.0063907
0.0059603
0.00546415
0.00489091
0.0042244
0.0034403
0.00250049
0.0013506
0.000150349
0.00835741
0.00829817
0.00821536
0.00810716
0.00797128
0.00780504
0.00760535
0.00736874
0.00709123
0.00676828
0.00639455
0.0059635
0.00546673
0.0048929
0.00422587
0.00344129
0.00250107
0.00135082
0.00015036
0.00836458
0.00830513
0.00822205
0.0081135
0.00797722
0.00781052
0.00761035
0.00737321
0.00709517
0.0067717
0.00639744
0.00596589
0.00546864
0.00489438
0.00422695
0.00344202
0.00250149
0.00135098
0.000150368
0.00837002
0.00831042
0.00822713
0.00811831
0.00798171
0.00781467
0.00761412
0.00737658
0.00709813
0.00677425
0.0063996
0.00596766
0.00547006
0.00489547
0.00422774
0.00344255
0.00250179
0.00135109
0.000150374
0.00837411
0.0083144
0.00823095
0.00812193
0.00798509
0.00781778
0.00761693
0.0073791
0.00710034
0.00677615
0.0064012
0.00596897
0.0054711
0.00489626
0.00422831
0.00344293
0.00250201
0.00135118
0.000150378
0.00837718
0.00831738
0.0082338
0.00812462
0.0079876
0.00782009
0.00761903
0.00738096
0.00710197
0.00677755
0.00640237
0.00596993
0.00547186
0.00489684
0.00422872
0.0034432
0.00250216
0.00135123
0.00015038
0.00837945
0.00831959
0.00823591
0.00812662
0.00798946
0.0078218
0.00762057
0.00738234
0.00710317
0.00677857
0.00640323
0.00597062
0.0054724
0.00489725
0.00422902
0.00344339
0.00250227
0.00135127
0.000150382
0.00838113
0.00832121
0.00823747
0.00812809
0.00799083
0.00782305
0.0076217
0.00738334
0.00710404
0.00677932
0.00640385
0.00597113
0.0054728
0.00489755
0.00422923
0.00344353
0.00250234
0.0013513
0.000150384
0.00838236
0.0083224
0.00823861
0.00812916
0.00799183
0.00782396
0.00762252
0.00738406
0.00710467
0.00677985
0.00640429
0.00597149
0.00547308
0.00489776
0.00422938
0.00344363
0.0025024
0.00135132
0.000150385
0.00838325
0.00832326
0.00823943
0.00812994
0.00799255
0.00782462
0.00762312
0.00738459
0.00710513
0.00678024
0.00640461
0.00597174
0.00547328
0.00489791
0.00422948
0.00344369
0.00250243
0.00135134
0.000150385
0.00838389
0.00832388
0.00824002
0.00813049
0.00799307
0.00782509
0.00762354
0.00738496
0.00710545
0.00678051
0.00640484
0.00597192
0.00547342
0.00489801
0.00422955
0.00344374
0.00250246
0.00135134
0.000150386
0.00838434
0.00832432
0.00824044
0.00813089
0.00799343
0.00782543
0.00762384
0.00738523
0.00710568
0.0067807
0.00640499
0.00597205
0.00547351
0.00489808
0.0042296
0.00344377
0.00250248
0.00135135
0.000150386
0.00838466
0.00832463
0.00824074
0.00813117
0.00799369
0.00782566
0.00762405
0.00738541
0.00710584
0.00678084
0.0064051
0.00597214
0.00547358
0.00489813
0.00422964
0.00344379
0.00250249
0.00135136
0.000150386
0.00838488
0.00832485
0.00824094
0.00813136
0.00799387
0.00782582
0.00762419
0.00738554
0.00710594
0.00678093
0.00640518
0.0059722
0.00547363
0.00489816
0.00422966
0.00344381
0.0025025
0.00135136
0.000150386
0.00838502
0.00832499
0.00824107
0.00813148
0.00799398
0.00782593
0.00762429
0.00738562
0.00710602
0.00678099
0.00640523
0.00597223
0.00547366
0.00489818
0.00422967
0.00344382
0.0025025
0.00135136
0.000150386
0.00838511
0.00832507
0.00824115
0.00813156
0.00799405
0.00782599
0.00762434
0.00738567
0.00710606
0.00678102
0.00640526
0.00597226
0.00547367
0.0048982
0.00422968
0.00344382
0.0025025
0.00135136
0.000150386
0.00838515
0.00832511
0.00824119
0.0081316
0.00799409
0.00782602
0.00762437
0.00738569
0.00710608
0.00678104
0.00640527
0.00597227
0.00547368
0.0048982
0.00422969
0.00344382
0.00250251
0.00135136
0.000150386
)
;

boundaryField
{
    leftWall
    {
        type            nutkWallFunction;
        blending        stepwise;
        value           nonuniform List<scalar> 
50
(
0
0
1.52314e-06
2.91961e-06
3.96782e-06
4.7976e-06
5.47942e-06
6.05426e-06
6.81965e-06
7.60636e-06
8.2164e-06
8.69894e-06
9.08504e-06
9.39592e-06
9.64684e-06
9.84934e-06
1.00124e-05
1.01432e-05
1.02476e-05
1.03303e-05
1.03956e-05
1.04466e-05
1.04861e-05
1.05166e-05
1.05398e-05
1.05574e-05
1.05706e-05
1.05804e-05
1.05877e-05
1.0593e-05
1.05968e-05
1.05996e-05
1.06016e-05
1.06031e-05
1.06041e-05
1.06048e-05
1.06053e-05
1.06056e-05
1.06058e-05
1.0606e-05
1.06061e-05
1.06062e-05
1.06062e-05
1.06063e-05
1.06063e-05
1.06063e-05
1.06063e-05
1.06063e-05
1.06063e-05
1.06063e-05
)
;
    }
    rightWall
    {
        type            nutkWallFunction;
        blending        stepwise;
        value           nonuniform List<scalar> 
50
(
0
1.13139e-06
3.25931e-06
4.7819e-06
5.93217e-06
6.84459e-06
7.59465e-06
8.22702e-06
9.06886e-06
9.93392e-06
1.06047e-05
1.11353e-05
1.15602e-05
1.19026e-05
1.21794e-05
1.24032e-05
1.25839e-05
1.27292e-05
1.28454e-05
1.2938e-05
1.30112e-05
1.30687e-05
1.31135e-05
1.31481e-05
1.31746e-05
1.31948e-05
1.32101e-05
1.32215e-05
1.32299e-05
1.32362e-05
1.32407e-05
1.3244e-05
1.32464e-05
1.32481e-05
1.32493e-05
1.32501e-05
1.32507e-05
1.32512e-05
1.32514e-05
1.32516e-05
1.32518e-05
1.32519e-05
1.32519e-05
1.3252e-05
1.3252e-05
1.3252e-05
1.3252e-05
1.3252e-05
1.3252e-05
1.3252e-05
)
;
    }
    lowerWall
    {
        type            nutkWallFunction;
        blending        stepwise;
        value           nonuniform List<scalar> 
62
(
0
0
0
0
0
0
0
0
0
0
0
0
0
0
0
0
0
0
0
0
0
0
0
0
7.95168e-07
3.30856e-06
5.16282e-06
6.7306e-06
8.3167e-06
1.04549e-05
1.45231e-05
1.65208e-05
1.45077e-05
1.44822e-05
1.64104e-05
0
2.45935e-06
5.18171e-06
7.21941e-06
8.96278e-06
1.07584e-05
1.32007e-05
1.76507e-05
0
0
0
0
0
0
0
0
0
0
0
0
0
0
0
0
0
0
0
)
;
    }
    atmosphere
    {
        type            calculated;
        value           nonuniform List<scalar> 
46
(
0.000133216
0.0012202
0.00229242
0.00318325
0.00393548
0.00458184
0.00514393
0.00563636
0.00606946
0.00645083
0.00678634
0.00708068
0.00733778
0.00756099
0.00775328
0.00791727
0.00805532
0.0081695
0.00826165
0.00833332
0.00838578
0.00841999
0.0084366
0.00843611
0.00843193
0.00842386
0.00841188
0.00838515
0.00832511
0.00824119
0.0081316
0.00799409
0.00782602
0.00762437
0.00738569
0.00710608
0.00678104
0.00640527
0.00597227
0.00547368
0.0048982
0.00422969
0.00344382
0.00250251
0.00135136
0.000150386
)
;
    }
    defaultFaces
    {
        type            empty;
    }
}


// ************************************************************************* //
