/*--------------------------------*- C++ -*----------------------------------*\
| =========                 |                                                 |
| \\      /  F ield         | OpenFOAM: The Open Source CFD Toolbox           |
|  \\    /   O peration     | Version:  2406                                  |
|   \\  /    A nd           | Website:  www.openfoam.com                      |
|    \\/     M anipulation  |                                                 |
\*---------------------------------------------------------------------------*/
FoamFile
{
    version     2.0;
    format      ascii;
    arch        "LSB;label=32;scalar=64";
    class       surfaceScalarField;
    location    "0.95";
    object      phi;
}
// * * * * * * * * * * * * * * * * * * * * * * * * * * * * * * * * * * * * * //

dimensions      [0 3 -1 0 0 0 0];

oriented        oriented;

internalField   nonuniform List<scalar> 
4432
(
-5.14404e-304
-2.76661e-304
-1.00696e-303
-1.25518e-303
-1.50071e-303
-1.6535e-303
-1.99601e-303
-1.62134e-303
-2.49633e-303
-1.11367e-303
-2.99539e-303
-4.29199e-306
-3.47226e-303
1.90551e-303
-3.87755e-303
4.91293e-303
-4.09186e-303
9.47214e-303
-3.74931e-303
1.63235e-302
-1.44286e-303
2.67397e-302
1.03438e-302
4.22155e-302
1.59585e-302
6.2901e-302
-1.37386e-303
2.71846e-302
-8.4626e-303
6.85801e-303
-6.57405e-303
-5.5378e-304
-4.44981e-303
-2.0934e-303
-2.93175e-303
-1.97663e-303
-1.89732e-303
-1.38962e-303
-1.18917e-303
-7.57729e-304
-6.89138e-304
-2.17497e-304
-3.01481e-304
1.668e-304
2.64699e-304
-1.5856e-303
-5.13208e-304
-3.07406e-303
-2.26518e-303
-4.54753e-303
-3.04694e-303
-6.02669e-303
-2.98834e-303
-7.5166e-303
-1.98093e-303
-8.99585e-303
2.22862e-304
-1.04002e-302
4.00793e-303
-1.15841e-302
9.94039e-303
-1.22253e-302
1.88677e-302
-1.15543e-302
3.21137e-302
-7.33192e-303
5.18816e-302
1.40454e-303
8.21706e-302
1.19601e-302
1.25688e-301
-6.01586e-303
5.20619e-302
-1.17524e-302
9.45195e-303
-8.85147e-303
3.10081e-304
-6.2715e-303
-1.74251e-303
-4.3274e-303
-1.85805e-303
-2.93557e-303
-1.35433e-303
-1.94445e-303
-7.19804e-304
-1.21997e-303
-1.24538e-304
-6.24362e-304
3.5287e-304
5.32683e-304
-2.66278e-303
-7.94294e-304
-5.19001e-303
-3.23672e-303
-7.69693e-303
-4.3984e-303
-1.02203e-302
-4.3304e-303
-1.27723e-302
-2.84632e-303
-1.53257e-302
4.22649e-304
-1.77898e-302
6.0365e-303
-1.99609e-302
1.48097e-302
-2.14137e-302
2.79412e-302
-2.12632e-302
4.72721e-302
-1.73119e-302
7.58353e-302
-1.30929e-302
1.19335e-301
3.4083e-303
1.81314e-301
-1.17764e-302
7.1693e-302
-1.39481e-302
1.17315e-302
-1.04521e-302
1.26132e-303
-7.59945e-303
-1.20621e-303
-5.40121e-303
-1.55914e-303
-3.77887e-303
-1.18335e-303
-2.5938e-303
-5.98154e-304
-1.70829e-303
6.39879e-306
-9.55591e-304
5.46066e-304
8.11013e-304
-3.78059e-303
-1.09706e-303
-7.4054e-303
-4.21854e-303
-1.10129e-302
-5.77699e-303
-1.46561e-302
-5.73027e-303
-1.83592e-302
-3.80357e-303
-2.20985e-302
4.91304e-304
-2.5776e-302
7.88019e-303
-2.9168e-302
1.94033e-302
-3.18288e-302
3.6572e-302
-3.29259e-302
6.1671e-302
-3.05716e-302
9.83924e-302
-3.16885e-302
1.53353e-301
-7.41016e-303
2.28964e-301
-1.77084e-302
8.62827e-302
-1.62225e-302
1.40966e-302
-1.21026e-302
2.20514e-303
-8.92543e-303
-6.67606e-304
-6.4746e-303
-1.23871e-303
-4.63778e-303
-9.9184e-304
-3.27637e-303
-4.6916e-304
-2.24679e-303
1.27294e-304
-1.34925e-303
7.16855e-304
1.08154e-303
-4.96779e-303
-1.42463e-303
-9.76636e-303
-5.26015e-303
-1.45571e-302
-7.25613e-303
-1.94107e-302
-7.2773e-303
-2.43683e-302
-4.95541e-303
-2.94194e-302
3.16429e-304
-3.44755e-302
9.41929e-303
-3.93244e-302
2.35987e-302
-4.35553e-302
4.46378e-302
-4.64587e-302
7.51867e-302
-4.64412e-302
1.19411e-301
-5.32072e-302
1.84297e-301
-1.98286e-302
2.70672e-301
-2.39962e-302
9.85548e-302
-1.8862e-302
1.6475e-302
-1.39658e-302
3.11118e-303
-1.03752e-302
-1.70397e-304
-7.63437e-303
-9.43733e-304
-5.56999e-303
-8.18952e-304
-4.03072e-303
-3.6424e-304
-2.86402e-303
2.07843e-304
-1.82773e-303
8.24963e-304
1.2781e-303
-6.24908e-303
-1.78697e-303
-1.2316e-302
-6.40568e-303
-1.83888e-302
-8.90461e-303
-2.45584e-302
-9.05925e-303
-3.08871e-302
-6.40412e-303
-3.73859e-302
-2.1575e-304
-4.39901e-302
1.05336e-302
-5.05218e-302
2.7273e-302
-5.66355e-302
5.20168e-302
-6.17622e-302
8.76987e-302
-6.45083e-302
1.3879e-301
-7.702e-302
2.12381e-301
-3.36433e-302
3.08221e-301
-3.07905e-302
1.09645e-301
-2.19163e-302
1.8826e-302
-1.60853e-302
3.97939e-303
-1.19924e-302
2.7818e-304
-8.91359e-303
-6.88878e-304
-6.5969e-303
-6.80631e-304
-4.86929e-303
-2.99708e-304
-3.56975e-303
2.2498e-304
-2.41173e-303
8.21993e-304
1.27497e-303
-7.6466e-303
-2.19893e-303
-1.50951e-302
-7.69684e-303
-2.25657e-302
-1.07907e-302
-3.01715e-302
-1.11656e-302
-3.8e-302
-8.25646e-303
-4.60905e-302
-1.22404e-303
-5.44127e-302
1.10966e-302
-6.28375e-302
3.02986e-302
-7.10998e-302
5.85865e-302
-7.8767e-302
9.90985e-302
-8.45737e-302
1.56469e-301
-1.0289e-301
2.37764e-301
-4.88354e-302
3.42367e-301
-3.81585e-302
1.19851e-301
-2.5363e-302
2.1128e-302
-1.84646e-302
4.81937e-303
-1.37903e-302
6.84086e-304
-1.03247e-302
-4.75449e-304
-7.72499e-303
-5.81922e-304
-5.79057e-303
-2.82694e-304
-4.35665e-303
1.64527e-304
-3.11992e-303
6.53934e-304
8.74474e-304
-9.18066e-303
-2.67487e-303
-1.81432e-302
-9.163e-303
-2.71445e-302
-1.29662e-302
-3.63214e-302
-1.367e-302
-4.57903e-302
-1.06064e-302
-5.56235e-302
-2.82103e-303
-6.5832e-302
1.09792e-302
-7.6344e-302
3.25329e-302
-8.69802e-302
6.4195e-302
-9.74383e-302
1.09237e-301
-1.06447e-301
1.72332e-301
-1.30958e-301
2.603e-301
-6.52106e-302
3.71654e-301
-4.61176e-302
1.28839e-301
-2.91431e-302
2.33734e-302
-2.10767e-302
5.64883e-303
-1.5757e-302
1.06535e-303
-1.18604e-302
-2.91465e-304
-8.94406e-303
-5.15283e-304
-6.77415e-303
-3.07312e-304
-5.18337e-303
3.36334e-305
-3.96194e-303
3.33502e-304
2.11403e-304
-1.45387e-306
-7.27714e-306
-2.04457e-306
-2.54148e-305
-1.72341e-306
-2.25862e-305
-1.76232e-306
-1.37998e-305
-1.6956e-306
-7.04478e-306
-1.41299e-306
-3.22012e-306
-1.03971e-306
-1.34141e-306
-6.95837e-307
-4.94236e-307
-4.32915e-307
-1.40294e-307
-2.5384e-307
-7.79285e-309
-1.41346e-307
3.13238e-308
-7.49661e-308
3.47636e-308
-3.78306e-308
2.72133e-308
-1.80627e-308
1.83267e-308
-8.05836e-309
1.12082e-308
-3.27221e-309
6.33021e-309
-1.1361e-309
3.2701e-309
-2.74717e-310
1.42068e-309
3.17471e-310
-2.69879e-306
-1.81147e-305
-4.68296e-306
-4.4255e-305
-4.80075e-306
-3.57909e-305
-4.65809e-306
-2.1126e-305
-4.05088e-306
-1.057e-305
-3.15474e-306
-4.70975e-306
-2.24114e-306
-1.86354e-306
-1.47987e-306
-6.04969e-307
-9.21129e-307
-1.01844e-307
-5.45437e-307
6.73394e-308
-3.08848e-307
1.00978e-307
-1.67548e-307
8.7324e-308
-8.6978e-308
6.28888e-308
-4.29976e-308
4.09016e-308
-2.00279e-308
2.47399e-308
-8.59585e-309
1.40649e-308
-3.22193e-309
7.46791e-309
-8.65225e-310
3.47814e-309
9.3929e-310
-4.69926e-306
-3.79017e-305
-8.55731e-306
-6.9779e-305
-9.21241e-306
-5.1299e-305
-8.58777e-306
-2.89602e-305
-7.06989e-306
-1.41078e-305
-5.28118e-306
-6.1168e-306
-3.65599e-306
-2.3025e-306
-2.382e-306
-6.49035e-307
-1.47614e-306
-1.37604e-308
-8.75933e-307
1.77819e-307
-4.99517e-307
1.94931e-307
-2.74054e-307
1.56093e-307
-1.44449e-307
1.09104e-307
-7.28174e-308
7.01857e-308
-3.4777e-308
4.24744e-308
-1.54288e-308
2.44087e-308
-6.06251e-309
1.32835e-308
-1.75515e-309
6.51579e-309
2.0118e-309
-9.06715e-306
-7.51903e-305
-1.53046e-305
-1.0709e-304
-1.62161e-305
-7.13317e-305
-1.4427e-305
-3.83099e-305
-1.13599e-305
-1.81267e-305
-8.2093e-306
-7.6574e-306
-5.56212e-306
-2.75408e-306
-3.58035e-306
-6.65155e-307
-2.20777e-306
1.11435e-307
-1.3106e-306
3.22272e-307
-7.50855e-307
3.158e-307
-4.15326e-307
2.44494e-307
-2.21441e-307
1.68858e-307
-1.13321e-307
1.08432e-307
-5.51847e-308
6.59643e-308
-2.51263e-308
3.83764e-308
-1.02459e-308
2.13587e-308
-3.1508e-309
1.09279e-308
3.7384e-309
-1.87324e-305
-1.45385e-304
-2.72771e-305
-1.60488e-304
-2.74319e-305
-9.67694e-305
-2.31509e-305
-4.94535e-305
-1.7507e-305
-2.27756e-305
-1.23007e-305
-9.41755e-306
-8.18613e-306
-3.2643e-306
-5.2166e-306
-6.75426e-307
-3.20344e-306
2.64832e-307
-1.90241e-306
4.98432e-307
-1.09425e-306
4.64254e-307
-6.09532e-307
3.54195e-307
-3.28205e-307
2.43902e-307
-1.7013e-307
1.57116e-307
-8.42344e-308
9.63322e-308
-3.92064e-308
5.6773e-308
-1.6496e-308
3.2254e-308
-5.33584e-309
1.7099e-308
6.37128e-309
-3.99716e-305
-2.75706e-304
-4.82776e-305
-2.32585e-304
-4.50396e-305
-1.2741e-304
-3.59176e-305
-6.23012e-305
-2.61552e-305
-2.80906e-305
-1.79351e-305
-1.14477e-305
-1.17604e-305
-3.86773e-306
-7.43503e-306
-6.98535e-307
-4.5526e-306
4.38158e-307
-2.70619e-306
7.03786e-307
-1.56279e-306
6.40537e-307
-8.76262e-307
4.8649e-307
-4.76081e-307
3.35725e-307
-2.49645e-307
2.17555e-307
-1.25431e-307
1.3461e-307
-5.95197e-308
8.03531e-308
-2.57357e-308
4.64948e-308
-8.70055e-309
2.53761e-308
1.01448e-308
-8.58139e-305
-5.26919e-304
-8.44208e-305
-3.20155e-304
-7.18347e-305
-1.61371e-304
-5.40659e-305
-7.64089e-305
-3.80303e-305
-3.4027e-305
-2.55429e-305
-1.37785e-305
-1.6552e-305
-4.596e-306
-1.04041e-305
-7.55319e-307
-6.36129e-306
6.19819e-307
-3.78799e-306
9.32713e-307
-2.19698e-306
8.42414e-307
-1.23987e-306
6.40857e-307
-6.79393e-307
4.44549e-307
-3.60077e-307
2.90205e-307
-1.83343e-307
1.81251e-307
-8.85127e-308
1.09475e-307
-3.91998e-308
6.43158e-308
-1.37817e-308
3.58645e-308
1.50944e-308
-1.79774e-304
-7.74604e-304
-1.44877e-304
-4.00425e-304
-1.10407e-304
-1.93895e-304
-7.8665e-305
-9.05967e-305
-5.36957e-305
-4.02101e-305
-3.54621e-305
-1.62708e-305
-2.27744e-305
-5.39478e-306
-1.42603e-305
-8.25403e-307
-8.71662e-306
8.1626e-307
-5.20281e-306
1.18619e-306
-3.03099e-306
1.069e-306
-1.72119e-306
8.1601e-307
-9.50569e-307
5.69208e-307
-5.08656e-307
3.74151e-307
-2.62056e-307
2.35571e-307
-1.28414e-307
1.43624e-307
-5.80453e-308
8.53034e-308
-2.11397e-308
4.81925e-308
2.08254e-308
-2.5055e-302
-3.88975e-303
-4.95722e-302
-1.28363e-302
-7.42272e-302
-1.85491e-302
-9.93978e-302
-2.0385e-302
-1.25436e-301
-1.74537e-302
-1.52619e-301
-8.57154e-303
-1.81122e-301
7.79508e-303
-2.10994e-301
3.36228e-302
-2.4214e-301
7.14712e-302
-2.7432e-301
1.24695e-301
-3.02502e-301
1.97747e-301
-3.80688e-301
2.96433e-301
-1.95882e-301
4.16337e-301
-1.2599e-301
1.43235e-301
-7.53169e-302
2.75812e-302
-5.40374e-302
7.2526e-303
-4.04268e-302
1.78142e-303
-3.05916e-302
2.23955e-305
-2.32362e-302
-4.44417e-304
-1.77161e-302
-4.3014e-304
-1.36007e-302
-3.01905e-304
-1.05077e-302
-3.02956e-304
-6.95183e-304
-7.345e-303
-3.30455e-302
-5.41756e-303
-6.54477e-302
-1.74237e-302
-9.80998e-302
-2.57027e-302
-1.31526e-301
-2.93859e-302
-1.66251e-301
-2.73682e-302
-2.02744e-301
-1.82583e-302
-2.41406e-301
-3.27419e-304
-2.82557e-301
2.85604e-302
-3.26432e-301
7.10434e-302
-3.7319e-301
1.30378e-301
-4.16639e-301
2.10578e-301
-5.25738e-301
3.1633e-301
-2.82367e-301
4.41297e-301
-1.66445e-301
1.51859e-301
-9.47506e-302
3.05258e-302
-6.71596e-302
8.34626e-303
-5.00547e-302
2.21248e-303
-3.78722e-302
1.49713e-304
-2.87606e-302
-4.98821e-304
-2.18182e-302
-6.21178e-304
-1.6454e-302
-6.06794e-304
-1.21671e-302
-6.6778e-304
-9.17656e-304
-8.38244e-303
-4.14894e-302
-7.38094e-303
-8.21806e-302
-2.3321e-302
-1.23246e-301
-3.50646e-302
-1.65379e-301
-4.15258e-302
-2.09295e-301
-4.13925e-302
-2.55664e-301
-3.30799e-302
-3.05104e-301
-1.46946e-302
-3.58167e-301
1.60134e-302
-4.15336e-301
6.16982e-302
-4.77026e-301
1.25459e-301
-5.3612e-301
2.1086e-301
-6.74515e-301
3.21664e-301
-3.72306e-301
4.5028e-301
-2.08963e-301
1.55677e-301
-1.15459e-301
3.19226e-302
-8.08815e-302
8.65972e-303
-5.99262e-302
2.17017e-303
-4.51809e-302
-2.81073e-305
-3.41819e-302
-7.40473e-304
-2.57553e-302
-8.96243e-304
-1.91735e-302
-8.8391e-304
-1.3899e-302
-8.81517e-304
-9.38102e-304
-9.52131e-303
-5.0397e-302
-9.91755e-303
-9.97692e-302
-3.09393e-302
-1.49631e-301
-4.73028e-302
-2.00866e-301
-5.77056e-302
-2.54391e-301
-6.06274e-302
-3.1108e-301
-5.42957e-302
-3.71751e-301
-3.66622e-302
-4.3715e-301
-5.37962e-303
-5.07942e-301
4.22151e-302
-5.84699e-301
1.09088e-301
-6.59247e-301
1.98466e-301
-8.26443e-301
3.1349e-301
-4.65001e-301
4.45834e-301
-2.53482e-301
1.55382e-301
-1.37425e-301
3.16672e-302
-9.52551e-302
8.03408e-303
-7.01255e-302
1.52285e-303
-5.263e-302
-6.05271e-304
-3.96461e-302
-1.23261e-303
-2.97123e-302
-1.30233e-303
-2.19616e-302
-1.193e-303
-1.58018e-302
-1.0617e-303
-9.44703e-304
-1.08272e-302
-5.97513e-302
-1.31767e-302
-1.18167e-301
-4.07175e-302
-1.77171e-301
-6.31352e-302
-2.37854e-301
-7.88979e-302
-3.0135e-301
-8.62667e-302
-3.68741e-301
-8.32731e-302
-4.41034e-301
-6.77097e-302
-5.19146e-301
-3.71214e-302
-6.03882e-301
1.119e-302
-6.95922e-301
8.01311e-302
-7.85979e-301
1.72749e-301
-9.81917e-301
2.91874e-301
-5.60915e-301
4.28787e-301
-3.00125e-301
1.5101e-301
-1.60611e-301
2.95688e-302
-1.1029e-301
6.29411e-303
-8.0695e-302
1.30792e-304
-6.02856e-302
-1.6881e-303
-4.5234e-302
-2.05734e-303
-3.37688e-302
-1.91077e-303
-2.48645e-302
-1.6108e-303
-1.78434e-302
-1.29975e-303
-1.01345e-303
-1.2246e-302
-6.95104e-302
-1.73238e-302
-1.37281e-301
-5.31393e-302
-2.05721e-301
-8.33531e-302
-2.76153e-301
-1.06178e-301
-3.49951e-301
-1.19632e-301
-4.28413e-301
-1.21532e-301
-5.1274e-301
-1.09494e-301
-6.04007e-301
-8.09327e-302
-7.03144e-301
-3.30674e-302
-8.10918e-301
3.70372e-302
-9.16915e-301
1.32415e-301
-1.14203e-300
2.55856e-301
-6.6094e-301
3.9849e-301
-3.49123e-301
1.42013e-301
-1.84995e-301
2.52746e-302
-1.25973e-301
3.19511e-303
-9.16413e-302
-2.18377e-303
-6.81691e-302
-3.40832e-303
-5.0972e-302
-3.31592e-303
-3.79417e-302
-2.80541e-303
-2.78739e-302
-2.21281e-303
-1.99828e-302
-1.66213e-303
-1.18314e-303
-1.37341e-302
-7.95978e-302
-2.25465e-302
-1.56952e-301
-6.87491e-302
-2.35048e-301
-1.08848e-301
-3.15477e-301
-1.40756e-301
-3.99881e-301
-1.62211e-301
-4.898e-301
-1.70787e-301
-5.86641e-301
-1.63902e-301
-6.91641e-301
-1.38811e-301
-8.05849e-301
-9.26088e-302
-9.30121e-301
-2.22424e-302
-1.05291e-300
7.5452e-302
-1.30813e-300
2.0346e-301
-7.6615e-301
3.52941e-301
-4.00761e-301
1.27262e-301
-2.10559e-301
1.82282e-302
-1.42272e-301
-1.60559e-303
-1.02942e-301
-5.65187e-303
-7.62683e-302
-5.92812e-303
-5.68512e-302
-5.12644e-303
-4.22173e-302
-4.07619e-303
-3.09649e-302
-3.06962e-303
-2.21861e-302
-2.20087e-303
-1.48126e-303
-1.52628e-302
-8.98843e-302
-2.9063e-302
-1.76913e-301
-8.81745e-302
-2.64769e-301
-1.40645e-301
-3.55358e-301
-1.84018e-301
-4.50638e-301
-2.15701e-301
-5.52425e-301
-2.32992e-301
-6.6235e-301
-2.33088e-301
-7.81824e-301
-2.13073e-301
-9.12026e-301
-1.69881e-301
-1.05389e-300
-1.00283e-301
-1.19475e-300
-8.68738e-304
-1.48152e-300
1.31724e-301
-8.7757e-301
2.88852e-301
-4.5531e-301
1.05027e-301
-2.37273e-301
7.64723e-303
-1.5913e-301
-8.55787e-303
-1.14547e-301
-1.05592e-302
-8.4545e-302
-9.43662e-303
-6.28404e-302
-7.618e-303
-4.65666e-302
-5.81393e-303
-3.4108e-302
-4.2458e-303
-2.44248e-302
-2.9592e-303
-1.93102e-303
-1.68112e-302
-1.00158e-301
-3.71336e-302
-1.96736e-301
-1.12154e-301
-2.94269e-301
-1.79942e-301
-3.95047e-301
-2.37576e-301
-5.01406e-301
-2.8206e-301
-6.15478e-301
-3.10379e-301
-7.39145e-301
-3.1951e-301
-8.74009e-301
-3.06367e-301
-1.02138e-300
-2.67729e-301
-1.18228e-300
-2.00162e-301
-1.3429e-300
-9.99504e-302
-1.66312e-300
3.67792e-302
-9.95972e-301
2.0172e-301
-5.12944e-301
7.29595e-302
-2.65055e-301
-7.4777e-303
-1.76456e-301
-1.82094e-302
-1.26381e-301
-1.7233e-302
-9.29384e-302
-1.41367e-302
-6.88915e-302
-1.09197e-302
-5.09499e-302
-8.10284e-303
-3.72698e-302
-5.79681e-303
-2.66723e-302
-3.9722e-303
-2.5518e-303
-1.83603e-302
-1.10086e-301
-4.70782e-302
-2.15746e-301
-1.41582e-301
-3.22587e-301
-2.28178e-301
-4.33374e-301
-3.03332e-301
-5.50897e-301
-3.63558e-301
-6.77652e-301
-4.05505e-301
-8.15794e-301
-4.25945e-301
-9.67117e-301
-4.21672e-301
-1.13306e-300
-3.89355e-301
-1.31473e-300
-3.25393e-301
-1.4972e-300
-2.25759e-301
-1.85317e-300
-8.60184e-302
-1.12162e-300
8.5979e-302
-5.73633e-301
2.81253e-302
-2.9374e-301
-2.83534e-302
-1.94106e-301
-3.11704e-302
-1.38333e-301
-2.60099e-302
-1.01366e-301
-2.02197e-302
-7.49416e-302
-1.51425e-302
-5.53185e-302
-1.10088e-302
-4.04126e-302
-7.76252e-303
-2.88999e-302
-5.26367e-303
-3.35681e-303
-1.98905e-302
-1.19149e-301
-5.93053e-302
-2.32911e-301
-1.77572e-301
-3.4826e-301
-2.87112e-301
-4.68571e-301
-3.83571e-301
-5.97172e-301
-4.62862e-301
-7.36958e-301
-5.21291e-301
-8.90361e-301
-5.55498e-301
-1.05935e-300
-5.6226e-301
-1.24547e-300
-5.38251e-301
-1.44989e-300
-4.79799e-301
-1.65656e-300
-3.82654e-301
-2.05093e-300
-2.41859e-301
-1.25404e-300
-6.47483e-302
-6.37034e-301
-3.28918e-302
-3.23037e-301
-5.63e-302
-2.11876e-301
-4.80404e-302
-1.50255e-301
-3.71786e-302
-1.09719e-301
-2.78245e-302
-8.091e-302
-2.03523e-302
-5.96117e-302
-1.45628e-302
-4.34904e-302
-1.01577e-302
-3.10741e-302
-6.8407e-303
-4.34948e-303
-2.13785e-302
-1.26556e-301
-7.43626e-302
-2.46662e-301
-2.21566e-301
-3.69109e-301
-3.5897e-301
-4.98046e-301
-4.8109e-301
-6.37424e-301
-5.8312e-301
-7.90537e-301
-6.61074e-301
-9.60044e-301
-7.11602e-301
-1.14803e-300
-7.31652e-301
-1.35608e-300
-7.18086e-301
-1.58541e-300
-6.67348e-301
-1.81881e-300
-5.75137e-301
-2.25435e-300
-4.36154e-301
-1.39172e-300
-2.5723e-301
-7.0236e-301
-1.13743e-301
-3.52496e-301
-9.25771e-302
-2.29478e-301
-6.92774e-302
-1.61952e-301
-5.08902e-302
-1.17858e-301
-3.69801e-302
-8.66932e-302
-2.65349e-302
-6.37515e-302
-1.87408e-302
-4.64448e-302
-1.29604e-302
-3.31518e-302
-8.68711e-303
-5.51931e-303
-2.27939e-302
-1.31082e-301
-9.30363e-302
-2.54619e-301
-2.75514e-301
-3.81909e-301
-4.46643e-301
-5.1808e-301
-5.99372e-301
-6.67734e-301
-7.28083e-301
-8.34474e-301
-8.28644e-301
-1.02104e-300
-8.97991e-301
-1.22949e-300
-9.33525e-301
-1.46137e-300
-9.32569e-301
-1.71782e-300
-8.91934e-301
-1.98048e-300
-8.07552e-301
-2.45992e-300
-6.74094e-301
-1.53195e-300
-4.98042e-301
-7.68253e-301
-2.17856e-301
-3.8146e-301
-1.38067e-301
-2.46524e-301
-9.4988e-302
-1.73164e-301
-6.70306e-302
-1.25596e-301
-4.75333e-302
-9.21521e-302
-3.3557e-302
-6.76326e-302
-2.34427e-302
-4.91965e-302
-1.61014e-302
-3.50749e-302
-1.07574e-302
-6.83832e-303
-2.4096e-302
-1.30779e-301
-1.16554e-301
-2.53092e-301
-3.42182e-301
-3.81872e-301
-5.5401e-301
-5.23394e-301
-7.42826e-301
-6.82779e-301
-9.02214e-301
-8.63642e-301
-1.02826e-300
-1.0685e-300
-1.11864e-300
-1.29912e-300
-1.1716e-300
-1.55681e-300
-1.18528e-300
-1.84258e-300
-1.15715e-300
-2.13685e-300
-1.08372e-300
-2.66259e-300
-9.60123e-301
-1.67067e-300
-7.92802e-301
-8.32625e-301
-3.47635e-301
-4.08996e-301
-1.92733e-301
-2.62481e-301
-1.24617e-301
-1.83531e-301
-8.50603e-302
-1.32672e-301
-5.90716e-302
-9.7091e-302
-4.11305e-302
-7.11077e-302
-2.84762e-302
-5.16358e-302
-1.94558e-302
-3.67638e-302
-1.29727e-302
-8.25854e-303
-2.52295e-302
-1.22359e-301
-1.4703e-301
-2.36157e-301
-4.25686e-301
-3.61792e-301
-6.86399e-301
-5.06561e-301
-9.17048e-301
-6.75522e-301
-1.11077e-300
-8.7162e-301
-1.26461e-300
-1.09657e-300
-1.37764e-300
-1.35147e-300
-1.44951e-300
-1.63714e-300
-1.47949e-300
-1.95431e-300
-1.46603e-300
-2.28217e-300
-1.4066e-300
-2.85602e-300
-1.29737e-300
-1.80236e-300
-1.14531e-300
-8.92357e-301
-5.03075e-301
-4.33726e-301
-2.54719e-301
-2.76561e-301
-1.56535e-301
-1.92519e-301
-1.03849e-301
-1.387e-301
-7.08636e-302
-1.01225e-301
-4.87938e-302
-7.39676e-302
-3.35522e-302
-5.36116e-302
-2.2843e-302
-3.81119e-302
-1.52207e-302
-9.71174e-303
-2.61219e-302
-9.97528e-302
-1.88327e-301
-1.93817e-301
-5.32385e-301
-3.10625e-301
-8.51184e-301
-4.57212e-301
-1.12903e-300
-6.36957e-301
-1.35974e-300
-8.50784e-301
-1.54258e-300
-1.09873e-300
-1.67899e-300
-1.3807e-300
-1.77056e-300
-1.69679e-300
-1.818e-300
-2.04731e-300
-1.82092e-300
-2.41015e-300
-1.77799e-300
-3.03307e-300
-1.68715e-300
-1.91976e-300
-1.55667e-300
-9.42445e-301
-6.7909e-301
-4.53399e-301
-3.18876e-301
-2.875e-301
-1.87573e-301
-1.99292e-301
-1.21571e-301
-1.43098e-301
-8.18568e-302
-1.04145e-301
-5.59285e-302
-7.59249e-302
-3.82989e-302
-5.49244e-302
-2.60351e-302
-3.89837e-302
-1.73605e-302
-1.11117e-302
-2.66843e-302
-5.02453e-302
-2.473e-301
-1.08218e-301
-6.72052e-301
-2.11214e-301
-1.05822e-300
-3.61192e-301
-1.38698e-300
-5.56141e-301
-1.65539e-300
-7.92762e-301
-1.86684e-300
-1.06835e-300
-2.02623e-300
-1.38123e-300
-2.13753e-300
-1.7306e-300
-2.203e-300
-2.11632e-300
-2.22333e-300
-2.51489e-300
-2.19843e-300
-3.18675e-300
-2.12854e-300
-2.01243e-300
-2.02446e-300
-9.73258e-301
-8.58978e-301
-4.63951e-301
-3.74401e-301
-2.93181e-301
-2.12746e-301
-2.02548e-301
-1.35799e-301
-1.45025e-301
-9.0784e-302
-1.05297e-301
-6.18272e-302
-7.66148e-302
-4.22994e-302
-5.5335e-302
-2.87769e-302
-3.9224e-302
-1.9233e-302
-1.23595e-302
-2.68184e-302
5.72337e-302
-3.04641e-301
5.40674e-302
-8.32228e-301
-3.72051e-302
-1.29318e-300
-2.0027e-301
-1.67313e-300
-4.21053e-301
-1.97717e-300
-6.89535e-301
-2.21499e-300
-9.9975e-301
-2.39579e-300
-1.34863e-300
-2.52617e-300
-1.73479e-300
-2.60976e-300
-2.15766e-300
-2.64786e-300
-2.59205e-300
-2.64103e-300
-3.31175e-300
-2.58737e-300
-2.05988e-300
-2.54158e-300
-9.61551e-301
-9.97475e-301
-4.58114e-301
-4.0249e-301
-2.90285e-301
-2.25776e-301
-2.00455e-301
-1.44001e-301
-1.43403e-301
-9.6419e-302
-1.04032e-301
-6.58134e-302
-7.56403e-302
-4.51495e-302
-5.45991e-302
-3.0816e-302
-3.86825e-302
-2.0677e-302
-1.3353e-302
-2.64334e-302
3.09087e-301
-6.45563e-301
3.55944e-301
-1.31412e-300
2.48223e-301
-1.85163e-300
4.50891e-302
-2.27954e-300
-2.21744e-301
-2.61557e-300
-5.35856e-301
-2.87698e-300
-8.89752e-301
-3.07754e-300
-1.28071e-300
-3.22633e-300
-1.70792e-300
-3.32803e-300
-2.17059e-300
-3.38401e-300
-2.63622e-300
-3.39476e-300
-3.40865e-300
-3.36721e-300
-2.0111e-300
-2.20282e-300
-8.48193e-301
-8.61702e-301
-4.27655e-301
-3.79201e-301
-2.74704e-301
-2.22256e-301
-1.90986e-301
-1.44608e-301
-1.37171e-301
-9.7937e-302
-9.97761e-302
-6.73846e-302
-7.26833e-302
-4.65258e-302
-5.25363e-302
-3.19391e-302
-3.72556e-302
-2.1551e-302
-1.39992e-302
-2.54703e-302
9.19172e-301
-1.01784e-301
8.56939e-301
-6.59152e-301
6.55812e-301
-1.07564e-300
3.69615e-301
-1.38859e-300
3.25718e-302
-1.62621e-300
-3.4029e-301
-1.80685e-300
-7.44928e-301
-1.94273e-300
-1.18231e-300
-2.04098e-300
-1.65437e-300
-2.10398e-300
-2.16077e-300
-2.12831e-300
-2.6955e-300
-2.09932e-300
-2.30902e-300
-1.97591e-300
-1.1853e-300
-1.14962e-300
-5.74792e-301
-5.59382e-301
-3.56433e-301
-3.18686e-301
-2.42525e-301
-2.04012e-301
-1.72882e-301
-1.37676e-301
-1.25868e-301
-9.51214e-302
-9.2348e-302
-6.63202e-302
-6.76706e-302
-4.62508e-302
-4.91179e-302
-3.20131e-302
-3.49337e-302
-2.17587e-302
-1.42307e-302
-2.39277e-302
6.17934e-301
-3.58943e-301
4.84258e-301
-6.01782e-301
3.35929e-301
-7.55506e-301
1.71831e-301
-8.64317e-301
2.60731e-303
-9.43914e-301
-1.72123e-301
-1.00122e-300
-3.54813e-301
-1.04026e-300
-5.46974e-301
-1.06296e-300
-7.45344e-301
-1.06866e-300
-9.33831e-301
-1.05174e-300
-1.06312e-300
-9.9355e-301
-9.00933e-301
-8.43508e-301
-5.76055e-301
-5.64535e-301
-3.86667e-301
-3.79087e-301
-2.75147e-301
-2.56332e-301
-2.0064e-301
-1.77517e-301
-1.48456e-301
-1.24864e-301
-1.10531e-301
-8.84827e-302
-8.22888e-302
-6.27755e-302
-6.091e-302
-4.43551e-302
-4.45284e-302
-3.10243e-302
-3.18303e-302
-2.12732e-302
-1.40205e-302
-2.18756e-302
1.36403e-301
-2.8194e-301
7.28489e-302
-3.67801e-301
2.75881e-302
-4.08211e-301
-2.23854e-302
-4.43362e-301
-7.7817e-302
-4.72572e-301
-1.38926e-301
-4.94455e-301
-2.05228e-301
-5.08666e-301
-2.74801e-301
-5.15199e-301
-3.42628e-301
-5.13637e-301
-3.98019e-301
-5.02173e-301
-4.22328e-301
-4.76424e-301
-3.93179e-301
-4.3152e-301
-3.27361e-301
-3.54236e-301
-2.61357e-301
-2.71886e-301
-2.04861e-301
-2.02135e-301
-1.58717e-301
-1.48654e-301
-1.22082e-301
-1.08737e-301
-9.32852e-302
-7.91616e-302
-7.07168e-302
-5.72802e-302
-5.30288e-302
-4.10903e-302
-3.91357e-302
-2.90918e-302
-2.8167e-302
-2.01486e-302
-1.33907e-302
-1.9448e-302
-3.18323e-302
-1.83408e-301
-3.61343e-302
-2.37845e-301
-4.44422e-302
-2.63459e-301
-6.02966e-302
-2.84403e-301
-8.2421e-302
-3.01556e-301
-1.09544e-301
-3.14343e-301
-1.40248e-301
-3.2249e-301
-1.72442e-301
-3.25956e-301
-2.02768e-301
-3.2459e-301
-2.26236e-301
-3.17677e-301
-2.36757e-301
-3.03516e-301
-2.30418e-301
-2.79568e-301
-2.09566e-301
-2.429e-301
-1.80975e-301
-1.99431e-301
-1.50645e-301
-1.57345e-301
-1.22158e-301
-1.21109e-301
-9.71988e-302
-9.16704e-302
-7.61653e-302
-6.84899e-302
-5.88386e-302
-5.0566e-302
-4.47552e-302
-3.68599e-302
-3.33871e-302
-2.64387e-302
-2.42211e-302
-1.85077e-302
-1.24073e-302
-1.68155e-302
-5.89873e-302
-1.10321e-301
-5.77939e-302
-1.55885e-301
-5.80651e-302
-1.79142e-301
-6.32716e-302
-1.95739e-301
-7.30897e-302
-2.08269e-301
-8.65428e-302
-2.17255e-301
-1.02426e-301
-2.22861e-301
-1.19184e-301
-2.25188e-301
-1.34765e-301
-2.24198e-301
-1.46682e-301
-2.19531e-301
-1.52478e-301
-2.10348e-301
-1.50771e-301
-1.95485e-301
-1.4181e-301
-1.74128e-301
-1.27392e-301
-1.48244e-301
-1.10126e-301
-1.21494e-301
-9.23184e-302
-9.67346e-302
-7.55156e-302
-7.53293e-302
-6.05158e-302
-5.76106e-302
-4.75952e-302
-4.33578e-302
-3.67215e-302
-3.21105e-302
-2.77002e-302
-2.33368e-302
-2.02648e-302
-1.65142e-302
-1.11667e-302
-1.41513e-302
-5.35833e-302
-6.63529e-302
-5.46222e-302
-1.02102e-301
-5.42737e-302
-1.2262e-301
-5.61612e-302
-1.36885e-301
-6.07893e-302
-1.47174e-301
-6.77479e-302
-1.5434e-301
-7.62818e-302
-1.58782e-301
-8.53883e-302
-1.60711e-301
-9.38494e-302
-1.60177e-301
-1.00337e-301
-1.57005e-301
-1.03653e-301
-1.50772e-301
-1.03065e-301
-1.40944e-301
-9.84622e-302
-1.27321e-301
-9.04313e-302
-1.10808e-301
-8.01232e-302
-9.31702e-302
-6.88088e-302
-7.60817e-302
-5.7535e-302
-6.06289e-302
-4.69961e-302
-4.73173e-302
-3.75642e-302
-3.62397e-302
-2.93722e-302
-2.72435e-302
-2.23966e-302
-2.00522e-302
-1.65213e-302
-1.43398e-302
-9.7767e-303
-1.16041e-302
-4.19566e-302
-4.02925e-302
-4.45614e-302
-6.68342e-302
-4.49522e-302
-8.37225e-302
-4.59959e-302
-9.57771e-302
-4.84173e-302
-1.04452e-301
-5.21655e-302
-1.1047e-301
-5.68549e-302
-1.14246e-301
-6.19023e-302
-1.1602e-301
-6.66029e-302
-1.15886e-301
-7.02167e-302
-1.13783e-301
-7.20883e-302
-1.09513e-301
-7.1775e-302
-1.02853e-301
-6.91272e-302
-9.37994e-302
-6.4349e-302
-8.28519e-302
-5.7971e-302
-7.09413e-302
-5.06763e-302
-5.90528e-302
-4.31128e-302
-4.79443e-302
-3.57812e-302
-3.80691e-302
-2.90064e-302
-2.96127e-302
-2.29569e-302
-2.25684e-302
-1.76811e-302
-1.68087e-302
-1.31452e-302
-1.21395e-302
-8.33955e-303
-9.28265e-303
-3.08114e-302
-2.46898e-302
-3.38845e-302
-4.37224e-302
-3.48576e-302
-5.68937e-302
-3.57636e-302
-6.66965e-302
-3.72409e-302
-7.38994e-302
-3.9385e-302
-7.89716e-302
-4.20344e-302
-8.22349e-302
-4.48777e-302
-8.38979e-302
-4.75195e-302
-8.40637e-302
-4.95415e-302
-8.27334e-302
-5.05664e-302
-7.98325e-302
-5.03193e-302
-7.5288e-302
-4.86767e-302
-6.91573e-302
-4.57048e-302
-6.17484e-302
-4.16566e-302
-5.35913e-302
-3.69003e-302
-4.52801e-302
-3.18238e-302
-3.73229e-302
-2.67614e-302
-3.00704e-302
-2.19583e-302
-2.37098e-302
-1.75653e-302
-1.82923e-302
-1.36514e-302
-1.37711e-302
-1.02215e-302
-1.00357e-302
-6.94099e-303
-7.25257e-303
-2.17976e-302
-1.52332e-302
-2.46927e-302
-2.85757e-302
-2.58904e-302
-3.84549e-302
-2.67717e-302
-4.61328e-302
-2.78116e-302
-5.19453e-302
-2.91342e-302
-5.61408e-302
-3.06903e-302
-5.89259e-302
-3.23257e-302
-6.04529e-302
-3.38262e-302
-6.08112e-302
-3.49564e-302
-6.00289e-302
-3.54964e-302
-5.80937e-302
-3.52763e-302
-5.50008e-302
-3.42069e-302
-5.08219e-302
-3.23038e-302
-4.57589e-302
-2.96898e-302
-4.0133e-302
-2.65652e-302
-3.43127e-302
-2.31592e-302
-2.86351e-302
-1.96867e-302
-2.33557e-302
-1.63196e-302
-1.86323e-302
-1.31763e-302
-1.4531e-302
-1.03222e-302
-1.10449e-302
-7.77722e-303
-8.11374e-303
-5.6444e-303
-5.54037e-303
-1.50316e-302
-9.44723e-303
-1.74701e-302
-1.86473e-302
-1.86373e-302
-2.58432e-302
-1.9454e-302
-3.16655e-302
-2.02473e-302
-3.62167e-302
-2.11235e-302
-3.95968e-302
-2.20804e-302
-4.19164e-302
-2.30474e-302
-4.32715e-302
-2.39122e-302
-4.37281e-302
-2.45443e-302
-4.33201e-302
-2.48164e-302
-4.20616e-302
-2.46251e-302
-3.99753e-302
-2.391e-302
-3.71286e-302
-2.26696e-302
-3.36594e-302
-2.09642e-302
-2.97714e-302
-1.89035e-302
-2.56994e-302
-1.66225e-302
-2.16676e-302
-1.4256e-302
-1.78568e-302
-1.19201e-302
-1.43895e-302
-9.70098e-303
-1.13282e-302
-7.65213e-303
-8.68332e-303
-5.7964e-303
-6.42366e-303
-4.49018e-303
-4.14233e-303
-1.01706e-302
-5.88282e-303
-1.20878e-302
-1.21414e-302
-1.30939e-302
-1.72622e-302
-1.37974e-302
-2.15583e-302
-1.44149e-302
-2.50233e-302
-1.50245e-302
-2.7673e-302
-1.56392e-302
-2.95522e-302
-1.62293e-302
-3.07122e-302
-1.6738e-302
-3.11951e-302
-1.7094e-302
-3.10297e-302
-1.72246e-302
-3.02376e-302
-1.70679e-302
-2.88487e-302
-1.6585e-302
-2.69198e-302
-1.57697e-302
-2.45473e-302
-1.46519e-302
-2.18645e-302
-1.3292e-302
-1.90247e-302
-1.17695e-302
-1.61777e-302
-1.01681e-302
-1.34497e-302
-8.56376e-303
-1.09319e-302
-7.01672e-303
-8.67651e-303
-5.56734e-303
-6.69942e-303
-4.23599e-303
-4.98569e-303
-3.49822e-303
-3.03411e-303
-6.78282e-303
-3.67552e-303
-8.21894e-303
-7.88301e-303
-9.02071e-303
-1.14573e-302
-9.588e-303
-1.45542e-302
-1.00614e-302
-1.71267e-302
-1.04947e-302
-1.91508e-302
-1.09023e-302
-2.06326e-302
-1.12734e-302
-2.15923e-302
-1.15801e-302
-2.20526e-302
-1.17839e-302
-2.20336e-302
-1.18438e-302
-2.15555e-302
-1.17233e-302
-2.0646e-302
-1.13979e-302
-1.93499e-302
-1.08615e-302
-1.77353e-302
-1.01289e-302
-1.58916e-302
-9.23367e-303
-1.39206e-302
-8.22251e-303
-1.1923e-302
-7.14697e-303
-9.98637e-303
-6.05605e-303
-8.17685e-303
-4.99046e-303
-6.53528e-303
-3.9792e-303
-5.07763e-303
-3.03851e-303
-3.79758e-303
-2.67193e-303
-2.17942e-303
-4.47535e-303
-2.30291e-303
-5.51186e-303
-5.10154e-303
-6.11529e-303
-7.55543e-303
-6.54764e-303
-9.74337e-303
-6.89977e-303
-1.16114e-302
-7.20707e-303
-1.31217e-302
-7.48162e-303
-1.4261e-302
-7.72047e-303
-1.50309e-302
-7.91005e-303
-1.54402e-302
-8.02991e-303
-1.55006e-302
-8.05687e-303
-1.52273e-302
-7.96948e-303
-1.46428e-302
-7.75269e-303
-1.37808e-302
-7.40158e-303
-1.26895e-302
-6.92343e-303
-1.14296e-302
-6.33704e-303
-1.00696e-302
-5.66985e-303
-8.67757e-303
-4.95343e-303