/*--------------------------------*- C++ -*----------------------------------*\
| =========                 |                                                 |
| \\      /  F ield         | OpenFOAM: The Open Source CFD Toolbox           |
|  \\    /   O peration     | Version:  2406                                  |
|   \\  /    A nd           | Website:  www.openfoam.com                      |
|    \\/     M anipulation  |                                                 |
\*---------------------------------------------------------------------------*/
FoamFile
{
    version     2.0;
    format      ascii;
    arch        "LSB;label=32;scalar=64";
    class       volVectorField;
    location    "0.95";
    object      U;
}
// * * * * * * * * * * * * * * * * * * * * * * * * * * * * * * * * * * * * * //

dimensions      [0 1 -1 0 0 0 0];

internalField   nonuniform List<vector> 
2268
(
(-3.07435e-300 -9.44576e-301 0)
(-8.67028e-300 -3.96609e-300 0)
(-1.43202e-299 -5.06315e-300 0)
(-1.99433e-299 -4.97683e-300 0)
(-2.56288e-299 -3.60898e-300 0)
(-3.13664e-299 -6.10464e-301 0)
(-3.70231e-299 4.57909e-300 0)
(-4.22541e-299 1.28044e-299 0)
(-4.62765e-299 2.54041e-299 0)
(-4.71471e-299 4.47064e-299 0)
(-3.84555e-299 7.50135e-299 0)
(4.81247e-300 1.16648e-298 0)
(2.5297e-298 1.62745e-298 0)
(7.28431e-299 7.47867e-299 0)
(-1.04211e-298 2.89809e-299 0)
(-8.90038e-299 -5.10814e-300 0)
(-6.10918e-299 -1.17913e-299 0)
(-4.05041e-299 -1.05739e-299 0)
(-2.64322e-299 -7.29149e-300 0)
(-1.68864e-299 -4.00243e-300 0)
(-1.02642e-299 -1.33149e-300 0)
(-5.46991e-300 4.23002e-301 0)
(-1.41338e-300 7.15205e-301 0)
(-9.52575e-300 -2.0406e-300 0)
(-2.6676e-299 -9.57732e-300 0)
(-4.35095e-299 -1.27781e-299 0)
(-6.03175e-299 -1.25175e-299 0)
(-7.72812e-299 -8.40755e-300 0)
(-9.43344e-299 5.64154e-301 0)
(-1.11055e-298 1.59814e-299 0)
(-1.26397e-298 4.02063e-299 0)
(-1.38086e-298 7.68005e-299 0)
(-1.41037e-298 1.31425e-298 0)
(-1.22767e-298 2.13509e-298 0)
(-4.76332e-299 3.38858e-298 0)
(1.45451e-298 5.15957e-298 0)
(1.33684e-299 2.18535e-298 0)
(-1.5072e-298 4.50171e-299 0)
(-1.17606e-298 -8.67159e-301 0)
(-8.44868e-299 -1.07965e-299 0)
(-5.87012e-299 -1.0754e-299 0)
(-4.01e-299 -7.70254e-300 0)
(-2.69235e-299 -4.17348e-300 0)
(-1.74712e-299 -1.0153e-300 0)
(-1.03825e-299 1.37678e-300 0)
(-3.87263e-300 2.1409e-300 0)
(-1.58506e-299 -3.49693e-300 0)
(-4.49449e-299 -1.4864e-299 0)
(-7.3551e-299 -2.00985e-299 0)
(-1.02182e-298 -1.97268e-299 0)
(-1.31163e-298 -1.29667e-299 0)
(-1.60449e-298 1.84053e-300 0)
(-1.8946e-298 2.72642e-299 0)
(-2.16708e-298 6.70507e-299 0)
(-2.39031e-298 1.26782e-298 0)
(-2.49877e-298 2.15082e-298 0)
(-2.35594e-298 3.46295e-298 0)
(-1.64665e-298 5.47765e-298 0)
(-2.46824e-299 8.40223e-298 0)
(-8.79194e-299 3.43214e-298 0)
(-1.80955e-298 5.69696e-299 0)
(-1.37502e-298 4.21294e-300 0)
(-1.01135e-298 -8.00522e-300 0)
(-7.23722e-299 -9.29446e-300 0)
(-5.09458e-299 -6.91072e-300 0)
(-3.53316e-299 -3.59322e-300 0)
(-2.38888e-299 -3.28462e-301 0)
(-1.51142e-299 2.4307e-300 0)
(-6.70343e-300 3.60676e-300 0)
(-2.23306e-299 -5.07352e-300 0)
(-6.39861e-299 -2.00603e-299 0)
(-1.05091e-298 -2.73604e-299 0)
(-1.46352e-298 -2.69983e-299 0)
(-1.8827e-298 -1.77451e-299 0)
(-2.30899e-298 2.71986e-300 0)
(-2.73645e-298 3.78697e-299 0)
(-3.14862e-298 9.27467e-299 0)
(-3.51089e-298 1.74703e-298 0)
(-3.75613e-298 2.94984e-298 0)
(-3.76136e-298 4.7197e-298 0)
(-3.28864e-298 7.39862e-298 0)
(-2.41216e-298 1.11616e-297 0)
(-1.92425e-298 4.30355e-298 0)
(-2.11887e-298 6.96138e-299 0)
(-1.58497e-298 9.39672e-300 0)
(-1.17824e-298 -5.00981e-300 0)
(-8.59575e-299 -7.52866e-300 0)
(-6.18676e-299 -5.85769e-300 0)
(-4.402e-299 -2.86087e-300 0)
(-3.07847e-299 3.97505e-301 0)
(-2.0513e-299 3.46137e-300 0)
(-1.02926e-299 5.14408e-300 0)
(-2.91856e-299 -6.76375e-300 0)
(-8.42368e-299 -2.54578e-299 0)
(-1.38744e-298 -3.49734e-299 0)
(-1.93616e-298 -3.48313e-299 0)
(-2.49561e-298 -2.32955e-299 0)
(-3.06806e-298 2.58132e-300 0)
(-3.64885e-298 4.71576e-299 0)
(-4.22244e-298 1.16615e-298 0)
(-4.75593e-298 2.19909e-298 0)
(-5.18841e-298 3.70447e-298 0)
(-5.41884e-298 5.89686e-298 0)
(-5.27443e-298 9.14819e-298 0)
(-4.90109e-298 1.35436e-297 0)
(-2.99845e-298 5.00637e-298 0)
(-2.48025e-298 8.24891e-299 0)
(-1.82623e-298 1.43968e-299 0)
(-1.36237e-298 -2.19367e-300 0)
(-1.00645e-298 -5.83709e-300 0)
(-7.36594e-299 -4.84429e-300 0)
(-5.3512e-299 -2.20137e-300 0)
(-3.85156e-299 9.76001e-301 0)
(-2.68745e-299 4.27351e-300 0)
(-1.48555e-299 6.52578e-300 0)
(-3.65855e-299 -8.60808e-300 0)
(-1.06091e-298 -3.12993e-299 0)
(-1.75102e-298 -4.33203e-299 0)
(-2.44742e-298 -4.36908e-299 0)
(-3.15963e-298 -3.01735e-299 0)
(-3.89236e-298 8.32953e-301 0)
(-4.64341e-298 5.44767e-299 0)
(-5.40021e-298 1.38016e-298 0)
(-6.1347e-298 2.61733e-298 0)
(-6.79607e-298 4.40819e-298 0)
(-7.30518e-298 6.98763e-298 0)
(-7.53308e-298 1.07375e-297 0)
(-7.64093e-298 1.5662e-297 0)
(-4.12944e-298 5.6277e-298 0)
(-2.90051e-298 9.52767e-299 0)
(-2.10332e-298 1.91729e-299 0)
(-1.56921e-298 3.55082e-301 0)
(-1.16883e-298 -4.3458e-300 0)
(-8.66274e-299 -3.99222e-300 0)
(-6.399e-299 -1.72878e-300 0)
(-4.71834e-299 1.26663e-300 0)
(-3.43196e-299 4.62785e-300 0)
(-2.0744e-299 7.26499e-300 0)
(-4.46709e-299 -1.06734e-299 0)
(-1.29913e-298 -3.78181e-299 0)
(-2.14731e-298 -5.27606e-299 0)
(-3.00478e-298 -5.40587e-299 0)
(-3.88382e-298 -3.89271e-299 0)
(-4.79216e-298 -3.16089e-300 0)
(-5.73101e-298 5.91807e-299 0)
(-6.69224e-298 1.5626e-298 0)
(-7.65452e-298 2.99529e-298 0)
(-8.57865e-298 5.05451e-298 0)
(-9.40507e-298 7.98779e-298 0)
(-1.00345e-297 1.21785e-297 0)
(-1.06078e-297 1.75951e-297 0)
(-5.33705e-298 6.20301e-298 0)
(-3.37513e-298 1.07856e-298 0)
(-2.41564e-298 2.37648e-299 0)
(-1.80012e-298 2.64649e-300 0)
(-1.34841e-298 -3.0872e-300 0)
(-1.00889e-298 -3.3518e-300 0)
(-7.5485e-299 -1.50507e-300 0)
(-5.67225e-299 1.16091e-300 0)
(-4.27466e-299 4.24147e-300 0)
(-2.8486e-299 6.492e-300 0)
(-5.35585e-299 -1.30531e-299 0)
(-1.5605e-298 -4.52309e-299 0)
(-2.58188e-298 -6.3671e-299 0)
(-3.61563e-298 -6.6418e-299 0)
(-4.67711e-298 -5.01603e-299 0)
(-5.77752e-298 -1.00465e-299 0)
(-6.92218e-298 6.05517e-299 0)
(-8.10829e-298 1.70663e-298 0)
(-9.32222e-298 3.3262e-298 0)
(-1.05367e-297 5.63824e-298 0)
(-1.171e-297 8.89524e-298 0)
(-1.27709e-297 1.34763e-297 0)
(-1.3814e-297 1.93463e-297 0)
(-6.63441e-298 6.72895e-298 0)
(-3.89495e-298 1.20116e-298 0)
(-2.75887e-298 2.82363e-299 0)
(-2.05326e-298 4.73481e-300 0)
(-1.54431e-298 -2.04291e-300 0)
(-1.16359e-298 -2.92715e-300 0)
(-8.78475e-299 -1.5452e-300 0)
(-6.68168e-299 6.14339e-301 0)
(-5.15275e-299 2.81449e-300 0)
(-3.89296e-299 2.94359e-300 0)
(-6.11381e-303 -1.59476e-302 0)
(-2.70803e-302 -8.235e-302 0)
(-1.96003e-302 -7.85388e-302 0)
(-1.97478e-302 -4.89173e-302 0)
(-2.04886e-302 -2.52356e-302 0)
(-1.82246e-302 -1.17274e-302 0)
(-1.40361e-302 -5.06347e-303 0)
(-9.70213e-303 -2.01897e-303 0)
(-6.1849e-303 -7.05267e-304 0)
(-3.69921e-303 -1.77129e-304 0)
(-2.09636e-303 9.84461e-306 0)
(-1.1308e-303 5.78858e-305 0)
(-5.80795e-304 5.5868e-305 0)
(-2.82935e-304 4.05727e-305 0)
(-1.29464e-304 2.55202e-305 0)
(-5.45205e-305 1.44098e-305 0)
(-2.01892e-305 7.22372e-306 0)
(-5.74978e-306 2.85038e-306 0)
(-5.22422e-307 4.72728e-307 0)
(-8.92131e-303 -5.47258e-302 0)
(-5.26961e-302 -1.64471e-301 0)
(-5.42231e-302 -1.40811e-301 0)
(-5.53854e-302 -8.51021e-302 0)
(-5.0966e-302 -4.31812e-302 0)
(-4.15218e-302 -1.95454e-302 0)
(-3.05057e-302 -7.9639e-303 0)
(-2.06631e-302 -2.7809e-303 0)
(-1.31247e-302 -6.57222e-304 0)
(-7.90614e-303 1.01448e-304 0)
(-4.54703e-303 2.94363e-304 0)
(-2.50444e-303 2.79728e-304 0)
(-1.32094e-303 2.08419e-304 0)
(-6.64902e-304 1.37411e-304 0)
(-3.16799e-304 8.33308e-305 0)
(-1.40468e-304 4.70673e-305 0)
(-5.57889e-305 2.45345e-305 0)
(-1.77728e-305 1.09468e-305 0)
(-1.98166e-306 2.61046e-306 0)
(-1.71339e-302 -1.21198e-301 0)
(-9.01573e-302 -2.6532e-301 0)
(-1.05219e-301 -2.06779e-301 0)
(-1.05114e-301 -1.20067e-301 0)
(-9.09578e-302 -5.94718e-302 0)
(-7.04586e-302 -2.61943e-302 0)
(-5.0119e-302 -1.01342e-302 0)
(-3.3353e-302 -3.09438e-303 0)
(-2.10318e-302 -3.31855e-304 0)
(-1.26708e-302 5.52533e-304 0)
(-7.32808e-303 6.86309e-304 0)
(-4.07666e-303 5.68336e-304 0)
(-2.18042e-303 4.02338e-304 0)
(-1.11758e-303 2.59814e-304 0)
(-5.44952e-304 1.56936e-304 0)
(-2.49062e-304 8.95268e-305 0)
(-1.03202e-304 4.79915e-305 0)
(-3.52142e-305 2.28318e-305 0)
(-4.85852e-306 6.51164e-306 0)
(-4.70902e-302 -2.46891e-301 0)
(-1.59927e-301 -4.12352e-301 0)
(-1.895e-301 -2.91421e-301 0)
(-1.8074e-301 -1.61186e-301 0)
(-1.48651e-301 -7.75391e-302 0)
(-1.10713e-301 -3.32103e-302 0)
(-7.67181e-302 -1.2227e-302 0)
(-5.02737e-302 -3.20885e-303 0)
(-3.14711e-302 1.98218e-304 0)
(-1.89356e-302 1.17439e-303 0)
(-1.09875e-302 1.2068e-303 0)
(-6.15567e-303 9.47593e-304 0)
(-3.32686e-303 6.57244e-304 0)
(-1.72897e-303 4.21808e-304 0)
(-8.58313e-304 2.55562e-304 0)
(-4.0164e-304 1.47523e-304 0)
(-1.72031e-304 8.10139e-305 0)
(-6.18993e-305 4.04475e-305 0)
(-1.00384e-305 1.30263e-305 0)
(-1.35002e-301 -4.83334e-301 0)
(-2.92688e-301 -6.27677e-301 0)
(-3.30091e-301 -4.0133e-301 0)
(-2.96223e-301 -2.10868e-301 0)
(-2.32347e-301 -9.85019e-302 0)
(-1.67364e-301 -4.11561e-302 0)
(-1.13481e-301 -1.45198e-302 0)
(-7.34207e-302 -3.25092e-303 0)
(-4.56823e-302 8.84009e-304 0)
(-2.74573e-302 1.95542e-303 0)
(-1.59776e-302 1.86015e-303 0)
(-9.00571e-303 1.42686e-303 0)
(-4.91084e-303 9.82654e-304 0)
(-2.58258e-303 6.31247e-304 0)
(-1.30176e-303 3.85063e-304 0)
(-6.21438e-304 2.25176e-304 0)
(-2.73705e-304 1.26415e-304 0)
(-1.02925e-304 6.5681e-305 0)
(-1.89006e-305 2.32799e-305 0)
(-3.69991e-301 -9.28598e-301 0)
(-5.42622e-301 -9.3093e-301 0)
(-5.59631e-301 -5.38465e-301 0)
(-4.68693e-301 -2.6941e-301 0)
(-3.5136e-301 -1.22688e-301 0)
(-2.45805e-301 -5.03043e-302 0)
(-1.63682e-301 -1.71821e-302 0)
(-1.04825e-301 -3.30861e-303 0)
(-6.49284e-302 1.68796e-303 0)
(-3.90146e-302 2.8852e-303 0)
(-2.27718e-302 2.64855e-303 0)
(-1.29091e-302 2.01297e-303 0)
(-7.09727e-303 1.38605e-303 0)
(-3.77239e-303 8.94617e-304 0)
(-1.9274e-303 5.50486e-304 0)
(-9.36382e-304 3.26186e-304 0)
(-4.22544e-304 1.86825e-304 0)
(-1.65043e-304 1.00379e-304 0)
(-3.36046e-305 3.85961e-305 0)
(-9.53668e-301 -1.74898e-300 0)
(-1.00559e-300 -1.32786e-300 0)
(-9.21861e-301 -6.98903e-301 0)
(-7.18236e-301 -3.35641e-301 0)
(-5.16172e-301 -1.50119e-301 0)
(-3.52119e-301 -6.08722e-302 0)
(-2.31065e-301 -2.03801e-302 0)
(-1.46844e-301 -3.47535e-303 0)
(-9.06981e-302 2.5673e-303 0)
(-5.45401e-302 3.94975e-303 0)
(-3.19456e-302 3.57215e-303 0)
(-1.82149e-302 2.71167e-303 0)
(-1.00932e-302 1.87441e-303 0)
(-5.41835e-303 1.21822e-303 0)
(-2.80277e-303 7.56804e-304 0)
(-1.38323e-303 4.54179e-304 0)
(-6.37653e-304 2.64718e-304 0)
(-2.5734e-304 1.46065e-304 0)
(-5.73171e-305 5.99274e-305 0)
(-2.25636e-300 -3.3683e-300 0)
(-1.84816e-300 -1.78138e-300 0)
(-1.45961e-300 -8.6828e-301 0)
(-1.06114e-300 -4.0642e-301 0)
(-7.34901e-301 -1.80341e-301 0)
(-4.91056e-301 -7.29402e-302 0)
(-3.18599e-301 -2.42548e-302 0)
(-2.01376e-301 -3.86008e-303 0)
(-1.24208e-301 3.4522e-303 0)
(-7.48059e-302 5.10848e-303 0)
(-4.39822e-302 4.60912e-303 0)
(-2.522e-302 3.51214e-303 0)
(-1.40775e-302 2.44291e-303 0)
(-7.62548e-303 1.60017e-303 0)
(-3.98792e-303 1.00345e-303 0)
(-1.99521e-303 6.09009e-304 0)
(-9.36667e-304 3.59897e-304 0)
(-3.88597e-304 2.0224e-304 0)
(-9.40545e-305 8.66648e-305 0)
(-6.86139e-299 -1.73616e-299 0)
(-2.00326e-298 -5.83755e-299 0)
(-3.31781e-298 -8.33151e-299 0)
(-4.64972e-298 -8.93451e-299 0)
(-6.01961e-298 -7.22414e-299 0)
(-7.44468e-298 -2.62225e-299 0)
(-8.93743e-298 5.64285e-299 0)
(-1.05042e-297 1.85836e-298 0)
(-1.21439e-297 3.755e-298 0)
(-1.38474e-297 6.43602e-298 0)
(-1.55981e-297 1.01526e-297 0)
(-1.73666e-297 1.5249e-297 0)
(-1.92107e-297 2.15491e-297 0)
(-8.7673e-298 7.42295e-298 0)
(-4.75643e-298 1.38828e-298 0)
(-3.32806e-298 3.52384e-299 0)
(-2.4723e-298 7.90183e-300 0)
(-1.8671e-298 -5.71796e-301 0)
(-1.4166e-298 -2.46688e-300 0)
(-1.07758e-298 -1.89777e-300 0)
(-8.24065e-299 -7.39311e-301 0)
(-6.35827e-299 -3.60222e-301 0)
(-4.92065e-299 -2.69465e-300 0)
(-9.04008e-299 -2.46088e-299 0)
(-2.64309e-298 -8.01289e-299 0)
(-4.38206e-298 -1.1683e-298 0)
(-6.14795e-298 -1.30609e-298 0)
(-7.97006e-298 -1.16084e-298 0)
(-9.87528e-298 -6.62646e-299 0)
(-1.18872e-297 2.76805e-299 0)
(-1.40253e-297 1.76955e-298 0)
(-1.63043e-297 3.95676e-298 0)
(-1.87348e-297 7.01857e-298 0)
(-2.13233e-297 1.11843e-297 0)
(-2.40714e-297 1.67361e-297 0)
(-2.70071e-297 2.33737e-297 0)
(-1.18424e-297 8.03209e-298 0)
(-6.02377e-298 1.58774e-298 0)
(-4.14675e-298 4.30173e-299 0)
(-3.06215e-298 1.13197e-299 0)
(-2.31071e-298 8.13444e-301 0)
(-1.75448e-298 -2.32839e-300 0)
(-1.33268e-298 -2.74345e-300 0)
(-1.00929e-298 -2.51825e-300 0)
(-7.56887e-299 -2.90868e-300 0)
(-5.49131e-299 -4.80639e-300 0)
(-1.13537e-298 -3.38467e-299 0)
(-3.31809e-298 -1.07873e-298 0)
(-5.50316e-298 -1.60502e-298 0)
(-7.72599e-298 -1.86465e-298 0)
(-1.00258e-297 -1.79219e-298 0)
(-1.24399e-297 -1.30743e-298 0)
(-1.5003e-297 -3.12134e-299 0)
(-1.77467e-297 1.31212e-298 0)
(-2.06988e-297 3.70884e-298 0)
(-2.38833e-297 7.04922e-298 0)
(-2.73206e-297 1.1537e-297 0)
(-3.1027e-297 1.7396e-297 0)
(-3.50035e-297 2.42423e-297 0)
(-1.50464e-297 8.35352e-298 0)
(-7.38371e-298 1.70599e-298 0)
(-5.0096e-298 4.7039e-299 0)
(-3.6722e-298 1.2553e-299 0)
(-2.76027e-298 8.01959e-301 0)
(-2.08944e-298 -3.0539e-300 0)
(-1.57963e-298 -3.95907e-300 0)
(-1.18493e-298 -4.02907e-300 0)
(-8.73146e-299 -4.29668e-300 0)
(-6.18769e-299 -5.09514e-300 0)
(-1.38086e-298 -4.57938e-299 0)
(-4.02874e-298 -1.43761e-298 0)
(-6.68046e-298 -2.17845e-298 0)
(-9.3809e-298 -2.61599e-298 0)
(-1.21801e-297 -2.67406e-298 0)
(-1.51262e-297 -2.2619e-298 0)
(-1.8265e-297 -1.27341e-298 0)
(-2.16386e-297 4.15724e-299 0)
(-2.5285e-297 2.9484e-298 0)
(-2.92375e-297 6.48786e-298 0)
(-3.3524e-297 1.12148e-297 0)
(-3.81679e-297 1.73117e-297 0)
(-4.31529e-297 2.4343e-297 0)
(-1.8376e-297 8.44405e-298 0)
(-8.83271e-298 1.73846e-298 0)
(-5.91841e-298 4.63995e-299 0)
(-4.30625e-298 1.08631e-299 0)
(-3.221e-298 -1.10524e-300 0)
(-2.42829e-298 -4.93582e-300 0)
(-1.82731e-298 -5.7114e-300 0)
(-1.362e-298 -5.50834e-300 0)
(-9.95354e-299 -5.21491e-300 0)
(-7.00803e-299 -5.027e-300 0)
(-1.64023e-298 -6.12167e-299 0)
(-4.77346e-298 -1.90074e-298 0)
(-7.91058e-298 -2.92552e-298 0)
(-1.11069e-297 -3.61046e-298 0)
(-1.44243e-297 -3.86764e-298 0)
(-1.79225e-297 -3.59662e-298 0)
(-2.1658e-297 -2.68244e-298 0)
(-2.56825e-297 -9.96187e-299 0)
(-3.00425e-297 1.60661e-298 0)
(-3.4778e-297 5.28276e-298 0)
(-3.99221e-297 1.01996e-297 0)
(-4.55011e-297 1.6514e-297 0)
(-5.14906e-297 2.37626e-297 0)
(-2.18481e-297 8.32167e-298 0)
(-1.03673e-297 1.67844e-298 0)
(-6.87268e-298 4.02883e-299 0)
(-4.96585e-298 5.56844e-300 0)
(-3.69594e-298 -5.42565e-300 0)
(-2.7751e-298 -8.36408e-300 0)
(-2.08031e-298 -8.34076e-300 0)
(-1.54442e-298 -7.36417e-300 0)
(-1.12453e-298 -6.24086e-300 0)
(-7.90774e-299 -5.16636e-300 0)
(-1.91258e-298 -8.09604e-299 0)
(-5.54865e-298 -2.49269e-298 0)
(-9.18711e-298 -3.88677e-298 0)
(-1.28949e-297 -4.90264e-298 0)
(-1.67473e-297 -5.44055e-298 0)
(-2.08163e-297 -5.38856e-298 0)
(-2.51694e-297 -4.62345e-298 0)
(-2.9868e-297 -3.00921e-298 0)
(-3.4966e-297 -3.99206e-299 0)
(-4.05093e-297 3.36341e-298 0)
(-4.65345e-297 8.43997e-298 0)
(-5.30711e-297 1.49793e-297 0)
(-6.00891e-297 2.25035e-297 0)
(-2.54887e-297 7.97231e-298 0)
(-1.19861e-297 1.51203e-298 0)
(-7.87114e-298 2.76253e-299 0)
(-5.65082e-298 -4.15719e-300 0)
(-4.18594e-298 -1.27889e-299 0)
(-3.13132e-298 -1.38346e-299 0)
(-2.34e-298 -1.22765e-299 0)
(-1.73265e-298 -1.00164e-299 0)
(-1.25933e-298 -7.7835e-300 0)
(-8.85621e-299 -5.76876e-300 0)
(-2.19613e-298 -1.05964e-298 0)
(-6.34788e-298 -3.24105e-298 0)
(-1.04993e-297 -5.10703e-298 0)
(-1.47307e-297 -6.55396e-298 0)
(-1.91325e-297 -7.46772e-298 0)
(-2.37906e-297 -7.72475e-298 0)
(-2.87845e-297 -7.19098e-298 0)
(-3.41854e-297 -5.72343e-298 0)
(-4.00551e-297 -3.16878e-298 0)
(-4.64446e-297 6.32911e-299 0)
(-5.33944e-297 5.84757e-298 0)
(-6.09364e-297 1.26276e-297 0)
(-6.90354e-297 2.04936e-297 0)
(-2.93281e-297 7.35093e-298 0)
(-1.36895e-297 1.2151e-298 0)
(-8.91186e-298 6.85e-300 0)
(-6.35961e-298 -1.94057e-299 0)
(-4.69014e-298 -2.39869e-299 0)
(-3.49649e-298 -2.19442e-299 0)
(-2.6059e-298 -1.79939e-299 0)
(-1.9257e-298 -1.38599e-299 0)
(-1.39807e-298 -1.01509e-299 0)
(-9.83377e-299 -6.99729e-300 0)
(-2.48774e-298 -1.37313e-298 0)
(-7.16043e-298 -4.17699e-298 0)
(-1.18294e-297 -6.6377e-298 0)
(-1.65909e-297 -8.63361e-298 0)
(-2.15532e-297 -1.00348e-297 0)
(-2.68182e-297 -1.07032e-297 0)
(-3.2479e-297 -1.0494e-297 0)
(-3.86175e-297 -9.25432e-298 0)
(-4.53034e-297 -6.82373e-298 0)
(-5.25933e-297 -3.03287e-298 0)
(-6.05314e-297 2.29371e-298 0)
(-6.91527e-297 9.32572e-298 0)
(-7.84128e-297 1.75888e-297 0)
(-3.33958e-297 6.38071e-298 0)
(-1.54771e-297 7.5172e-299 0)
(-9.99175e-298 -2.41743e-299 0)
(-7.08928e-298 -4.15781e-299 0)
(-5.20621e-298 -3.99776e-299 0)
(-3.86883e-298 -3.33702e-299 0)
(-2.87645e-298 -2.59882e-299 0)
(-2.122e-298 -1.92614e-299 0)
(-1.53914e-298 -1.35964e-299 0)
(-1.08261e-298 -8.98551e-300 0)
(-2.78221e-298 -1.76277e-298 0)
(-7.96876e-298 -5.33705e-298 0)
(-1.31488e-297 -8.53787e-298 0)
(-1.84379e-297 -1.1222e-297 0)
(-2.39664e-297 -1.32394e-297 0)
(-2.98545e-297 -1.44367e-297 0)
(-3.62108e-297 -1.46562e-297 0)
(-4.31289e-297 -1.37363e-297 0)
(-5.06871e-297 -1.15065e-297 0)
(-5.89473e-297 -7.78767e-298 0)
(-6.7958e-297 -2.38744e-298 0)
(-7.77568e-297 4.88733e-298 0)
(-8.82841e-297 1.35783e-297 0)
(-3.77139e-297 4.95169e-298 0)
(-1.73454e-297 7.34169e-300 0)
(-1.11055e-297 -6.81652e-299 0)
(-7.83519e-298 -7.23562e-299 0)
(-5.73052e-298 -6.18436e-299 0)
(-4.24547e-298 -4.88282e-299 0)
(-3.14933e-298 -3.67441e-299 0)
(-2.31962e-298 -2.65509e-299 0)
(-1.68091e-298 -1.83334e-299 0)
(-1.18208e-298 -1.18502e-299 0)
(-3.07117e-298 -2.24396e-298 0)
(-8.7454e-298 -6.7644e-298 0)
(-1.44128e-297 -1.08779e-297 0)
(-2.02136e-297 -1.44125e-297 0)
(-2.63047e-297 -1.71949e-297 0)
(-3.28285e-297 -1.90533e-297 0)
(-3.99104e-297 -1.9819e-297 0)
(-4.76567e-297 -1.93208e-297 0)
(-5.61534e-297 -1.73815e-297 0)
(-6.54688e-297 -1.38099e-297 0)
(-7.56538e-297 -8.39722e-298 0)
(-8.67507e-297 -9.18847e-299 0)
(-9.86732e-297 8.18731e-298 0)
(-4.22884e-297 2.92065e-298 0)
(-1.92853e-297 -8.80262e-299 0)
(-1.22447e-297 -1.28314e-298 0)
(-8.59065e-298 -1.13588e-298 0)
(-6.25798e-298 -9.06918e-299 0)
(-4.62259e-298 -6.89959e-299 0)
(-3.42162e-298 -5.06857e-299 0)
(-2.51626e-298 -3.59967e-299 0)
(-1.82161e-298 -2.45267e-299 0)
(-1.2805e-298 -1.56837e-299 0)
(-3.34162e-298 -2.83579e-298 0)
(-9.44779e-298 -8.51229e-298 0)
(-1.55528e-297 -1.37425e-297 0)
(-2.18293e-297 -1.83171e-297 0)
(-2.8467e-297 -2.20331e-297 0)
(-3.56333e-297 -2.47007e-297 0)
(-4.34716e-297 -2.61405e-297 0)
(-5.20995e-297 -2.61777e-297 0)
(-6.16108e-297 -2.46299e-297 0)
(-7.20774e-297 -2.13001e-297 0)
(-8.35536e-297 -1.59622e-297 0)
(-9.60851e-297 -8.36255e-298 0)
(-1.09548e-296 1.08984e-298 0)
(-4.71006e-297 1.14077e-299 0)
(-2.12785e-297 -2.17907e-298 0)
(-1.33963e-297 -2.08015e-298 0)
(-9.34642e-298 -1.67058e-298 0)
(-6.78193e-298 -1.27479e-298 0)
(-4.99527e-298 -9.43923e-299 0)
(-3.6896e-298 -6.80996e-299 0)
(-2.70911e-298 -4.77609e-299 0)
(-1.95914e-298 -3.22684e-299 0)
(-1.37635e-298 -2.05363e-299 0)
(-3.57357e-298 -3.56325e-298 0)
(-1.00109e-297 -1.06477e-297 0)
(-1.64658e-297 -1.7237e-297 0)
(-2.31543e-297 -2.30703e-297 0)
(-3.03059e-297 -2.79098e-297 0)
(-3.81151e-297 -3.15466e-297 0)
(-4.6741e-297 -3.37979e-297 0)
(-5.63099e-297 -3.44903e-297 0)
(-6.69191e-297 -3.34474e-297 0)
(-7.86426e-297 -3.04703e-297 0)
(-9.1535e-297 -2.53262e-297 0)
(-1.05647e-296 -1.77341e-297 0)
(-1.20803e-296 -8.07619e-298 0)
(-5.20961e-297 -3.66311e-298 0)
(-2.3295e-297 -3.89571e-298 0)
(-1.45419e-297 -3.10342e-298 0)
(-1.00902e-297 -2.34099e-298 0)
(-7.29368e-298 -1.72747e-298 0)
(-5.35713e-298 -1.25209e-298 0)
(-3.9485e-298 -8.90337e-299 0)
(-2.89457e-298 -6.18405e-299 0)
(-2.0908e-298 -4.15429e-299 0)
(-1.46771e-298 -2.63946e-299 0)
(-3.73604e-298 -4.46049e-298 0)
(-1.03343e-297 -1.32593e-297 0)
(-1.69965e-297 -2.14959e-297 0)
(-2.39975e-297 -2.88393e-297 0)
(-3.16131e-297 -3.5009e-297 0)
(-4.00614e-297 -3.97834e-297 0)
(-4.95109e-297 -4.29842e-297 0)
(-6.00875e-297 -4.44551e-297 0)
(-7.18861e-297 -4.40342e-297 0)
(-8.49769e-297 -4.15366e-297 0)
(-9.94134e-297 -3.67313e-297 0)
(-1.15251e-296 -2.9327e-297 0)
(-1.32248e-296 -1.9679e-297 0)
(-5.71745e-297 -8.60981e-298 0)
(-2.52896e-297 -6.09338e-298 0)
(-1.56562e-297 -4.37163e-298 0)
(-1.08056e-297 -3.15007e-298 0)
(-7.78172e-298 -2.26268e-298 0)
(-5.69969e-298 -1.61103e-298 0)
(-4.1919e-298 -1.1318e-298 0)
(-3.06777e-298 -7.80029e-299 0)
(-2.21297e-298 -5.21912e-299 0)
(-1.55196e-298 -3.31589e-299 0)
(-3.77932e-298 -5.57815e-298 0)
(-1.02585e-297 -1.64687e-297 0)
(-1.69083e-297 -2.6697e-297 0)
(-2.40817e-297 -3.5833e-297 0)
(-3.20993e-297 -4.35513e-297 0)
(-4.11901e-297 -4.96275e-297 0)
(-5.1513e-297 -5.39093e-297 0)
(-6.31792e-297 -5.62724e-297 0)
(-7.62679e-297 -5.65902e-297 0)
(-9.08398e-297 -5.47032e-297 0)
(-1.06942e-296 -5.04037e-297 0)
(-1.24635e-296 -4.34078e-297 0)
(-1.43601e-296 -3.40598e-297 0)
(-6.21769e-297 -1.48969e-297 0)
(-2.7197e-297 -8.80407e-298 0)
(-1.67045e-297 -5.87759e-298 0)
(-1.14701e-297 -4.08254e-298 0)
(-8.22999e-298 -2.86617e-298 0)
(-6.01097e-298 -2.00978e-298 0)
(-4.41076e-298 -1.39767e-298 0)
(-3.22192e-298 -9.57314e-299 0)
(-2.32066e-298 -6.38811e-299 0)
(-1.62556e-298 -4.06266e-299 0)
(-3.61698e-298 -6.99809e-298 0)
(-9.51701e-298 -2.04527e-297 0)
(-1.5832e-297 -3.30808e-297 0)
(-2.30027e-297 -4.4318e-297 0)
(-3.13715e-297 -5.37977e-297 0)
(-4.11389e-297 -6.13223e-297 0)
(-5.24206e-297 -6.67921e-297 0)
(-6.52852e-297 -7.01439e-297 0)
(-7.97813e-297 -7.13016e-297 0)
(-9.5949e-297 -7.01532e-297 0)
(-1.13826e-296 -6.65299e-297 0)
(-1.33476e-296 -6.01896e-297 0)
(-1.54505e-296 -5.14837e-297 0)
(-6.68651e-297 -2.2613e-297 0)
(-2.89203e-297 -1.19918e-297 0)
(-1.76357e-297 -7.56863e-298 0)
(-1.20503e-297 -5.09549e-298 0)
(-8.61462e-298 -3.50766e-298 0)
(-6.2734e-298 -2.42821e-298 0)
(-4.59211e-298 -1.67492e-298 0)
(-3.34756e-298 -1.14197e-298 0)
(-2.4071e-298 -7.60943e-299 0)
(-1.68383e-298 -4.84831e-299 0)
(-3.07464e-298 -8.86642e-298 0)
(-7.63281e-298 -2.54788e-297 0)
(-1.31714e-297 -4.09817e-297 0)
(-2.01709e-297 -5.46316e-297 0)
(-2.89061e-297 -6.60547e-297 0)
(-3.94647e-297 -7.51291e-297 0)
(-5.18583e-297 -8.18556e-297 0)
(-6.60792e-297 -8.62585e-297 0)
(-8.21251e-297 -8.83356e-297 0)
(-1.00008e-296 -8.8032e-297 0)
(-1.1975e-296 -8.52424e-297 0)
(-1.41418e-296 -7.97972e-297 0)
(-1.6455e-296 -7.20956e-297 0)
(-7.08613e-297 -3.16689e-297 0)
(-3.03005e-297 -1.54924e-297 0)
(-1.83672e-297 -9.32156e-298 0)
(-1.2493e-297 -6.10985e-298 0)
(-8.89897e-298 -4.13853e-298 0)
(-6.46117e-298 -2.83665e-298 0)
(-4.71777e-298 -1.94537e-298 0)
(-3.432e-298 -1.32279e-298 0)
(-2.46358e-298 -8.81373e-299 0)
(-1.72093e-298 -5.63067e-299 0)
(-1.71457e-298 -1.14541e-297 0)
(-3.67875e-298 -3.19656e-297 0)
(-7.93732e-298 -5.08612e-297 0)
(-1.47344e-297 -6.71914e-297 0)
(-2.40359e-297 -8.06616e-297 0)
(-3.56601e-297 -9.13154e-297 0)
(-4.94348e-297 -9.93081e-297 0)
(-6.52419e-297 -1.04786e-296 0)
(-8.30188e-297 -1.07827e-296 0)
(-1.02744e-296 -1.08446e-296 0)
(-1.24422e-296 -1.06603e-296 0)
(-1.48117e-296 -1.02246e-296 0)
(-1.73329e-296 -9.58689e-297 0)
(-7.3426e-297 -4.1605e-297 0)
(-3.10433e-297 -1.89143e-297 0)
(-1.8757e-297 -1.09176e-297 0)
(-1.2713e-297 -7.00769e-298 0)
(-9.02846e-298 -4.69383e-298 0)
(-6.53848e-298 -3.19805e-298 0)
(-4.76411e-298 -2.18709e-298 0)
(-3.4597e-298 -1.4864e-298 0)
(-2.47995e-298 -9.91827e-299 0)
(-1.73034e-298 -6.35884e-299 0)
(1.86205e-298 -1.52296e-297 0)
(4.28141e-298 -4.05488e-297 0)
(1.52217e-298 -6.33208e-297 0)
(-5.51577e-298 -8.24641e-297 0)
(-1.59812e-297 -9.79548e-297 0)
(-2.92145e-297 -1.10117e-296 0)
(-4.48e-297 -1.19323e-296 0)
(-6.25129e-297 -1.25854e-296 0)
(-8.22485e-297 -1.29877e-296 0)
(-1.03964e-296 -1.31452e-296 0)
(-1.27639e-296 -1.30607e-296 0)
(-1.53311e-296 -1.27424e-296 0)
(-1.80528e-296 -1.22571e-296 0)
(-7.2612e-297 -5.10789e-297 0)
(-3.06007e-297 -2.14836e-297 0)
(-1.85732e-297 -1.20377e-297 0)
(-1.2586e-297 -7.64502e-298 0)
(-8.93082e-298 -5.10177e-298 0)
(-6.46199e-298 -3.47312e-298 0)
(-4.70477e-298 -2.37702e-298 0)
(-3.41445e-298 -1.61864e-298 0)
(-2.44621e-298 -1.08341e-298 0)
(-1.70595e-298 -6.97712e-299 0)
(1.27404e-297 -1.98876e-297 0)
(2.04369e-297 -5.21398e-297 0)
(1.77701e-297 -7.91045e-297 0)
(8.8741e-298 -1.00958e-296 0)
(-4.03424e-298 -1.18273e-296 0)
(-1.97677e-297 -1.31772e-296 0)
(-3.7751e-297 -1.42075e-296 0)
(-5.77548e-297 -1.49611e-296 0)
(-7.97164e-297 -1.54607e-296 0)
(-1.03612e-296 -1.57143e-296 0)
(-1.29378e-296 -1.57252e-296 0)
(-1.56914e-296 -1.55131e-296 0)
(-1.85828e-296 -1.51666e-296 0)
(-6.26586e-297 -5.65489e-297 0)
(-2.83863e-297 -2.19451e-297 0)
(-1.75181e-297 -1.23236e-297 0)
(-1.19686e-297 -7.89272e-298 0)
(-8.53183e-298 -5.30185e-298 0)
(-6.19205e-298 -3.62816e-298 0)
(-4.51789e-298 -2.49462e-298 0)
(-3.28392e-298 -1.70642e-298 0)
(-2.35531e-298 -1.14764e-298 0)
(-1.64369e-298 -7.43082e-299 0)
(4.87255e-297 -2.71638e-297 0)
(4.99382e-297 -6.64048e-297 0)
(4.20454e-297 -9.7437e-297 0)
(2.83493e-297 -1.21755e-296 0)
(1.13251e-297 -1.40697e-296 0)
(-7.82887e-298 -1.55405e-296 0)
(-2.86978e-297 -1.66742e-296 0)
(-5.12627e-297 -1.75261e-296 0)
(-7.56467e-297 -1.81238e-296 0)
(-1.01933e-296 -1.84742e-296 0)
(-1.30004e-296 -1.85786e-296 0)
(-1.5933e-296 -1.84441e-296 0)
(-8.85194e-297 -8.60178e-297 0)
(-3.87101e-297 -3.64289e-297 0)
(-2.2988e-297 -1.89708e-297 0)
(-1.52714e-297 -1.16578e-297 0)
(-1.07612e-297 -7.71053e-298 0)
(-7.7959e-298 -5.26557e-298 0)
(-5.71475e-298 -3.64265e-298 0)
(-4.19787e-298 -2.52552e-298 0)
(-3.06588e-298 -1.73981e-298 0)
(-2.20642e-298 -1.17772e-298 0)
(-1.54335e-298 -7.67438e-299 0)
(3.67033e-297 -2.06556e-297 0)
(2.96256e-297 -4.07481e-297 0)
(2.23545e-297 -5.44277e-297 0)
(1.37041e-297 -6.36722e-297 0)
(4.74024e-298 -7.02096e-297 0)
(-4.46038e-298 -7.48638e-297 0)
(-1.40152e-297 -7.80772e-297 0)
(-2.40704e-297 -8.00544e-297 0)
(-3.46417e-297 -8.07572e-297 0)
(-4.53634e-297 -7.9721e-297 0)
(-5.48739e-297 -7.5285e-297 0)
(-5.92413e-297 -6.2327e-297 0)
(-3.74646e-297 -3.8026e-297 0)
(-2.4369e-297 -2.39286e-297 0)
(-1.71358e-297 -1.54155e-297 0)
(-1.23984e-297 -1.03551e-297 0)
(-9.13824e-298 -7.14469e-298 0)
(-6.79703e-298 -4.99805e-298 0)
(-5.0674e-298 -3.51331e-298 0)
(-3.76546e-298 -2.46495e-298 0)
(-2.77261e-298 -1.7144e-298 0)
(-2.00706e-298 -1.17004e-298 0)
(-1.40959e-298 -7.68054e-299 0)
(9.57373e-298 -1.80744e-297 0)
(5.06769e-298 -2.41843e-297 0)
(2.7519e-298 -2.70915e-297 0)
(2.09407e-299 -2.95877e-297 0)
(-2.61225e-298 -3.16389e-297 0)
(-5.74062e-298 -3.31682e-297 0)
(-9.17168e-298 -3.41665e-297 0)
(-1.28575e-297 -3.46388e-297 0)
(-1.66396e-297 -3.45517e-297 0)
(-2.0138e-297 -3.37615e-297 0)
(-2.25852e-297 -3.19192e-297 0)
(-2.27473e-297 -2.86877e-297 0)
(-1.94564e-297 -2.28873e-297 0)
(-1.56825e-297 -1.6975e-297 0)
(-1.23715e-297 -1.22428e-297 0)
(-9.61824e-298 -8.79896e-298 0)
(-7.41841e-298 -6.32818e-298 0)
(-5.6858e-298 -4.54925e-298 0)
(-4.32742e-298 -3.26018e-298 0)
(-3.26331e-298 -2.32097e-298 0)
(-2.42879e-298 -1.63313e-298 0)
(-1.77203e-298 -1.12534e-298 0)
(-1.25141e-298 -7.44765e-299 0)
(-1.59091e-298 -1.2347e-297 0)
(-1.82596e-298 -1.55014e-297 0)
(-2.05269e-298 -1.69545e-297 0)
(-2.71772e-298 -1.82511e-297 0)
(-3.7545e-298 -1.93517e-297 0)
(-5.09256e-298 -2.01836e-297 0)
(-6.66584e-298 -2.07187e-297 0)
(-8.38833e-298 -2.09513e-297 0)
(-1.01216e-297 -2.08698e-297 0)
(-1.16435e-297 -2.0423e-297 0)
(-1.26406e-297 -1.9487e-297 0)
(-1.27728e-297 -1.78734e-297 0)
(-1.19602e-297 -1.53348e-297 0)
(-1.05346e-297 -1.23616e-297 0)
(-8.89125e-298 -9.56761e-298 0)
(-7.27891e-298 -7.24084e-298 0)
(-5.83353e-298 -5.40461e-298 0)
(-4.59977e-298 -3.9923e-298 0)
(-3.5758e-298 -2.92037e-298 0)
(-2.73993e-298 -2.11268e-298 0)
(-2.06408e-298 -1.50588e-298 0)
(-1.51968e-298 -1.0487e-298 0)
(-1.08021e-298 -7.00089e-299 0)
(-3.17249e-298 -7.44282e-298 0)
(-3.15919e-298 -1.01622e-297 0)
(-3.0444e-298 -1.14727e-297 0)
(-3.1883e-298 -1.2436e-297 0)
(-3.60325e-298 -1.31863e-297 0)
(-4.24218e-298 -1.37341e-297 0)
(-5.04731e-298 -1.4078e-297 0)
(-5.94709e-298 -1.42194e-297 0)
(-6.84606e-298 -1.41535e-297 0)
(-7.61964e-298 -1.38544e-297 0)
(-8.12517e-298 -1.32624e-297 0)
(-8.24181e-298 -1.22921e-297 0)
(-7.94193e-298 -1.08742e-297 0)
(-7.27991e-298 -9.15703e-298 0)
(-6.39431e-298 -7.40991e-298 0)
(-5.42662e-298 -5.82683e-298 0)
(-4.48282e-298 -4.48664e-298 0)
(-3.62301e-298 -3.39777e-298 0)
(-2.87274e-298 -2.53571e-298 0)
(-2.23612e-298 -1.8645e-298 0)
(-1.70555e-298 -1.34685e-298 0)
(-1.26778e-298 -9.48292e-299 0)
(-9.0744e-299 -6.38659e-299 0)
(-2.78878e-298 -4.46081e-298 0)
(-2.96284e-298 -6.65786e-298 0)
(-2.90029e-298 -7.85674e-298 0)
(-2.92543e-298 -8.68435e-298 0)
(-3.10289e-298 -9.28595e-298 0)
(-3.42222e-298 -9.7078e-298 0)
(-3.84982e-298 -9.96875e-298 0)
(-4.33825e-298 -1.00784e-297 0)
(-4.82731e-298 -1.00375e-297 0)
(-5.24646e-298 -9.83302e-298 0)
(-5.52367e-298 -9.43412e-298 0)
(-5.60243e-298 -8.80082e-298 0)
(-5.46053e-298 -7.91428e-298 0)
(-5.10838e-298 -6.83853e-298 0)
(-4.5985e-298 -5.69934e-298 0)
(-4.00191e-298 -4.61085e-298 0)
(-3.38402e-298 -3.6414e-298 0)
(-2.79178e-298 -2.81842e-298 0)
(-2.25278e-298 -2.1426e-298 0)
(-1.77936e-298 -1.60022e-298 0)
(-1.37345e-298 -1.17119e-298 0)
(-1.0306e-298 -8.3359e-299 0)
(-7.428e-299 -5.66234e-299 0)
(-2.12234e-298 -2.69868e-298 0)
(-2.38127e-298 -4.35898e-298 0)
(-2.40195e-298 -5.37402e-298 0)
(-2.42321e-298 -6.08557e-298 0)
(-2.51399e-298 -6.59417e-298 0)
(-2.68312e-298 -6.94554e-298 0)
(-2.91632e-298 -7.16387e-298 0)
(-3.18648e-298 -7.26242e-298 0)
(-3.4581e-298 -7.2456e-298 0)
(-3.69104e-298 -7.10786e-298 0)
(-3.84601e-298 -6.83419e-298 0)
(-3.89194e-298 -6.40709e-298 0)
(-3.81237e-298 -5.82363e-298 0)
(-3.60772e-298 -5.11768e-298 0)