/*--------------------------------*- C++ -*----------------------------------*\
| =========                 |                                                 |
| \\      /  F ield         | OpenFOAM: The Open Source CFD Toolbox           |
|  \\    /   O peration     | Version:  2406                                  |
|   \\  /    A nd           | Website:  www.openfoam.com                      |
|    \\/     M anipulation  |                                                 |
\*---------------------------------------------------------------------------*/
FoamFile
{
    version     2.0;
    format      ascii;
    arch        "LSB;label=32;scalar=64";
    class       volScalarField;
    location    "0.1";
    object      epsilon;
}
// * * * * * * * * * * * * * * * * * * * * * * * * * * * * * * * * * * * * * //

dimensions      [0 2 -3 0 0 0 0];

internalField   nonuniform List<scalar> 
2268
(
0.285499
0.412355
0.4964
0.534785
0.550378
0.556318
0.558472
0.559226
0.559483
0.559568
0.559596
0.559604
0.559602
0.559586
0.559531
0.55935
0.558768
0.556958
0.551581
0.536582
0.498148
0.410254
0.253058
0.313255
0.286185
0.291958
0.293921
0.29412
0.293949
0.2938
0.29372
0.293685
0.293671
0.293666
0.293664
0.293664
0.293667
0.293675
0.293697
0.293751
0.293859
0.293985
0.293767
0.291792
0.285122
0.301652
0.368903
0.265454
0.242909
0.232545
0.227365
0.224885
0.223776
0.223312
0.223129
0.223061
0.223036
0.223029
0.22303
0.223043
0.223084
0.223204
0.223541
0.224425
0.226586
0.231473
0.241841
0.264724
0.367105
0.402392
0.254977
0.216413
0.199103
0.190691
0.186672
0.184842
0.184054
0.183733
0.183609
0.183563
0.183549
0.183552
0.183574
0.183646
0.183852
0.184408
0.18583
0.189257
0.197061
0.214263
0.25405
0.403961
0.424122
0.24781
0.198996
0.17716
0.16651
0.161328
0.1589
0.157818
0.157361
0.157177
0.157108
0.157086
0.157089
0.157121
0.157222
0.157502
0.158234
0.160047
0.164305
0.173899
0.195287
0.24621
0.429359
0.438293
0.242629
0.186889
0.161892
0.149591
0.143491
0.140554
0.139204
0.138615
0.138371
0.138276
0.138244
0.138247
0.138289
0.138416
0.138757
0.139621
0.141697
0.146456
0.157046
0.180872
0.239803
0.452684
0.44741
0.238878
0.178317
0.151009
0.13744
0.130595
0.127221
0.125628
0.124913
0.124609
0.124487
0.124446
0.124448
0.124497
0.124645
0.125032
0.125984
0.12821
0.13319
0.144113
0.168854
0.233748
0.493717
0.453177
0.23619
0.172219
0.143169
0.128595
0.121133
0.117382
0.11557
0.114737
0.114374
0.114226
0.114174
0.114174
0.114229
0.114392
0.114809
0.115808
0.11808
0.123041
0.13369
0.157604
0.224658
0.638369
0.265368
0.425801
0.509596
0.542888
0.554454
0.558108
0.559188
0.559492
0.559572
0.559584
0.559552
0.559428
0.559011
0.557667
0.553497
0.54123
0.507718
0.42763
0.29993
0.298583
0.286975
0.29263
0.293935
0.293939
0.293795
0.293713
0.293679
0.293669
0.293667
0.293673
0.293692
0.293744
0.293863
0.294059
0.294095
0.292812
0.288067
0.312008
0.36322
0.26177
0.239107
0.229545
0.225473
0.223874
0.2233
0.223109
0.223053
0.223045
0.223072
0.223168
0.223449
0.224209
0.226122
0.230563
0.240258
0.262655
0.365794
0.398096
0.248367
0.209552
0.193944
0.187486
0.184943
0.184009
0.18369
0.183592
0.183579
0.18363
0.183802
0.184287
0.185558
0.188675
0.195852
0.211819
0.249577
0.396852
0.421631
0.238704
0.189348
0.17005
0.162104
0.158917
0.157709
0.157282
0.157147
0.157131
0.157207
0.157458
0.158138
0.159854
0.163919
0.173047
0.193166
0.240805
0.416713
0.443586
0.230878
0.174177
0.152782
0.143995
0.140403
0.139002
0.138489
0.138324
0.138307
0.13841
0.13874
0.139605
0.141714
0.146552
0.157156
0.180221
0.234602
0.429681
0.483083
0.223493
0.16181
0.139698
0.130612
0.126823
0.125302
0.124729
0.12454
0.124525
0.124658
0.125065
0.126103
0.128559
0.134041
0.145803
0.171057
0.230189
0.438062
0.615426
0.213324
0.150706
0.12937
0.12047
0.116663
0.115092
0.114484
0.11428
0.11427
0.114432
0.114915
0.116113
0.118876
0.124902
0.137598
0.164529
0.227072
0.443383
0.458767
0.233217
0.165451
0.134311
0.118473
0.110208
0.105949
0.103832
0.102829
0.102378
0.102189
0.10212
0.102116
0.102176
0.102354
0.102792
0.103803
0.106014
0.110634
0.120037
0.139301
0.181111
0.283409
0.461608
0.231375
0.161091
0.128326
0.111405
0.102406
0.0976582
0.0952331
0.0940499
0.0935025
0.0932645
0.0931735
0.0931605
0.0932157
0.0933832
0.0937836
0.0946679
0.0965084
0.100136
0.106959
0.119326
0.141033
0.177162
0.462642
0.230582
0.159105
0.125433
0.107846
0.0983658
0.0932844
0.090641
0.0893257
0.0887044
0.0884281
0.0883179
0.0882936
0.0883357
0.0884733
0.0887954
0.0894821
0.0908516
0.0934119
0.097897
0.105228
0.116216
0.130429
0.463008
0.23026
0.158246
0.124099
0.106127
0.0963523
0.0910582
0.0882715
0.086867
0.0861945
0.0858906
0.0857653
0.0857297
0.0857548
0.0858545
0.0860867
0.086568
0.0874937
0.0891491
0.0918847
0.0960112
0.101534
0.107628
0.463135
0.230137
0.157892
0.123514
0.105338
0.095397
0.0899782
0.087105
0.0856454
0.0849405
0.0846184
0.0844822
0.0844368
0.0844456
0.0845095
0.084661
0.0849684
0.0855426
0.0865326
0.0880957
0.0903175
0.0930686
0.0958197
0.463178
0.230091
0.157754
0.123271
0.104994
0.0949671
0.089481
0.0865599
0.085069
0.0843452
0.0840122
0.0838688
0.083816
0.0838117
0.0838472
0.0839371
0.0841176
0.0844468
0.0849979
0.0858378
0.0869812
0.0883244
0.0895884
0.463192
0.230075
0.157702
0.123175
0.104851
0.0947832
0.0892636
0.0863179
0.0848106
0.0840767
0.0837376
0.0835899
0.083532
0.0835184
0.0835343
0.0835828
0.083681
0.0838566
0.0841436
0.084569
0.0851301
0.0857659
0.086342
0.463197
0.230069
0.157684
0.123138
0.104795
0.0947082
0.089173
0.0862156
0.0847003
0.0839613
0.083619
0.0834688
0.0834078
0.0833884
0.083392
0.0834155
0.083465
0.0835528
0.0836934
0.0838972
0.0841596
0.0844495
0.0847061
0.463198
0.230067
0.157677
0.123125
0.104774
0.0946789
0.0891369
0.0861742
0.0846552
0.0839138
0.0835699
0.0834184
0.0833556
0.0833328
0.0833295
0.0833391
0.0833623
0.0834035
0.0834687
0.0835615
0.0836787
0.0838061
0.0839175
0.463199
0.230067
0.157675
0.12312
0.104766
0.0946678
0.089123
0.0861581
0.0846375
0.083895
0.0835504
0.0833982
0.0833344
0.0833099
0.0833029
0.0833053
0.0833151
0.0833334
0.0833622
0.0834027
0.0834531
0.0835075
0.0835553
0.463199
0.230067
0.157674
0.123118
0.104763
0.0946638
0.0891179
0.086152
0.0846307
0.0838878
0.0835429
0.0833904
0.0833261
0.0833006
0.0832918
0.0832907
0.0832942
0.0833019
0.0833141
0.0833312
0.0833525
0.0833756
0.0833966
0.463199
0.230066
0.157674
0.123118
0.104762
0.0946624
0.089116
0.0861498
0.0846283
0.0838851
0.08354
0.0833874
0.0833229
0.083297
0.0832873
0.0832846
0.0832853
0.0832882
0.0832933
0.0833005
0.0833096
0.08332
0.0833301
0.463199
0.230066
0.157674
0.123118
0.104762
0.0946619
0.0891154
0.086149
0.0846274
0.0838842
0.083539
0.0833863
0.0833217
0.0832956
0.0832856
0.0832822
0.0832816
0.0832826
0.0832846
0.0832878
0.0832921
0.0832974
0.0833033
0.463199
0.230066
0.157674
0.123117
0.104762
0.0946617
0.0891151
0.0861487
0.0846271
0.0838838
0.0835387
0.0833859
0.0833213
0.0832951
0.0832849
0.0832812
0.0832801
0.0832803
0.0832812
0.0832828
0.0832852
0.0832886
0.083293
0.463199
0.230066
0.157674
0.123117
0.104762
0.0946617
0.0891151
0.0861486
0.084627
0.0838837
0.0835385
0.0833858
0.0833211
0.0832949
0.0832846
0.0832808
0.0832796
0.0832794
0.0832798
0.0832808
0.0832826
0.0832853
0.0832891
0.463199
0.230066
0.157674
0.123117
0.104762
0.0946617
0.089115
0.0861486
0.0846269
0.0838837
0.0835385
0.0833857
0.0833211
0.0832948
0.0832845
0.0832807
0.0832793
0.083279
0.0832793
0.0832801
0.0832816
0.0832841
0.0832877
0.463199
0.230066
0.157674
0.123117
0.104761
0.0946617
0.089115
0.0861486
0.0846269
0.0838837
0.0835385
0.0833857
0.0833211
0.0832948
0.0832845
0.0832806
0.0832793
0.0832789
0.0832791
0.0832799
0.0832813
0.0832836
0.0832872
0.463199
0.230066
0.157674
0.123117
0.104761
0.0946617
0.089115
0.0861486
0.0846269
0.0838837
0.0835385
0.0833857
0.0833211
0.0832948
0.0832845
0.0832806
0.0832792
0.0832789
0.0832791
0.0832798
0.0832811
0.0832835
0.083287
0.463199
0.230066
0.157674
0.123117
0.104761
0.0946617
0.089115
0.0861486
0.0846269
0.0838837
0.0835385
0.0833857
0.0833211
0.0832948
0.0832845
0.0832806
0.0832792
0.0832789
0.0832791
0.0832797
0.0832811
0.0832834
0.0832869
0.463199
0.230066
0.157674
0.123117
0.104761
0.0946617
0.089115
0.0861486
0.0846269
0.0838837
0.0835385
0.0833857
0.0833211
0.0832948
0.0832845
0.0832806
0.0832792
0.0832789
0.083279
0.0832797
0.0832811
0.0832834
0.0832869
0.463199
0.230066
0.157674
0.123117
0.104761
0.0946617
0.089115
0.0861486
0.0846269
0.0838837
0.0835385
0.0833857
0.0833211
0.0832948
0.0832845
0.0832806
0.0832792
0.0832789
0.083279
0.0832797
0.0832811
0.0832834
0.0832869
0.463199
0.230066
0.157674
0.123117
0.104761
0.0946617
0.089115
0.0861486
0.0846269
0.0838837
0.0835385
0.0833857
0.0833211
0.0832948
0.0832845
0.0832806
0.0832792
0.0832789
0.083279
0.0832797
0.0832811
0.0832834
0.0832869
0.463199
0.230066
0.157674
0.123117
0.104761
0.0946617
0.089115
0.0861486
0.0846269
0.0838837
0.0835385
0.0833857
0.0833211
0.0832948
0.0832845
0.0832806
0.0832792
0.0832789
0.083279
0.0832797
0.0832811
0.0832834
0.0832869
0.463199
0.230066
0.157674
0.123117
0.104761
0.0946617
0.089115
0.0861486
0.0846269
0.0838837
0.0835385
0.0833857
0.0833211
0.0832948
0.0832845
0.0832806
0.0832792
0.0832789
0.083279
0.0832797
0.0832811
0.0832834
0.0832869
0.463199
0.230066
0.157674
0.123117
0.104761
0.0946617
0.089115
0.0861486
0.0846269
0.0838837
0.0835385
0.0833857
0.0833211
0.0832948
0.0832845
0.0832806
0.0832792
0.0832789
0.083279
0.0832797
0.0832811
0.0832834
0.0832869
0.463199
0.230066
0.157674
0.123117
0.104761
0.0946617
0.089115
0.0861486
0.0846269
0.0838837
0.0835385
0.0833857
0.0833211
0.0832948
0.0832845
0.0832806
0.0832792
0.0832789
0.083279
0.0832797
0.0832811
0.0832834
0.0832869
0.463199
0.230066
0.157674
0.123117
0.104761
0.0946617
0.089115
0.0861486
0.0846269
0.0838837
0.0835385
0.0833857
0.0833211
0.0832948
0.0832845
0.0832806
0.0832792
0.0832789
0.083279
0.0832797
0.0832811
0.0832834
0.0832869
0.463199
0.230066
0.157674
0.123117
0.104761
0.0946617
0.089115
0.0861486
0.0846269
0.0838837
0.0835385
0.0833857
0.0833211
0.0832948
0.0832845
0.0832806
0.0832792
0.0832789
0.083279
0.0832797
0.0832811
0.0832834
0.0832869
0.463199
0.230066
0.157674
0.123117
0.104761
0.0946617
0.089115
0.0861486
0.0846269
0.0838837
0.0835385
0.0833857
0.0833211
0.0832948
0.0832845
0.0832806
0.0832792
0.0832789
0.083279
0.0832797
0.0832811
0.0832834
0.0832869
0.463199
0.230066
0.157674
0.123117
0.104761
0.0946617
0.089115
0.0861486
0.0846269
0.0838837
0.0835385
0.0833857
0.0833211
0.0832948
0.0832845
0.0832806
0.0832792
0.0832789
0.083279
0.0832797
0.0832811
0.0832834
0.0832869
0.463199
0.230066
0.157674
0.123117
0.104761
0.0946617
0.089115
0.0861486
0.0846269
0.0838837
0.0835385
0.0833857
0.0833211
0.0832948
0.0832845
0.0832806
0.0832792
0.0832789
0.083279
0.0832797
0.0832811
0.0832834
0.0832869
0.463199
0.230066
0.157674
0.123117
0.104761
0.0946617
0.089115
0.0861486
0.0846269
0.0838837
0.0835385
0.0833857
0.0833211
0.0832948
0.0832845
0.0832806
0.0832792
0.0832789
0.083279
0.0832797
0.0832811
0.0832834
0.0832869
0.463199
0.230066
0.157674
0.123117
0.104761
0.0946617
0.089115
0.0861486
0.0846269
0.0838837
0.0835385
0.0833857
0.0833211
0.0832948
0.0832845
0.0832806
0.0832792
0.0832789
0.083279
0.0832797
0.0832811
0.0832834
0.0832869
0.463199
0.230066
0.157674
0.123117
0.104761
0.0946617
0.089115
0.0861486
0.0846269
0.0838837
0.0835385
0.0833857
0.0833211
0.0832948
0.0832845
0.0832806
0.0832792
0.0832789
0.083279
0.0832797
0.0832811
0.0832834
0.0832869
0.463199
0.230066
0.157674
0.123117
0.104761
0.0946617
0.089115
0.0861486
0.0846269
0.0838837
0.0835385
0.0833857
0.0833211
0.0832948
0.0832845
0.0832806
0.0832792
0.0832789
0.083279
0.0832797
0.0832811
0.0832834
0.0832869
0.463199
0.230066
0.157674
0.123117
0.104761
0.0946617
0.089115
0.0861486
0.0846269
0.0838837
0.0835385
0.0833857
0.0833211
0.0832948
0.0832845
0.0832806
0.0832792
0.0832789
0.083279
0.0832797
0.0832811
0.0832834
0.0832869
0.463199
0.230066
0.157674
0.123117
0.104761
0.0946617
0.089115
0.0861486
0.0846269
0.0838837
0.0835385
0.0833857
0.0833211
0.0832948
0.0832845
0.0832806
0.0832792
0.0832788
0.083279
0.0832797
0.083281
0.0832833
0.0832868
0.463199
0.230066
0.157674
0.123117
0.104762
0.0946617
0.089115
0.0861486
0.0846269
0.0838837
0.0835385
0.0833857
0.083321
0.0832948
0.0832845
0.0832806
0.0832792
0.0832788
0.083279
0.0832797
0.083281
0.0832833
0.0832867
0.463199
0.230066
0.157674
0.123117
0.104762
0.0946617
0.089115
0.0861486
0.0846269
0.0838836
0.0835385
0.0833857
0.083321
0.0832947
0.0832844
0.0832806
0.0832792
0.0832788
0.083279
0.0832796
0.083281
0.0832832
0.0832866
0.463199
0.230066
0.157674
0.123117
0.104762
0.0946617
0.089115
0.0861486
0.0846269
0.0838836
0.0835384
0.0833857
0.083321
0.0832947
0.0832844
0.0832805
0.0832792
0.0832788
0.083279
0.0832796
0.0832809
0.0832831
0.0832864
0.463199
0.230066
0.157674
0.123117
0.104762
0.0946617
0.089115
0.0861486
0.0846269
0.0838836
0.0835384
0.0833857
0.083321
0.0832947
0.0832844
0.0832805
0.0832791
0.0832788
0.0832789
0.0832796
0.0832808
0.0832829
0.0832861
0.463199
0.230066
0.157674
0.123117
0.104762
0.0946617
0.089115
0.0861486
0.0846269
0.0838836
0.0835384
0.0833857
0.083321
0.0832947
0.0832844
0.0832805
0.0832791
0.0832788
0.0832789
0.0832795
0.0832808
0.0832828
0.0832859
0.653916
0.526707
0.52598
0.649152
0.216347
0.221474
0.221448
0.216333
0.139742
0.142658
0.142659
0.139752
0.110827
0.111926
0.111927
0.110831
0.0971144
0.0975584
0.097559
0.0971167
0.09015
0.0903408
0.0903414
0.0901519
0.0865902
0.0866743
0.0866747
0.0865917
0.0848153
0.0848524
0.0848527
0.0848164
0.0839652
0.0839817
0.083982
0.0839661
0.0835765
0.0835841
0.0835844
0.0835773
0.0834068
0.0834108
0.083411
0.0834076
0.0833359
0.0833385
0.0833387
0.0833367
0.0833075
0.0833095
0.0833097
0.0833082
0.0832965
0.0832983
0.0832985
0.0832972
0.0832924
0.0832941
0.0832943
0.0832931
0.0832909
0.0832926
0.0832928
0.0832916
0.0832904
0.0832921
0.0832922
0.0832911
0.0832902
0.0832919
0.0832921
0.0832909
0.0832901
0.0832918
0.083292
0.0832908
0.0832901
0.0832918
0.083292
0.0832908
0.0832901
0.0832918
0.083292
0.0832908
0.0832901
0.0832918
0.083292
0.0832908
0.0832901
0.0832918
0.083292
0.0832908
0.0832901
0.0832918
0.083292
0.0832908
0.0832901
0.0832918
0.083292
0.0832908
0.0832901
0.0832918
0.083292
0.0832908
0.0832901
0.0832918
0.083292
0.0832908
0.0832901
0.0832918
0.083292
0.0832908
0.0832901
0.0832918
0.083292
0.0832908
0.0832901
0.0832918
0.083292
0.0832908
0.0832901
0.0832918
0.083292
0.0832908
0.0832901
0.0832918
0.083292
0.0832908
0.0832901
0.0832918
0.083292
0.0832908
0.0832901
0.0832918
0.083292
0.0832908
0.0832901
0.0832918
0.0832919
0.0832908
0.0832901
0.0832917
0.0832919
0.0832908
0.08329
0.0832917
0.0832919
0.0832907
0.0832899
0.0832916
0.0832917
0.0832906
0.0832897
0.0832913
0.0832915
0.0832904
0.0832894
0.083291
0.0832911
0.08329
0.083289
0.0832904
0.0832905
0.0832894
0.0832885
0.0832898
0.0832899
0.0832888
0.276747
0.173948
0.133705
0.116208
0.108235
0.104634
0.103078
0.102452
0.102239
0.102241
0.10245
0.103043
0.104468
0.107653
0.1144
0.128288
0.157265
0.223664
0.448561
0.175087
0.137329
0.115739
0.104178
0.0982487
0.0953575
0.0940344
0.0934785
0.0932912
0.0933196
0.0935866
0.0943028
0.0959663
0.0995685
0.106992
0.121928
0.152545
0.22157
0.451207
0.129777
0.114399
0.103121
0.096072
0.0920783
0.089994
0.0889916
0.0885572
0.0884187
0.0884803
0.0887964
0.0896066
0.091443
0.0953369
0.103213
0.118813
0.150369
0.220671
0.452175
0.107397
0.100652
0.0948375
0.0907742
0.0882863
0.0869138
0.0862268
0.0859244
0.085842
0.0859362
0.0862905
0.0871664
0.089119
0.0932023
0.101361
0.117353
0.149416
0.220306
0.45252
0.0957291
0.092641
0.0896914
0.0874626
0.0860165
0.0851835
0.084754
0.0845665
0.0845346
0.0846562
0.0850376
0.0859559
0.0879801
0.0921766
0.100498
0.116703
0.149019
0.220164
0.45264
0.0895509
0.0881199
0.0866613
0.0854982
0.0847108
0.0842421
0.0839961
0.0838943
0.0839011
0.0840431
0.0844421
0.0853855
0.0874502
0.0917089
0.100117
0.116429
0.148861
0.220112
0.452681
0.0863262
0.0856706
0.084974
0.0843974
0.0839945
0.083749
0.08362
0.0835747
0.0836079
0.0837633
0.0841729
0.08513
0.0872161
0.0915063
0.0999564
0.116319
0.148802
0.220093
0.452694
0.0846997
0.0844066
0.084087
0.0838153
0.083621
0.0835009
0.0834399
0.0834284
0.0834777
0.0836413
0.0840568
0.085021
0.0871174
0.0914227
0.099892
0.116276
0.14878
0.220087
0.452699
0.0839151
0.0837876
0.0836466
0.0835245
0.0834358
0.0833811
0.0833565
0.0833637
0.083422
0.0835902
0.0840088
0.0849764
0.0870777
0.0913896
0.0998673
0.11626
0.148772
0.220085
0.4527
0.0835545
0.0834999
0.0834395
0.0833868
0.0833484
0.0833256
0.0833192
0.0833359
0.0833989
0.0835695
0.0839896
0.0849589
0.0870622
0.091377
0.0998581
0.116255
0.14877
0.220084
0.452701
0.0833965
0.0833725
0.0833469
0.0833247
0.0833089
0.0833008
0.083303
0.0833243
0.0833896
0.0835614
0.0839823
0.0849522
0.0870564
0.0913723
0.0998548
0.116253
0.148769
0.220084
0.452701
0.0833303
0.0833187
0.0833073
0.083298
0.0832919
0.0832902
0.0832962
0.0833196
0.0833859
0.0835583
0.0839795
0.0849497
0.0870543
0.0913706
0.0998536
0.116252
0.148768
0.220084
0.452701
0.0833036
0.0832969
0.0832911
0.0832869
0.0832848
0.0832858
0.0832934
0.0833177
0.0833845
0.0835571
0.0839785
0.0849489
0.0870536
0.0913701
0.0998532
0.116252
0.148768
0.220084
0.452701
0.0832933
0.0832883
0.0832847
0.0832825
0.0832819
0.083284
0.0832923
0.0833169
0.083384
0.0835567
0.0839781
0.0849486
0.0870533
0.0913699
0.0998531
0.116252
0.148768
0.220084
0.452701
0.0832894
0.0832851
0.0832823
0.0832808
0.0832808
0.0832833
0.0832919
0.0833167
0.0833838
0.0835565
0.083978
0.0849484
0.0870532
0.0913698
0.099853
0.116252
0.148768
0.220084
0.452701
0.083288
0.0832839
0.0832814
0.0832802
0.0832804
0.083283
0.0832917
0.0833166
0.0833837
0.0835565
0.083978
0.0849484
0.0870532
0.0913698
0.099853
0.116252
0.148768
0.220084
0.452701
0.0832875
0.0832835
0.0832811
0.08328
0.0832802
0.0832829
0.0832917
0.0833165
0.0833837
0.0835565
0.0839779
0.0849484
0.0870532
0.0913698
0.099853
0.116252
0.148768
0.220084
0.452701
0.0832873
0.0832834
0.0832809
0.0832799
0.0832802
0.0832829
0.0832916
0.0833165
0.0833837
0.0835565
0.0839779
0.0849484
0.0870532
0.0913698
0.099853
0.116252
0.148768
0.220084
0.452701
0.0832872
0.0832833
0.0832809
0.0832798
0.0832802
0.0832829
0.0832916
0.0833165
0.0833837
0.0835565
0.0839779
0.0849484
0.0870532
0.0913698
0.099853
0.116252
0.148768
0.220084
0.452701
0.0832872
0.0832833
0.0832809
0.0832798
0.0832802
0.0832829
0.0832916
0.0833165
0.0833837
0.0835565
0.0839779
0.0849484
0.0870532
0.0913698
0.099853
0.116252
0.148768
0.220084
0.452701
0.0832872
0.0832833
0.0832809
0.0832798
0.0832802
0.0832829
0.0832916
0.0833165
0.0833837
0.0835565
0.0839779
0.0849484
0.0870532
0.0913698
0.099853
0.116252
0.148768
0.220084
0.452701
0.0832872
0.0832833
0.0832809
0.0832798
0.0832802
0.0832829
0.0832916
0.0833165
0.0833837
0.0835565
0.0839779
0.0849484
0.0870532
0.0913698
0.099853
0.116252
0.148768
0.220084
0.452701
0.0832872
0.0832833
0.0832809
0.0832798
0.0832802
0.0832829
0.0832916
0.0833165
0.0833837
0.0835565
0.0839779
0.0849484
0.0870532
0.0913698
0.099853
0.116252
0.148768
0.220084
0.452701
0.0832872
0.0832833
0.0832809
0.0832798
0.0832802
0.0832829
0.0832916
0.0833165
0.0833837
0.0835565
0.0839779
0.0849484
0.0870532
0.0913698
0.099853
0.116252
0.148768
0.220084
0.452701
0.0832872
0.0832833
0.0832809
0.0832798
0.0832802
0.0832829
0.0832916
0.0833165
0.0833837
0.0835565
0.0839779
0.0849484
0.0870532
0.0913698
0.099853
0.116252
0.148768
0.220084
0.452701
0.0832872
0.0832833
0.0832809
0.0832798
0.0832802
0.0832829
0.0832916
0.0833165
0.0833837
0.0835565
0.0839779
0.0849484
0.0870532
0.0913698
0.099853
0.116252
0.148768
0.220084
0.452701
0.0832872
0.0832833
0.0832809
0.0832798
0.0832802
0.0832829
0.0832916
0.0833165
0.0833837
0.0835565
0.0839779
0.0849484
0.0870532
0.0913698
0.099853
0.116252
0.148768
0.220084
0.452701
0.0832872
0.0832833
0.0832809
0.0832798
0.0832802
0.0832829
0.0832916
0.0833165
0.0833837
0.0835565
0.0839779
0.0849484
0.0870532
0.0913698
0.099853
0.116252
0.148768
0.220084
0.452701
0.0832872
0.0832833
0.0832809
0.0832798
0.0832802
0.0832829
0.0832916
0.0833165
0.0833837
0.0835565
0.0839779
0.0849484
0.0870532
0.0913698
0.099853
0.116252
0.148768
0.220084
0.452701
0.0832872
0.0832833
0.0832809
0.0832798
0.0832802
0.0832829
0.0832916
0.0833165
0.0833837
0.0835565
0.0839779
0.0849484
0.0870532
0.0913698
0.099853
0.116252
0.148768
0.220084
0.452701
0.0832872
0.0832833
0.0832809
0.0832798
0.0832802
0.0832829
0.0832916
0.0833165
0.0833837
0.0835565
0.0839779
0.0849484
0.0870532
0.0913698
0.099853
0.116252
0.148768
0.220084
0.452701
0.0832872
0.0832833
0.0832809
0.0832798
0.0832802
0.0832829
0.0832916
0.0833165
0.0833837
0.0835565
0.0839779
0.0849484
0.0870532
0.0913698
0.099853
0.116252
0.148768
0.220084
0.452701
0.0832872
0.0832833
0.0832809
0.0832798
0.0832802
0.0832829
0.0832916
0.0833165
0.0833837
0.0835565
0.0839779
0.0849484
0.0870532
0.0913698
0.099853
0.116252
0.148768
0.220084
0.452701
0.0832872
0.0832833
0.0832809
0.0832798
0.0832802
0.0832829
0.0832916
0.0833165
0.0833837
0.0835565
0.0839779
0.0849484
0.0870532
0.0913698
0.099853
0.116252
0.148768
0.220084
0.452701
0.0832872
0.0832833
0.0832809
0.0832798
0.0832802
0.0832829
0.0832916
0.0833165
0.0833837
0.0835565
0.0839779
0.0849484
0.0870532
0.0913698
0.099853
0.116252
0.148768
0.220084
0.452701
0.0832872
0.0832833
0.0832809
0.0832798
0.0832801
0.0832829
0.0832916
0.0833165
0.0833837
0.0835565
0.0839779
0.0849484
0.0870532
0.0913698
0.099853
0.116252
0.148768
0.220084
0.452701
0.0832871
0.0832832
0.0832808
0.0832798
0.0832801
0.0832829
0.0832916
0.0833165
0.0833837
0.0835565
0.0839779
0.0849484
0.0870532
0.0913698
0.099853
0.116252
0.148768
0.220084
0.452701
0.083287
0.0832832
0.0832808
0.0832798
0.0832801
0.0832829
0.0832916
0.0833165
0.0833837
0.0835565
0.0839779
0.0849484
0.0870532
0.0913698
0.099853
0.116252
0.148768
0.220084
0.452701
0.0832869
0.083283
0.0832807
0.0832797
0.0832801
0.0832829
0.0832916
0.0833165
0.0833837
0.0835564
0.0839779
0.0849484
0.0870532
0.0913698
0.099853
0.116252
0.148768
0.220084
0.452701
0.0832866
0.0832829
0.0832806
0.0832797
0.0832801
0.0832828
0.0832916
0.0833165
0.0833837
0.0835564
0.0839779
0.0849484
0.0870532
0.0913698
0.099853
0.116252
0.148768
0.220084
0.452701
0.0832862
0.0832827
0.0832805
0.0832796
0.0832801
0.0832828
0.0832916
0.0833165
0.0833836
0.0835564
0.0839779
0.0849484
0.0870532
0.0913698
0.099853
0.116252
0.148768
0.220084
0.452701
0.0832858
0.0832825
0.0832804
0.0832796
0.08328
0.0832828
0.0832916
0.0833165
0.0833836
0.0835564
0.0839779
0.0849484
0.0870532
0.0913698
0.099853
0.116252
0.148768
0.220084
0.452701
)
;

boundaryField
{
    leftWall
    {
        type            epsilonWallFunction;
        blending        stepwise;
        value           nonuniform List<scalar> 
50
(
0.285499
0.313255
0.368903
0.402392
0.424122
0.438293
0.44741
0.453177
0.458767
0.461608
0.462642
0.463008
0.463135
0.463178
0.463192
0.463197
0.463198
0.463199
0.463199
0.463199
0.463199
0.463199
0.463199
0.463199
0.463199
0.463199
0.463199
0.463199
0.463199
0.463199
0.463199
0.463199
0.463199
0.463199
0.463199
0.463199
0.463199
0.463199
0.463199
0.463199
0.463199
0.463199
0.463199
0.463199
0.463199
0.463199
0.463199
0.463199
0.463199
0.463199
)
;
    }
    rightWall
    {
        type            epsilonWallFunction;
        blending        stepwise;
        value           nonuniform List<scalar> 
50
(
0.29993
0.312008
0.365794
0.396852
0.416713
0.429681
0.438062
0.443383
0.448561
0.451207
0.452175
0.45252
0.45264
0.452681
0.452694
0.452699
0.4527
0.452701
0.452701
0.452701
0.452701
0.452701
0.452701
0.452701
0.452701
0.452701
0.452701
0.452701
0.452701
0.452701
0.452701
0.452701
0.452701
0.452701
0.452701
0.452701
0.452701
0.452701
0.452701
0.452701
0.452701
0.452701
0.452701
0.452701
0.452701
0.452701
0.452701
0.452701
0.452701
0.452701
)
;
    }
    lowerWall
    {
        type            epsilonWallFunction;
        blending        stepwise;
        value           nonuniform List<scalar> 
62
(
0.285499
0.412355
0.4964
0.534785
0.550378
0.556318
0.558472
0.559226
0.559483
0.559568
0.559596
0.559604
0.559602
0.559586
0.559531
0.55935
0.558768
0.556958
0.551581
0.536582
0.498148
0.410254
0.253058
0.253058
0.301652
0.367105
0.403961
0.429359
0.452684
0.493717
0.638369
0.653916
0.526707
0.52598
0.649152
0.265368
0.298583
0.36322
0.398096
0.421631
0.443586
0.483083
0.615426
0.265368
0.425801
0.509596
0.542888
0.554454
0.558108
0.559188
0.559492
0.559572
0.559584
0.559552
0.559428
0.559011
0.557667
0.553497
0.54123
0.507718
0.42763
0.29993
)
;
    }
    atmosphere
    {
        type            inletOutlet;
        inletValue      uniform 0.1;
        value           nonuniform List<scalar> 
46
(
0.463199
0.230066
0.157674
0.123117
0.104762
0.0946617
0.089115
0.0861486
0.0846269
0.0838836
0.0835384
0.0833857
0.083321
0.0832947
0.0832844
0.0832805
0.0832791
0.0832788
0.0832789
0.0832795
0.0832808
0.0832828
0.0832859
0.0832885
0.0832898
0.0832899
0.0832888
0.0832858
0.0832825
0.0832804
0.0832796
0.08328
0.0832828
0.0832916
0.0833165
0.0833836
0.0835564
0.0839779
0.0849484
0.0870532
0.0913698
0.099853
0.116252
0.148768
0.220084
0.452701
)
;
    }
    defaultFaces
    {
        type            empty;
    }
}


// ************************************************************************* //
