/*--------------------------------*- C++ -*----------------------------------*\
| =========                 |                                                 |
| \\      /  F ield         | OpenFOAM: The Open Source CFD Toolbox           |
|  \\    /   O peration     | Version:  2406                                  |
|   \\  /    A nd           | Website:  www.openfoam.com                      |
|    \\/     M anipulation  |                                                 |
\*---------------------------------------------------------------------------*/
FoamFile
{
    version     2.0;
    format      ascii;
    arch        "LSB;label=32;scalar=64";
    class       volScalarField;
    location    "0.1";
    object      epsilon;
}
// * * * * * * * * * * * * * * * * * * * * * * * * * * * * * * * * * * * * * //

dimensions      [0 2 -3 0 0 0 0];

internalField   nonuniform List<scalar> 
2268
(
3.11056
4.22461
4.22461
4.22461
4.22461
4.22461
4.22461
4.22461
4.22461
4.22461
4.22461
4.22461
4.22461
0.426878
0.479881
0.530397
0.550414
0.556164
0.553384
0.538976
0.49988
0.410806
0.253091
1.99652
3.53904
3.87395
3.99094
4.04704
4.07914
4.09939
4.11283
4.12192
4.12796
4.13166
4.13343
4.13342
0.438166
0.307649
0.297823
0.295982
0.295385
0.29522
0.294914
0.29291
0.285936
0.301783
1.99652
3.12319
3.57196
3.77086
3.87483
3.93633
3.9757
4.00203
4.01992
4.03183
4.03915
4.04264
4.04264
0.478718
0.2773
0.242385
0.231597
0.22828
0.228874
0.233382
0.24401
0.266671
0.367406
1.99652
2.85875
3.32578
3.57199
3.71211
3.79846
3.85491
3.89312
3.91925
3.93672
3.94749
3.95263
3.95263
0.500217
0.262207
0.212329
0.195796
0.190555
0.191446
0.198671
0.216463
0.256391
0.404543
1.99652
2.68257
3.12892
3.39682
3.56139
3.66727
3.7382
3.78691
3.82052
3.84311
3.85709
3.86378
3.86378
0.509804
0.251652
0.192242
0.171739
0.16502
0.165945
0.17477
0.197018
0.24854
0.430253
1.99652
2.55993
2.97192
3.24472
3.42379
3.54389
3.62644
3.68407
3.72424
3.75143
3.76832
3.77641
3.77641
0.513025
0.243692
0.178117
0.154822
0.14693
0.147677
0.157273
0.182078
0.241959
0.453814
1.99652
2.47111
2.84601
3.11356
3.29936
3.42889
3.52026
3.58514
3.63087
3.66205
3.68151
3.69086
3.69086
0.512988
0.237728
0.168172
0.142884
0.134018
0.134391
0.144034
0.169667
0.235631
0.494981
1.99652
2.40455
2.74407
3.00066
3.18749
3.32241
3.41999
3.49048
3.54075
3.57529
3.59695
3.60739
3.60739
0.511317
0.233385
0.161322
0.134593
0.124871
0.124676
0.133678
0.158148
0.226089
0.63983
0.265398
0.426359
0.511444
0.545609
0.557303
0.560853
0.561847
0.562111
0.562178
0.562187
0.56216
0.562054
0.561685
0.56044
0.556393
0.544042
0.509744
0.428293
0.299964
0.298686
0.287576
0.293674
0.294969
0.294984
0.294891
0.294851
0.294841
0.29484
0.29484
0.294841
0.294847
0.294868
0.294932
0.295059
0.295059
0.293783
0.288813
0.312133
0.363449
0.263635
0.241092
0.231113
0.226976
0.225496
0.225036
0.22491
0.224879
0.224876
0.22489
0.224946
0.225137
0.225744
0.227487
0.231931
0.242008
0.264443
0.366085
0.398557
0.250657
0.211425
0.195021
0.188404
0.186012
0.185245
0.185026
0.18497
0.184965
0.184991
0.185093
0.185431
0.186464
0.189346
0.196614
0.213379
0.251669
0.39741
0.422382
0.240911
0.19056
0.170173
0.161993
0.158975
0.157974
0.157675
0.157596
0.157588
0.157628
0.157779
0.158258
0.159666
0.163457
0.172777
0.194083
0.242825
0.417569
0.444592
0.23279
0.174643
0.152011
0.142963
0.139555
0.138384
0.13802
0.13792
0.137911
0.137967
0.138169
0.138788
0.140538
0.145081
0.155957
0.180499
0.236455
0.430755
0.484282
0.225013
0.161663
0.138345
0.129021
0.125425
0.124144
0.123729
0.123612
0.123602
0.123677
0.123936
0.124698
0.126765
0.131948
0.144028
0.170901
0.231885
0.439209
0.616939
0.214312
0.150115
0.127794
0.118726
0.115113
0.113773
0.113319
0.113185
0.113178
0.113275
0.113598
0.11451
0.116886
0.122627
0.135636
0.164126
0.228511
0.44446
1.99652
2.32441
2.61365
2.84849
3.03071
3.16898
3.27267
3.34953
3.40534
3.44415
3.46867
3.48054
3.48054
0.507238
0.228578
0.154242
0.125841
0.114878
0.11352
0.120555
0.139421
0.181379
0.28377
1.99652
2.25443
2.4912
2.69465
2.86182
2.9952
3.09938
3.17906
3.23829
3.28017
3.30693
3.31997
3.31997
0.501152
0.225157
0.149638
0.119939
0.107687
0.104646
0.10851
0.119866
0.141447
0.177595
1.99652
2.20583
2.40241
2.57748
2.72708
2.85094
2.95083
3.02926
3.08876
3.13148
3.15906
3.17258
3.17258
0.495111
0.222959
0.147203
0.116808
0.103618
0.0991165
0.100278
0.106216
0.116782
0.13107
1.99652
2.17007
2.33537
2.48604
2.61834
2.73091
2.82396
2.8986
2.9562
2.9981
3.02539
3.03884
3.03884
0.489311
0.221321
0.145808
0.115098
0.101286
0.0956992
0.0949212
0.0974365
0.10231
0.108251
1.99652
2.14267
2.28312
2.41315
2.52954
2.63058
2.71571
2.78516
2.8395
2.87947
2.90571
2.91871
2.91871
0.483838
0.219969
0.14492
0.114131
0.0999604
0.0936737
0.0916712
0.0922088
0.0942296
0.0967614
1.99652
2.12103
2.2414
2.35405
2.45627
2.54633
2.62332
2.68696
2.73734
2.77472
2.79942
2.81171
2.8117
0.478736
0.218785
0.144286
0.113556
0.0992201
0.0925417
0.0898492
0.0893331
0.0899788
0.0910989
1.99652
2.10357
2.20749
2.30548
2.39528
2.47528
2.54443
2.60218
2.64831
2.68278
2.70569
2.71711
2.71711
0.474032
0.217721
0.143788
0.113187
0.0988091
0.0919456
0.0889068
0.0878757
0.087895
0.0884498
1.99652
2.08927
2.17957
2.26518
2.34421
2.41518
2.47706
2.52914
2.57104
2.60254
2.62356
2.63407
2.63407
0.469742
0.216758
0.14337
0.112928
0.098574
0.0916444
0.0884541
0.0871945
0.0869488
0.0872927
1.99652
2.07744
2.15639
2.23153
2.30127
2.36429
2.41958
2.46641
2.50429
2.5329
2.55205
2.56165
2.56165
0.465869
0.215889
0.143008
0.112728
0.0984283
0.091492
0.088248
0.0868985
0.0865505
0.0868231
1.99652
2.0676
2.13706
2.20336
2.26513
2.32121
2.37065
2.41272
2.4469
2.47281
2.4902
2.49893
2.49893
0.46241
0.21511
0.142688
0.112564
0.0983271
0.0914095
0.0881553
0.0867766
0.0863937
0.0866455
1.99652
2.0594
2.12091
2.17976
2.23474
2.28483
2.32916
2.36702
2.39787
2.42133
2.43711
2.44504
2.44504
0.459357
0.214419
0.142407
0.112423
0.0982488
0.0913583
0.088111
0.0867272
0.0863349
0.0865822
1.99652
2.05258
2.10747
2.16006
2.20931
2.25429
2.29421
2.32839
2.35633
2.37761
2.39195
2.39916
2.39916
0.456696
0.213813
0.142159
0.1123
0.0981826
0.0913205
0.0880858
0.0867056
0.086313
0.0865605
1.99652
2.04694
2.09635
2.14374
2.18819
2.22887
2.26504
2.29609
2.32151
2.34091
2.35399
2.36058
2.36058
0.454412
0.213284
0.141937
0.112186
0.0981206
0.0912867
0.0880668
0.0866936
0.0863038
0.0865528
1.99652
2.04234
2.08726
2.13038
2.17089
2.208
2.24106
2.26948
2.29278
2.31058
2.32261
2.32866
2.32866
0.452487
0.212818
0.141721
0.112063
0.0980499
0.0912474
0.0880462
0.0866829
0.0862979
0.0865494
1.99652
2.03866
2.07998
2.11968
2.157
2.19124
2.22177
2.24804
2.26961
2.2861
2.29725
2.30287
2.30287
0.450898
0.212362
0.141455
0.111889
0.0979419
0.0911862
0.0880146
0.0866679
0.0862912
0.0865466
1.99652
2.03581
2.07435
2.11139
2.14624
2.17823
2.20677
2.23137
2.25157
2.26703
2.27749
2.28276
2.28276
0.449597
0.211744
0.140974
0.111553
0.097734
0.091071
0.0879568
0.0866414
0.0862801
0.0865424
1.99652
2.03373
2.07023
2.10533
2.13835
2.16869
2.19578
2.21913
2.23833
2.25302
2.26296
2.26798
2.26797
0.448316
0.210352
0.139841
0.110811
0.0973053
0.0908461
0.0878488
0.0865938
0.0862607
0.0865353
1.99652
2.03237
2.06753
2.10135
2.13319
2.16244
2.18857
2.21111
2.22963
2.24382
2.25342
2.25827
2.25826
0.44463
0.206021
0.136998
0.109208
0.0964675
0.0904362
0.0876618
0.0865144
0.0862293
0.0865241
1.99652
2.03169
2.0662
2.09939
2.13063
2.15935
2.185
2.20713
2.22533
2.23926
2.2487
2.25345
2.25345
0.416881
0.191866
0.13046
0.106145
0.0950322
0.0897817
0.087377
0.0863973
0.0861842
0.0865082
1.99652
2.03169
2.0662
2.09938
2.13063
2.15934
2.185
2.20713
2.22532
2.23926
2.24869
2.25345
0.537846
0.246225
0.155874
0.11879
0.101489
0.0930247
0.0889105
0.0870101
0.0862498
0.0861281
0.0864887
0.470469
0.432281
0.437284
0.438999
0.43995
0.441069
0.442344
0.443586
0.444619
0.445102
0.44254
0.41523
0.245812
0.167478
0.128301
0.107668
0.0966629
0.0908866
0.0879777
0.086618
0.0860928
0.0860685
0.086468
0.432729
0.275688
0.239355
0.223577
0.215986
0.212496
0.211069
0.210549
0.210183
0.209081
0.204961
0.190979
0.155461
0.128166
0.11022
0.0991346
0.0926294
0.0890187
0.0871444
0.0862635
0.0859497
0.0860139
0.0864488
0.449803
0.24496
0.188636
0.163605
0.151311
0.145288
0.142469
0.141172
0.140369
0.139188
0.136386
0.129944
0.118475
0.107516
0.0990833
0.0933131
0.0896978
0.0876081
0.0865002
0.0859851
0.0858359
0.08597
0.0864333
0.458286
0.235623
0.170317
0.140491
0.125517
0.117943
0.114232
0.112455
0.111476
0.110514
0.108865
0.105838
0.101272
0.0965366
0.092569
0.0896769
0.0877847
0.0866603
0.0860583
0.0857911
0.0857554
0.0859385
0.086422
0.461628
0.23223
0.162882
0.130525
0.113986
0.105444
0.101151
0.0990654
0.0980023
0.0972404
0.0962961
0.0948526
0.0928821
0.0907911
0.0889623
0.0875782
0.0866468
0.086084
0.0857848
0.0856691
0.0857041
0.0859181
0.0864146
0.462852
0.230955
0.159831
0.126171
0.10874
0.0996092
0.0949496
0.092667
0.0915571
0.090923
0.0903644
0.0896716
0.0888074
0.0878959
0.0870835
0.0864551
0.0860248
0.0857632
0.0856301
0.085599
0.0856741
0.0859061
0.0864102
0.46328
0.23049
0.158624
0.124334
0.106426
0.0969605
0.0920846
0.0896841
0.0885451
0.0879798
0.0876165
0.0872742
0.0868969
0.086511
0.0861662
0.0858964
0.08571
0.0855983
0.0855493
0.0855619
0.085658
0.0858995
0.0864077
0.463424
0.230329
0.158173
0.123601
0.105459
0.09582
0.0908273
0.0883613
0.0872045
0.0866715
0.0863993
0.0862133
0.0860459
0.0858866
0.0857466
0.0856371
0.0855618
0.0855195
0.0855102
0.0855436
0.0856499
0.0858961
0.0864065
0.463472
0.230276
0.158013
0.123326
0.10508
0.0953585
0.0903083
0.0878091
0.0866422
0.0861225
0.0858894
0.085769
0.0856878
0.0856215
0.0855664
0.0855242
0.0854963
0.0854842
0.0854924
0.0855351
0.0856462
0.0858945
0.0864059
0.463487
0.230259
0.15796
0.123229
0.104941
0.0951832
0.0901072
0.0875926
0.0864203
0.0859055
0.0856878
0.0855932
0.0855454
0.0855153
0.0854934
0.0854779
0.0854692
0.0854693
0.0854848
0.0855315
0.0856445
0.0858938
0.0864056
0.463492
0.230254
0.157944
0.123197
0.104892
0.0951207
0.0900339
0.0875126
0.0863378
0.0858246
0.0856126
0.0855274
0.085492
0.0854751
0.0854656
0.0854601
0.0854586
0.0854635
0.0854818
0.0855301
0.0856439
0.0858936
0.0864055
0.463494
0.230253
0.157939
0.123186
0.104876
0.0950997
0.090009
0.0874851
0.0863092
0.0857964
0.0855863
0.0855045
0.0854733
0.085461
0.0854559
0.085454
0.0854551
0.0854617
0.085481
0.0855299
0.085644
0.0858937
0.0864057
0.463495
0.230253
0.157937
0.123183
0.104872
0.0950938
0.0900019
0.0874773
0.0863011
0.0857885
0.085579
0.0854982
0.0854685
0.0854577
0.085454
0.0854532
0.0854552
0.0854623
0.085482
0.0855309
0.085645
0.0858946
0.0864062
0.463498
0.230252
0.157936
0.123182
0.104871
0.0950939
0.0900028
0.0874787
0.0863029
0.0857905
0.0855813
0.0855009
0.0854715
0.0854612
0.0854578
0.0854573
0.0854594
0.0854666
0.085486
0.0855347
0.0856483
0.0858973
0.0864082
0.463508
0.230251
0.157932
0.123179
0.104872
0.0950987
0.0900114
0.08749
0.0863158
0.0858042
0.0855955
0.0855152
0.0854859
0.0854755
0.085472
0.0854713
0.0854731
0.0854798
0.0854986
0.0855464
0.0856589
0.0859062
0.0864146
0.463542
0.230247
0.157916
0.123165
0.104869
0.0951108
0.0900357
0.0875227
0.0863533
0.0858442
0.0856365
0.0855565
0.0855271
0.0855164
0.0855124
0.085511
0.0855118
0.0855173
0.0855347
0.0855804
0.0856899
0.0859329
0.0864349
0.463668
0.230228
0.157852
0.123108
0.104851
0.0951364
0.0900972
0.0876079
0.0864518
0.0859493
0.0857443
0.0856652
0.0856357
0.0856244
0.0856192
0.0856164
0.0856154
0.0856186
0.0856329
0.0856743
0.0857772
0.08601
0.0864961
0.464163
0.230162
0.157607
0.122899
0.104769
0.0951865
0.0902461
0.0878185
0.0866959
0.0862094
0.0860112
0.0859345
0.0859051
0.0858928
0.0858859
0.0858807
0.0858766
0.0858758
0.0858847
0.085918
0.0860082
0.0862198
0.086671
0.466274
0.229973
0.156748
0.122215
0.104499
0.0952835
0.0905937
0.0883126
0.087266
0.0868148
0.0866314
0.0865599
0.0865317
0.0865184
0.0865094
0.0865011
0.0864929
0.0864867
0.0864877
0.0865086
0.0865776
0.0867518
0.0871364
0.476905
0.229748
0.15399
0.12026
0.103783
0.0954974
0.0913773
0.089406
0.0885118
0.0881292
0.0879741
0.0879133
0.0878882
0.087875
0.0878646
0.0878539
0.0878423
0.087831
0.0878238
0.0878301
0.0878713
0.0879916
0.0882722
0.55746
0.230839
0.145975
0.115507
0.10231
0.0960737
0.0930775
0.0916733
0.0910447
0.0907778
0.0906698
0.0906271
0.0906089
0.0905983
0.0905891
0.0905791
0.0905678
0.0905557
0.0905449
0.0905408
0.090556
0.0906174
0.0907731
1.58819
0.220761
0.124452
0.106204
0.100259
0.0977488
0.0965918
0.0960586
0.0958219
0.0957218
0.0956814
0.0956653
0.0956582
0.0956539
0.09565
0.0956456
0.0956405
0.0956349
0.0956293
0.0956254
0.0956272
0.0956434
0.0956897
0.654937
0.52727
0.52656
0.650187
0.217683
0.223778
0.2238
0.218212
0.140969
0.144247
0.14417
0.140873
0.111622
0.1128
0.112744
0.111491
0.0981614
0.098666
0.0986431
0.0981149
0.0918777
0.0922002
0.0921968
0.0918993
0.089058
0.0893504
0.089355
0.0891164
0.0878719
0.0881719
0.0881787
0.0879457
0.087408
0.0877187
0.0877256
0.0874869
0.087239
0.0875565
0.0875632
0.0873191
0.0871812
0.087502
0.0875085
0.0872617
0.0871623
0.0874847
0.0874912
0.087243
0.0871562
0.0874793
0.0874859
0.0872373
0.087154
0.0874775
0.0874842
0.0872355
0.0871525
0.0874766
0.0874835
0.0872349
0.0871506
0.0874756
0.087483
0.0872345
0.0871475
0.087474
0.0874821
0.087234
0.0871426
0.0874714
0.0874807
0.0872333
0.0871357
0.0874678
0.0874788
0.0872323
0.0871271
0.0874633
0.0874765
0.087231
0.087118
0.0874585
0.0874739
0.0872296
0.0871095
0.0874541
0.0874716
0.0872283
0.0871026
0.0874504
0.0874697
0.0872273
0.0870976
0.0874478
0.0874683
0.0872265
0.0870943
0.087446
0.0874673
0.087226
0.0870923
0.087445
0.0874668
0.0872257
0.0870912
0.0874444
0.0874665
0.0872255
0.0870906
0.0874441
0.0874663
0.0872254
0.0870903
0.087444
0.0874662
0.0872254
0.0870902
0.0874439
0.0874662
0.0872254
0.0870902
0.0874439
0.0874662
0.0872254
0.0870903
0.087444
0.0874663
0.0872254
0.0870906
0.0874442
0.0874665
0.0872257
0.0870918
0.0874451
0.0874673
0.0872266
0.0870959
0.0874483
0.0874702
0.0872296
0.0871095
0.087459
0.08748
0.08724
0.0871533
0.0874946
0.0875131
0.0872746
0.0872869
0.0876078
0.0876199
0.0873858
0.0876685
0.087945
0.0879437
0.0877203
0.088664
0.0888627
0.0888407
0.088642
0.0909867
0.0910855
0.091047
0.0908987
0.0957482
0.0957666
0.0957415
0.0956805
0.276712
0.173718
0.132721
0.114768
0.106758
0.103326
0.101959
0.10146
0.101306
0.101304
0.101445
0.101883
0.103049
0.105903
0.112412
0.126487
0.156419
0.223952
0.449444
0.175343
0.136996
0.115063
0.103376
0.0975243
0.0948019
0.093638
0.0931869
0.0930439
0.0930589
0.0932468
0.0937994
0.0952053
0.0984992
0.105708
0.120771
0.152046
0.221679
0.451776
0.129979
0.114258
0.102907
0.0959249
0.0920889
0.0901822
0.0893229
0.0889759
0.0888685
0.0889043
0.089126
0.0897525
0.091309
0.0948742
0.102513
0.118189
0.150276
0.220941
0.452572
0.107695
0.100849
0.0951159
0.0912139
0.0889141
0.0877105
0.0871455
0.0869115
0.0868459
0.0869018
0.0871466
0.0878178
0.0894626
0.0931832
0.101063
0.117071
0.14957
0.220683
0.452847
0.0964673
0.0933067
0.0904587
0.0883948
0.0871182
0.086424
0.0860881
0.0859482
0.0859192
0.0859914
0.0862506
0.0869466
0.0886384
0.0924401
0.100442
0.116613
0.1493
0.220593
0.452941
0.0909161
0.0892946
0.0878678
0.0868158
0.0861493
0.0857781
0.0855952
0.0855211
0.0855185
0.0856022
0.0858697
0.0865783
0.088293
0.0921332
0.100192
0.116436
0.149201
0.220562
0.452973
0.0883008
0.0872955
0.08653
0.085992
0.0856549
0.0854668
0.0853742
0.0853404
0.0853545
0.0854453
0.0857174
0.0864318
0.0881567
0.0920138
0.100097
0.116371
0.149166
0.220551
0.452984
0.0871455
0.0863679
0.0858892
0.0855918
0.0854174
0.0853232
0.0852786
0.085267
0.0852905
0.0853854
0.0856597
0.0863768
0.0881059
0.0919698
0.100063
0.116348
0.149155
0.220548
0.452988
0.0866697
0.0859673
0.0856037
0.0854104
0.0853098
0.0852599
0.0852387
0.0852382
0.0852666
0.0853635
0.0856389
0.0863571
0.0880879
0.0919544
0.100051
0.11634
0.149151
0.220547
0.452989
0.0864867
0.0858057
0.0854848
0.0853334
0.0852638
0.0852332
0.0852226
0.0852272
0.0852579
0.0853558
0.0856318
0.0863504
0.0880818
0.0919492
0.100047
0.116338
0.14915
0.220546
0.452989
0.0864207
0.0857445
0.0854383
0.0853025
0.0852452
0.0852225
0.0852163
0.0852231
0.0852549
0.0853532
0.0856294
0.0863482
0.0880798
0.0919476
0.100046
0.116337
0.149149
0.220546
0.45299
0.0863982
0.0857227
0.0854211
0.0852909
0.085238
0.0852184
0.0852139
0.0852217
0.0852539
0.0853524
0.0856287
0.0863475
0.0880792
0.0919471
0.100045
0.116337
0.149149
0.220546
0.45299
0.086391
0.0857152
0.0854151
0.0852866
0.0852354
0.0852168
0.085213
0.0852211
0.0852535
0.0853521
0.0856284
0.0863473
0.088079
0.0919469
0.100045
0.116337
0.149149
0.220546
0.45299
0.0863887
0.0857128
0.0854131
0.0852852
0.0852344
0.0852163
0.0852127
0.085221
0.0852534
0.085352
0.0856284
0.0863472
0.0880789
0.0919469
0.100045
0.116337
0.149149
0.220546
0.45299
0.086388
0.0857121
0.0854124
0.0852847
0.0852341
0.0852161
0.0852126
0.0852209
0.0852534
0.085352
0.0856283
0.0863472
0.0880789
0.0919468
0.100045
0.116337
0.149149
0.220546
0.45299
0.0863877
0.0857118
0.0854122
0.0852846
0.085234
0.085216
0.0852126
0.0852209
0.0852533
0.085352
0.0856283
0.0863472
0.0880789
0.0919468
0.100045
0.116337
0.149149
0.220546
0.45299
0.0863875
0.0857117
0.0854121
0.0852845
0.085234
0.085216
0.0852126
0.0852209
0.0852533
0.085352
0.0856283
0.0863472
0.0880789
0.0919468
0.100045
0.116337
0.149149
0.220546
0.45299
0.0863872
0.0857116
0.0854121
0.0852845
0.085234
0.085216
0.0852126
0.0852209
0.0852533
0.085352
0.0856283
0.0863472
0.0880789
0.0919468
0.100045
0.116337
0.149149
0.220546
0.45299
0.0863868
0.0857115
0.0854121
0.0852845
0.085234
0.085216
0.0852126
0.0852209
0.0852533
0.085352
0.0856283
0.0863472
0.0880789
0.0919468
0.100045
0.116337
0.149149
0.220546
0.45299
0.0863864
0.0857114
0.085412
0.0852845
0.085234
0.085216
0.0852126
0.0852209
0.0852533
0.085352
0.0856283
0.0863472
0.0880789
0.0919468
0.100045
0.116337
0.149149
0.220546
0.45299
0.0863859
0.0857113
0.085412
0.0852845
0.085234
0.085216
0.0852126
0.0852209
0.0852533
0.085352
0.0856283
0.0863472
0.0880789
0.0919468
0.100045
0.116337
0.149149
0.220546
0.45299
0.0863854
0.0857112
0.085412
0.0852845
0.085234
0.085216
0.0852126
0.0852209
0.0852533
0.085352
0.0856283
0.0863472
0.0880789
0.0919468
0.100045
0.116337
0.149149
0.220546
0.45299
0.0863851
0.0857111
0.0854119
0.0852844
0.085234
0.085216
0.0852126
0.0852209
0.0852533
0.085352
0.0856283
0.0863472
0.0880789
0.0919468
0.100045
0.116337
0.149149
0.220546
0.45299
0.0863848
0.085711
0.0854119
0.0852844
0.085234
0.085216
0.0852126
0.0852209
0.0852533
0.085352
0.0856283
0.0863472
0.0880789
0.0919468
0.100045
0.116337
0.149149
0.220546
0.45299
0.0863846
0.0857109
0.0854119
0.0852844
0.085234
0.085216
0.0852126
0.0852209
0.0852533
0.085352
0.0856283
0.0863472
0.0880789
0.0919468
0.100045
0.116337
0.149149
0.220546
0.45299
0.0863845
0.0857109
0.0854119
0.0852844
0.085234
0.085216
0.0852126
0.0852209
0.0852533
0.085352
0.0856283
0.0863472
0.0880789
0.0919468
0.100045
0.116337
0.149149
0.220546
0.45299
0.0863844
0.0857109
0.0854119
0.0852844
0.085234
0.085216
0.0852126
0.0852209
0.0852533
0.085352
0.0856283
0.0863472
0.0880789
0.0919468
0.100045
0.116337
0.149149
0.220546
0.45299
0.0863844
0.0857109
0.0854119
0.0852844
0.085234
0.085216
0.0852126
0.0852209
0.0852533
0.085352
0.0856283
0.0863472
0.0880789
0.0919468
0.100045
0.116337
0.149149
0.220546
0.45299
0.0863844
0.0857108
0.0854119
0.0852844
0.085234
0.085216
0.0852126
0.0852209
0.0852533
0.085352
0.0856283
0.0863472
0.0880789
0.0919468
0.100045
0.116337
0.149149
0.220546
0.45299
0.0863844
0.0857109
0.0854119
0.0852844
0.085234
0.085216
0.0852126
0.0852209
0.0852533
0.085352
0.0856283
0.0863472
0.0880789
0.0919468
0.100045
0.116337
0.149149
0.220546
0.45299
0.0863844
0.0857109
0.0854119
0.0852845
0.085234
0.085216
0.0852126
0.0852209
0.0852533
0.085352
0.0856283
0.0863472
0.0880789
0.0919468
0.100045
0.116337
0.149149
0.220546
0.45299
0.0863845
0.085711
0.085412
0.0852845
0.085234
0.0852161
0.0852126
0.0852209
0.0852533
0.085352
0.0856283
0.0863472
0.0880789
0.0919468
0.100045
0.116337
0.149149
0.220546
0.45299
0.0863848
0.0857114
0.0854123
0.0852848
0.0852342
0.0852162
0.0852127
0.0852209
0.0852533
0.085352
0.0856283
0.0863471
0.0880789
0.0919468
0.100045
0.116337
0.149149
0.220546
0.45299
0.0863861
0.0857127
0.0854135
0.0852858
0.085235
0.0852167
0.085213
0.0852211
0.0852534
0.085352
0.0856283
0.0863471
0.0880788
0.0919468
0.100045
0.116336
0.149149
0.220546
0.45299
0.0863902
0.0857173
0.0854177
0.0852893
0.0852378
0.0852188
0.0852144
0.085222
0.0852538
0.0853521
0.0856282
0.0863469
0.0880787
0.0919466
0.100045
0.116336
0.149149
0.220546
0.45299
0.086404
0.0857326
0.085432
0.0853016
0.0852478
0.0852265
0.08522
0.0852255
0.0852558
0.0853529
0.0856282
0.0863466
0.0880782
0.0919463
0.100045
0.116336
0.149149
0.220546
0.45299
0.0864488
0.085782
0.085479
0.0853433
0.0852829
0.0852547
0.0852412
0.0852403
0.0852647
0.0853573
0.0856294
0.0863462
0.0880771
0.0919453
0.100044
0.116336
0.149149
0.220546
0.45299
0.0865867
0.085933
0.0856251
0.0854764
0.0853991
0.0853523
0.0853188
0.085298
0.0853027
0.0853794
0.0856384
0.086348
0.0880748
0.0919429
0.100043
0.116336
0.149149
0.220547
0.452989
0.086984
0.0863635
0.0860483
0.0858738
0.0857594
0.0856691
0.0855848
0.0855099
0.085455
0.0854795
0.0856881
0.0863673
0.0880719
0.0919376
0.100039
0.116335
0.14915
0.220547
0.452989
0.0880308
0.0874848
0.087169
0.0869579
0.0867817
0.0866128
0.086425
0.0862308
0.0860216
0.0858994
0.0859306
0.0864931
0.0880795
0.0919276
0.100031
0.116332
0.149153
0.220551
0.452986
0.0904916
0.090091
0.089815
0.0895922
0.0893643
0.0891169
0.0887973
0.0884342
0.0879357
0.0875142
0.0870187
0.0872069
0.0881728
0.091919
0.100016
0.116328
0.14916
0.220559
0.452974
0.0955363
0.0953773
0.0952452
0.095122
0.0949709
0.0947942
0.0945153
0.0941824
0.0935404
0.0929654
0.0915123
0.0910582
0.0887753
0.0919723
0.0999951
0.116319
0.149166
0.220544
0.452941
)
;

boundaryField
{
    leftWall
    {
        type            epsilonWallFunction;
        blending        stepwise;
        value           nonuniform List<scalar> 
50
(
3.11056
1.99652
1.99652
1.99652
1.99652
1.99652
1.99652
1.99652
1.99652
1.99652
1.99652
1.99652
1.99652
1.99652
1.99652
1.99652
1.99652
1.99652
1.99652
1.99652
1.99652
1.99652
1.99652
1.99652
1.99652
1.99652
1.99652
1.99652
0.470469
0.432729
0.449803
0.458286
0.461628
0.462852
0.46328
0.463424
0.463472
0.463487
0.463492
0.463494
0.463495
0.463498
0.463508
0.463542
0.463668
0.464163
0.466274
0.476905
0.55746
1.58819
)
;
    }
    rightWall
    {
        type            epsilonWallFunction;
        blending        stepwise;
        value           nonuniform List<scalar> 
50
(
0.299964
0.312133
0.366085
0.39741
0.417569
0.430755
0.439209
0.44446
0.449444
0.451776
0.452572
0.452847
0.452941
0.452973
0.452984
0.452988
0.452989
0.452989
0.45299
0.45299
0.45299
0.45299
0.45299
0.45299
0.45299
0.45299
0.45299
0.45299
0.45299
0.45299
0.45299
0.45299
0.45299
0.45299
0.45299
0.45299
0.45299
0.45299
0.45299
0.45299
0.45299
0.45299
0.45299
0.45299
0.45299
0.452989
0.452989
0.452986
0.452974
0.452941
)
;
    }
    lowerWall
    {
        type            epsilonWallFunction;
        blending        stepwise;
        value           nonuniform List<scalar> 
62
(
3.11056
4.22461
4.22461
4.22461
4.22461
4.22461
4.22461
4.22461
4.22461
4.22461
4.22461
4.22461
4.22461
0.426878
0.479881
0.530397
0.550414
0.556164
0.553384
0.538976
0.49988
0.410806
0.253091
0.253091
0.301783
0.367406
0.404543
0.430253
0.453814
0.494981
0.63983
0.654937
0.52727
0.52656
0.650187
0.265398
0.298686
0.363449
0.398557
0.422382
0.444592
0.484282
0.616939
0.265398
0.426359
0.511444
0.545609
0.557303
0.560853
0.561847
0.562111
0.562178
0.562187
0.56216
0.562054
0.561685
0.56044
0.556393
0.544042
0.509744
0.428293
0.299964
)
;
    }
    atmosphere
    {
        type            inletOutlet;
        inletValue      uniform 0.1;
        value           nonuniform List<scalar> 
46
(
0.1
0.1
0.1
0.1
0.1
0.1
0.1
0.1
0.1
0.1
0.1
0.1
0.1
0.1
0.1
0.1
0.1
0.1
0.1
0.1
0.1
0.1
0.1
0.1
0.1
0.1
0.1
0.1
0.1
0.1
0.1
0.1
0.1
0.1
0.1
0.1
0.1
0.1
0.1
0.0887753
0.0919723
0.0999951
0.116319
0.149166
0.220544
0.452941
)
;
    }
    defaultFaces
    {
        type            empty;
    }
}


// ************************************************************************* //
