/*--------------------------------*- C++ -*----------------------------------*\
| =========                 |                                                 |
| \\      /  F ield         | OpenFOAM: The Open Source CFD Toolbox           |
|  \\    /   O peration     | Version:  2406                                  |
|   \\  /    A nd           | Website:  www.openfoam.com                      |
|    \\/     M anipulation  |                                                 |
\*---------------------------------------------------------------------------*/
FoamFile
{
    version     2.0;
    format      ascii;
    arch        "LSB;label=32;scalar=64";
    class       volScalarField;
    location    "0.1";
    object      k;
}
// * * * * * * * * * * * * * * * * * * * * * * * * * * * * * * * * * * * * * //

dimensions      [0 2 -2 0 0 0 0];

internalField   nonuniform List<scalar> 
2268
(
0.0179264
0.0193417
0.0222804
0.0236422
0.0242278
0.0244675
0.0245613
0.0245967
0.0246096
0.0246142
0.0246158
0.0246163
0.0246162
0.0246153
0.0246124
0.0246034
0.0245765
0.0244987
0.0242834
0.0237224
0.0223595
0.0192912
0.0133885
0.0261202
0.0418729
0.0484297
0.0513901
0.0527292
0.0533189
0.0535689
0.0536709
0.0537111
0.0537265
0.0537321
0.0537339
0.0537336
0.0537306
0.0537211
0.0536938
0.0536176
0.0534134
0.0528911
0.0516212
0.048674
0.0419706
0.0254525
0.0294508
0.051565
0.0595878
0.0632119
0.0649228
0.0657232
0.0660862
0.0662447
0.0663113
0.0663383
0.0663487
0.0663521
0.0663516
0.0663464
0.0663303
0.0662864
0.0661717
0.0658839
0.0651929
0.0636028
0.0600376
0.051877
0.029364
0.031441
0.0571096
0.0659545
0.0699394
0.0718743
0.0728205
0.0732725
0.0734806
0.0735728
0.073612
0.0736279
0.0736333
0.0736327
0.0736251
0.0736028
0.0735446
0.0733999
0.0730555
0.0722687
0.070527
0.0666918
0.0577584
0.0315635
0.0327378
0.060592
0.0699988
0.0742237
0.0763131
0.0773681
0.0778926
0.0781447
0.0782612
0.0783129
0.0783345
0.0783422
0.0783416
0.0783319
0.078304
0.0782341
0.0780676
0.0776879
0.0768538
0.07506
0.0711447
0.0618052
0.0330988
0.0335966
0.0628751
0.0727062
0.0771138
0.0793204
0.080461
0.0810456
0.0813365
0.0814757
0.0815395
0.0815671
0.0815772
0.0815769
0.0815655
0.081533
0.0814543
0.0812736
0.0808763
0.0800319
0.07826
0.0744221
0.0650474
0.0345249
0.0341625
0.0644054
0.0745737
0.0791328
0.0814351
0.0826461
0.0832817
0.0836068
0.0837669
0.0838424
0.0838759
0.0838886
0.0838888
0.083876
0.0838402
0.0837556
0.0835676
0.0831675
0.082342
0.0806532
0.0770535
0.0681771
0.0369348
0.0345313
0.065441
0.0758843
0.0805749
0.0829596
0.0842305
0.0849101
0.0852655
0.0854447
0.0855311
0.0855704
0.0855857
0.0855866
0.085573
0.0855351
0.0854476
0.0852584
0.0848672
0.0840832
0.0825261
0.0793167
0.0717028
0.044537
0.0138696
0.0198392
0.0227637
0.0239564
0.0243977
0.024548
0.024596
0.0246105
0.0246146
0.0246152
0.0246134
0.0246069
0.0245865
0.0245259
0.0243525
0.0238818
0.0226793
0.0198786
0.0190065
0.0271908
0.0432167
0.0495567
0.0521502
0.0531673
0.0535424
0.0536726
0.0537153
0.0537282
0.05373
0.0537239
0.0537027
0.0536415
0.0534737
0.053034
0.0519355
0.0493029
0.0431036
0.0280265
0.031339
0.0533987
0.06111
0.0642646
0.0655573
0.0660654
0.0662545
0.066321
0.0663422
0.0663449
0.0663338
0.0662974
0.0661989
0.0659471
0.0653341
0.0639049
0.0606548
0.0530602
0.0314821
0.0335815
0.0594261
0.067852
0.0712528
0.0726833
0.0732725
0.0735043
0.0735904
0.0736189
0.0736222
0.0736055
0.0735536
0.0734202
0.0730982
0.0723581
0.0707197
0.0671246
0.0587408
0.0334722
0.0351178
0.0635555
0.0723374
0.0758095
0.0772934
0.077927
0.0781876
0.0782889
0.0783235
0.0783269
0.0783043
0.078237
0.0780713
0.0776894
0.0768505
0.0750635
0.0712356
0.0623065
0.0347519
0.0365684
0.0668219
0.0756
0.0790025
0.0804773
0.0811265
0.0814038
0.0815156
0.0815548
0.0815577
0.081529
0.0814467
0.0812514
0.0808182
0.0798995
0.077998
0.0739918
0.0646462
0.0356001
0.0390764
0.0698842
0.0781653
0.0813626
0.0827777
0.0834195
0.083703
0.083821
0.0838631
0.0838649
0.0838299
0.0837334
0.0835114
0.0830337
0.0820484
0.0800528
0.0758984
0.0662175
0.0361611
0.0466314
0.0731848
0.0803103
0.0831808
0.0844971
0.0851136
0.0853944
0.0855147
0.085558
0.0855581
0.0855169
0.0854071
0.0851609
0.0846441
0.0836017
0.0815252
0.0772416
0.0672839
0.0365279
0.0349022
0.0665373
0.0773335
0.0822054
0.0847035
0.0860558
0.0867951
0.0871921
0.0873982
0.0875006
0.0875485
0.0875679
0.0875701
0.0875561
0.0875168
0.0874287
0.0872457
0.0868828
0.0861886
0.0848847
0.0824133
0.0775131
0.0671275
0.0351038
0.0672024
0.0782965
0.0833474
0.0859627
0.0873982
0.0881982
0.088638
0.0888725
0.0889922
0.08905
0.0890746
0.0890794
0.0890672
0.089031
0.0889521
0.0887946
0.0884968
0.0879583
0.0870197
0.0854272
0.0827962
0.0787093
0.0351825
0.0674929
0.0787613
0.0839346
0.0866359
0.0881336
0.088979
0.0894509
0.0897067
0.0898399
0.0899055
0.0899346
0.0899424
0.0899335
0.0899038
0.0898396
0.0897154
0.0894898
0.0891022
0.0884712
0.0875015
0.0861219
0.0844178
0.0352123
0.067616
0.0789789
0.0842285
0.086988
0.0885294
0.0894069
0.0899016
0.0901728
0.0903157
0.0903872
0.09042
0.0904307
0.0904259
0.0904039
0.0903561
0.0902657
0.0901069
0.0898455
0.089444
0.0888743
0.0881496
0.0873817
0.0352233
0.0676664
0.079077
0.0843703
0.0871658
0.0887354
0.0896341
0.090144
0.0904255
0.090575
0.0906507
0.0906862
0.0906996
0.0906986
0.0906842
0.0906514
0.0905904
0.090486
0.0903203
0.0900771
0.0897524
0.0893707
0.089004
0.0352273
0.0676865
0.0791196
0.084436
0.0872519
0.0888383
0.08975
0.0902694
0.0905573
0.090711
0.0907894
0.0908269
0.0908423
0.0908447
0.0908365
0.0908159
0.0907775
0.0907133
0.0906142
0.0904739
0.0902947
0.0900951
0.0899149
0.0352287
0.0676943
0.0791375
0.0844652
0.087292
0.0888877
0.0898067
0.0903315
0.0906233
0.0907795
0.0908595
0.0908983
0.0909153
0.0909201
0.0909165
0.0909047
0.0908823
0.0908451
0.0907891
0.0907119
0.0906166
0.0905144
0.0904256
0.0352292
0.0676972
0.0791448
0.0844778
0.0873099
0.0889104
0.0898333
0.0903611
0.0906549
0.0908126
0.0908936
0.0909332
0.0909512
0.0909577
0.0909573
0.0909513
0.090939
0.0909187
0.0908887
0.0908483
0.0907995
0.0907487
0.0907057
0.0352294
0.0676983
0.0791477
0.0844831
0.0873177
0.0889205
0.0898454
0.0903747
0.0906696
0.090828
0.0909095
0.0909496
0.0909682
0.0909758
0.0909774
0.0909749
0.0909687
0.0909583
0.090943
0.0909228
0.0908988
0.0908744
0.0908542
0.0352294
0.0676987
0.0791488
0.0844852
0.087321
0.0889248
0.0898506
0.0903807
0.0906762
0.0908349
0.0909167
0.0909571
0.0909761
0.0909843
0.090987
0.0909866
0.0909838
0.0909788
0.0909713
0.0909616
0.0909504
0.0909391
0.0909299
0.0352294
0.0676989
0.0791493
0.084486
0.0873223
0.0889266
0.0898529
0.0903833
0.090679
0.0908379
0.0909199
0.0909604
0.0909796
0.0909882
0.0909915
0.0909922
0.0909912
0.090989
0.0909855
0.0909811
0.090976
0.090971
0.090967
0.0352295
0.0676989
0.0791494
0.0844864
0.0873228
0.0889274
0.0898538
0.0903843
0.0906802
0.0908392
0.0909213
0.0909619
0.0909812
0.0909899
0.0909936
0.0909948
0.0909948
0.0909939
0.0909924
0.0909904
0.0909882
0.0909861
0.0909845
0.0352295
0.0676989
0.0791495
0.0844865
0.087323
0.0889277
0.0898542
0.0903848
0.0906807
0.0908397
0.0909218
0.0909625
0.0909818
0.0909907
0.0909945
0.090996
0.0909964
0.0909962
0.0909956
0.0909948
0.0909939
0.090993
0.0909924
0.0352295
0.0676989
0.0791495
0.0844865
0.0873231
0.0889278
0.0898543
0.090385
0.0906809
0.09084
0.0909221
0.0909627
0.0909821
0.090991
0.0909949
0.0909966
0.0909971
0.0909972
0.090997
0.0909967
0.0909964
0.0909961
0.0909959
0.0352295
0.0676989
0.0791495
0.0844866
0.0873231
0.0889278
0.0898544
0.090385
0.090681
0.09084
0.0909221
0.0909628
0.0909822
0.0909912
0.0909951
0.0909968
0.0909975
0.0909977
0.0909977
0.0909976
0.0909975
0.0909974
0.0909974
0.0352295
0.0676989
0.0791495
0.0844866
0.0873231
0.0889278
0.0898544
0.0903851
0.090681
0.0908401
0.0909222
0.0909629
0.0909823
0.0909912
0.0909952
0.0909969
0.0909976
0.0909979
0.0909979
0.0909979
0.0909979
0.090998
0.0909981
0.0352295
0.0676989
0.0791495
0.0844866
0.0873231
0.0889279
0.0898544
0.0903851
0.090681
0.0908401
0.0909222
0.0909629
0.0909823
0.0909912
0.0909952
0.0909969
0.0909977
0.0909979
0.0909981
0.0909981
0.0909981
0.0909982
0.0909983
0.0352295
0.0676989
0.0791495
0.0844866
0.0873231
0.0889279
0.0898544
0.0903851
0.090681
0.0908401
0.0909222
0.0909629
0.0909823
0.0909912
0.0909952
0.090997
0.0909977
0.090998
0.0909981
0.0909982
0.0909982
0.0909983
0.0909984
0.0352295
0.0676989
0.0791495
0.0844866
0.0873231
0.0889279
0.0898544
0.0903851
0.090681
0.0908401
0.0909222
0.0909629
0.0909823
0.0909912
0.0909952
0.090997
0.0909977
0.090998
0.0909981
0.0909982
0.0909982
0.0909983
0.0909985
0.0352295
0.0676989
0.0791495
0.0844866
0.0873231
0.0889279
0.0898544
0.0903851
0.090681
0.0908401
0.0909222
0.0909629
0.0909823
0.0909912
0.0909952
0.090997
0.0909977
0.090998
0.0909981
0.0909982
0.0909982
0.0909983
0.0909985
0.0352295
0.0676989
0.0791495
0.0844866
0.0873231
0.0889279
0.0898544
0.0903851
0.090681
0.0908401
0.0909222
0.0909629
0.0909823
0.0909913
0.0909952
0.090997
0.0909977
0.090998
0.0909981
0.0909982
0.0909982
0.0909983
0.0909985
0.0352295
0.0676989
0.0791495
0.0844866
0.0873231
0.0889279
0.0898544
0.0903851
0.090681
0.0908401
0.0909222
0.0909629
0.0909823
0.0909913
0.0909952
0.090997
0.0909977
0.090998
0.0909981
0.0909982
0.0909982
0.0909983
0.0909985
0.0352295
0.0676989
0.0791495
0.0844866
0.0873231
0.0889279
0.0898544
0.0903851
0.090681
0.0908401
0.0909222
0.0909629
0.0909823
0.0909913
0.0909952
0.090997
0.0909977
0.090998
0.0909981
0.0909982
0.0909982
0.0909983
0.0909985
0.0352295
0.0676989
0.0791495
0.0844866
0.0873231
0.0889279
0.0898544
0.0903851
0.090681
0.0908401
0.0909222
0.0909629
0.0909823
0.0909913
0.0909952
0.090997
0.0909977
0.090998
0.0909981
0.0909982
0.0909982
0.0909983
0.0909985
0.0352295
0.0676989
0.0791495
0.0844866
0.0873231
0.0889279
0.0898544
0.0903851
0.090681
0.0908401
0.0909222
0.0909629
0.0909823
0.0909913
0.0909952
0.090997
0.0909977
0.090998
0.0909981
0.0909982
0.0909982
0.0909983
0.0909985
0.0352295
0.0676989
0.0791495
0.0844866
0.0873231
0.0889279
0.0898544
0.0903851
0.090681
0.0908401
0.0909222
0.0909629
0.0909823
0.0909913
0.0909952
0.090997
0.0909977
0.090998
0.0909981
0.0909982
0.0909982
0.0909983
0.0909985
0.0352295
0.0676989
0.0791495
0.0844866
0.0873231
0.0889279
0.0898544
0.0903851
0.090681
0.0908401
0.0909222
0.0909629
0.0909823
0.0909913
0.0909952
0.090997
0.0909977
0.090998
0.0909981
0.0909982
0.0909982
0.0909983
0.0909985
0.0352295
0.0676989
0.0791495
0.0844866
0.0873231
0.0889279
0.0898544
0.0903851
0.090681
0.0908401
0.0909222
0.0909629
0.0909823
0.0909913
0.0909952
0.090997
0.0909977
0.090998
0.0909981
0.0909982
0.0909982
0.0909983
0.0909985
0.0352295
0.0676989
0.0791495
0.0844866
0.0873231
0.0889279
0.0898544
0.0903851
0.090681
0.0908401
0.0909222
0.0909629
0.0909823
0.0909913
0.0909952
0.090997
0.0909977
0.090998
0.0909981
0.0909982
0.0909982
0.0909983
0.0909985
0.0352295
0.0676989
0.0791495
0.0844866
0.0873231
0.0889279
0.0898544
0.0903851
0.090681
0.0908401
0.0909222
0.0909629
0.0909823
0.0909913
0.0909952
0.090997
0.0909977
0.090998
0.0909981
0.0909982
0.0909982
0.0909983
0.0909985
0.0352295
0.0676989
0.0791495
0.0844866
0.0873231
0.0889279
0.0898544
0.0903851
0.090681
0.0908401
0.0909222
0.0909629
0.0909823
0.0909913
0.0909952
0.090997
0.0909977
0.090998
0.0909981
0.0909982
0.0909982
0.0909983
0.0909985
0.0352295
0.0676989
0.0791495
0.0844866
0.0873231
0.0889279
0.0898544
0.0903851
0.090681
0.0908401
0.0909222
0.0909629
0.0909823
0.0909913
0.0909952
0.090997
0.0909977
0.090998
0.0909981
0.0909982
0.0909982
0.0909983
0.0909985
0.0352295
0.0676989
0.0791495
0.0844866
0.0873231
0.0889279
0.0898544
0.0903851
0.090681
0.0908401
0.0909222
0.0909629
0.0909823
0.0909913
0.0909952
0.090997
0.0909977
0.090998
0.0909981
0.0909982
0.0909982
0.0909983
0.0909985
0.0352295
0.0676989
0.0791495
0.0844866
0.0873231
0.0889279
0.0898544
0.0903851
0.090681
0.0908401
0.0909222
0.0909629
0.0909823
0.0909913
0.0909952
0.090997
0.0909977
0.090998
0.0909981
0.0909982
0.0909982
0.0909983
0.0909985
0.0352295
0.0676989
0.0791495
0.0844866
0.0873231
0.0889279
0.0898544
0.0903851
0.090681
0.0908401
0.0909222
0.0909629
0.0909823
0.0909913
0.0909952
0.090997
0.0909977
0.090998
0.0909981
0.0909982
0.0909982
0.0909983
0.0909985
0.0352295
0.0676989
0.0791495
0.0844866
0.0873231
0.0889279
0.0898544
0.0903851
0.090681
0.0908401
0.0909222
0.0909629
0.0909823
0.0909913
0.0909952
0.090997
0.0909977
0.090998
0.0909981
0.0909982
0.0909982
0.0909983
0.0909985
0.0352295
0.0676989
0.0791495
0.0844866
0.0873231
0.0889279
0.0898544
0.0903851
0.090681
0.0908401
0.0909222
0.0909629
0.0909823
0.0909913
0.0909952
0.090997
0.0909977
0.090998
0.0909981
0.0909982
0.0909982
0.0909983
0.0909985
0.0352295
0.0676989
0.0791495
0.0844866
0.0873231
0.0889279
0.0898544
0.0903851
0.090681
0.0908401
0.0909222
0.0909629
0.0909823
0.0909913
0.0909952
0.090997
0.0909977
0.090998
0.0909981
0.0909982
0.0909982
0.0909983
0.0909985
0.0352295
0.0676989
0.0791495
0.0844866
0.0873231
0.0889279
0.0898544
0.0903851
0.090681
0.0908401
0.0909222
0.0909629
0.0909823
0.0909913
0.0909952
0.090997
0.0909977
0.090998
0.0909981
0.0909982
0.0909982
0.0909983
0.0909985
0.0352295
0.0676989
0.0791495
0.0844866
0.0873231
0.0889279
0.0898544
0.0903851
0.090681
0.0908401
0.0909222
0.0909629
0.0909823
0.0909913
0.0909952
0.090997
0.0909977
0.090998
0.0909981
0.0909982
0.0909982
0.0909983
0.0909985
0.0352295
0.0676989
0.0791495
0.0844866
0.0873231
0.0889279
0.0898544
0.0903851
0.090681
0.0908401
0.0909222
0.0909629
0.0909823
0.0909913
0.0909952
0.090997
0.0909977
0.090998
0.0909981
0.0909982
0.0909982
0.0909983
0.0909984
0.0352295
0.0676989
0.0791495
0.0844866
0.0873231
0.0889279
0.0898544
0.0903851
0.090681
0.0908401
0.0909222
0.0909629
0.0909823
0.0909913
0.0909952
0.090997
0.0909977
0.090998
0.0909981
0.0909982
0.0909982
0.0909983
0.0909984
0.0456339
0.0391578
0.0391178
0.045395
0.0748557
0.0733402
0.0733299
0.0748248
0.0833397
0.0829346
0.0829334
0.0833372
0.0869868
0.0868469
0.0868468
0.0869867
0.0888353
0.0887774
0.0887773
0.0888351
0.0898369
0.0898106
0.0898105
0.0898368
0.0903885
0.0903761
0.0903761
0.0903884
0.0906881
0.0906823
0.0906823
0.090688
0.0908461
0.0908434
0.0908434
0.090846
0.0909263
0.0909251
0.0909251
0.0909263
0.0909655
0.090965
0.090965
0.0909655
0.0909839
0.0909838
0.0909838
0.090984
0.0909923
0.0909923
0.0909923
0.0909923
0.090996
0.0909961
0.0909961
0.090996
0.0909976
0.0909977
0.0909977
0.0909976
0.0909982
0.0909983
0.0909983
0.0909983
0.0909985
0.0909986
0.0909986
0.0909985
0.0909986
0.0909987
0.0909987
0.0909986
0.0909986
0.0909987
0.0909988
0.0909987
0.0909987
0.0909988
0.0909988
0.0909987
0.0909987
0.0909988
0.0909988
0.0909987
0.0909987
0.0909988
0.0909988
0.0909987
0.0909987
0.0909988
0.0909988
0.0909987
0.0909987
0.0909988
0.0909988
0.0909987
0.0909987
0.0909988
0.0909988
0.0909987
0.0909987
0.0909988
0.0909988
0.0909987
0.0909987
0.0909988
0.0909988
0.0909987
0.0909987
0.0909988
0.0909988
0.0909987
0.0909987
0.0909988
0.0909988
0.0909987
0.0909987
0.0909988
0.0909988
0.0909987
0.0909987
0.0909988
0.0909988
0.0909987
0.0909987
0.0909988
0.0909988
0.0909987
0.0909987
0.0909988
0.0909988
0.0909987
0.0909987
0.0909988
0.0909988
0.0909987
0.0909987
0.0909988
0.0909988
0.0909987
0.0909987
0.0909988
0.0909988
0.0909987
0.0909987
0.0909988
0.0909988
0.0909987
0.0909987
0.0909988
0.0909988
0.0909987
0.0909986
0.0909987
0.0909987
0.0909987
0.0909986
0.0909987
0.0909987
0.0909986
0.0909986
0.0909987
0.0909987
0.0909986
0.0909986
0.0909986
0.0909986
0.0909986
0.0679204
0.078452
0.0831744
0.0854323
0.0865551
0.0871113
0.087377
0.0874952
0.0875379
0.0875346
0.087484
0.0873549
0.0870748
0.0865045
0.0853845
0.083197
0.0787344
0.068417
0.0368979
0.0789588
0.0832765
0.0859081
0.087411
0.0882419
0.088684
0.0889068
0.0890096
0.0890456
0.0890356
0.0889735
0.0888232
0.0885076
0.0878824
0.0866829
0.0843804
0.0797381
0.0691103
0.0371
0.0844994
0.086359
0.0877871
0.0887314
0.0893054
0.0896311
0.0898028
0.0898838
0.0899096
0.0898921
0.0898199
0.0896531
0.0893104
0.0886441
0.0873849
0.0849972
0.0802295
0.0694162
0.0371791
0.0874116
0.0882675
0.0890381
0.0896078
0.0899818
0.0902057
0.0903281
0.0903859
0.0904004
0.0903756
0.0902953
0.0901162
0.0897541
0.0890583
0.087757
0.0853106
0.0804629
0.069547
0.0372093
0.0890162
0.0894302
0.089844
0.0901754
0.0904062
0.0905504
0.090631
0.0906681
0.0906722
0.0906411
0.0905547
0.090367
0.0899917
0.0892764
0.0879475
0.0854641
0.0805697
0.0696011
0.0372205
0.0899203
0.0901253
0.0903444
0.0905301
0.0906652
0.0907522
0.0908014
0.0908221
0.0908178
0.0907817
0.090691
0.0904977
0.0901141
0.0893867
0.0880412
0.0855364
0.0806167
0.0696228
0.0372246
0.090428
0.0905295
0.0906427
0.0907426
0.0908175
0.0908668
0.0908943
0.0909034
0.090893
0.0908534
0.0907598
0.0905631
0.0901746
0.0894402
0.0880853
0.085569
0.0806367
0.0696313
0.037226
0.0907068
0.090756
0.0908127
0.0908641
0.0909036
0.0909298
0.0909435
0.090945
0.0909305
0.0908885
0.0907932
0.0905945
0.0902033
0.0894652
0.0881054
0.0855833
0.080645
0.0696346
0.0372265
0.0908546
0.0908779
0.0909052
0.0909305
0.0909503
0.0909631
0.0909687
0.0909656
0.0909486
0.0909052
0.0908088
0.0906091
0.0902165
0.0894764
0.0881141
0.0855893
0.0806483
0.0696358
0.0372267
0.0909301
0.0909406
0.0909533
0.0909652
0.0909745
0.0909802
0.0909813
0.0909755
0.0909571
0.0909129
0.0908159
0.0906156
0.0902223
0.0894812
0.0881178
0.0855917
0.0806496
0.0696362
0.0372268
0.090967
0.0909716
0.0909773
0.0909826
0.0909866
0.0909886
0.0909873
0.0909802
0.090961
0.0909163
0.090819
0.0906184
0.0902248
0.0894833
0.0881194
0.0855927
0.0806501
0.0696364
0.0372268
0.0909845
0.0909864
0.0909887
0.090991
0.0909925
0.0909926
0.0909902
0.0909824
0.0909628
0.0909178
0.0908204
0.0906196
0.0902258
0.0894841
0.08812
0.0855931
0.0806503
0.0696365
0.0372268
0.0909924
0.0909931
0.090994
0.0909948
0.0909952
0.0909945
0.0909915
0.0909833
0.0909635
0.0909185
0.0908209
0.0906201
0.0902262
0.0894845
0.0881202
0.0855933
0.0806503
0.0696365
0.0372268
0.0909959
0.0909961
0.0909964
0.0909966
0.0909964
0.0909954
0.0909921
0.0909838
0.0909639
0.0909187
0.0908212
0.0906203
0.0902264
0.0894846
0.0881203
0.0855933
0.0806504
0.0696365
0.0372268
0.0909974
0.0909974
0.0909974
0.0909974
0.090997
0.0909957
0.0909924
0.0909839
0.090964
0.0909188
0.0908213
0.0906204
0.0902265
0.0894847
0.0881204
0.0855933
0.0806504
0.0696365
0.0372268
0.0909981
0.0909979
0.0909978
0.0909977
0.0909972
0.0909959
0.0909925
0.090984
0.0909641
0.0909189
0.0908213
0.0906204
0.0902265
0.0894847
0.0881204
0.0855933
0.0806504
0.0696365
0.0372268
0.0909983
0.0909981
0.090998
0.0909978
0.0909973
0.090996
0.0909925
0.090984
0.0909641
0.0909189
0.0908213
0.0906205
0.0902265
0.0894847
0.0881204
0.0855933
0.0806504
0.0696365
0.0372268
0.0909984
0.0909982
0.0909981
0.0909979
0.0909973
0.090996
0.0909925
0.0909841
0.0909641
0.0909189
0.0908213
0.0906205
0.0902265
0.0894847
0.0881204
0.0855933
0.0806504
0.0696365
0.0372268
0.0909984
0.0909983
0.0909981
0.0909979
0.0909974
0.090996
0.0909925
0.0909841
0.0909641
0.0909189
0.0908213
0.0906205
0.0902265
0.0894847
0.0881204
0.0855933
0.0806504
0.0696365
0.0372268
0.0909985
0.0909983
0.0909981
0.0909979
0.0909974
0.090996
0.0909925
0.0909841
0.0909641
0.0909189
0.0908213
0.0906205
0.0902265
0.0894847
0.0881204
0.0855933
0.0806504
0.0696365
0.0372268
0.0909985
0.0909983
0.0909981
0.0909979
0.0909974
0.090996
0.0909925
0.0909841
0.0909641
0.0909189
0.0908213
0.0906205
0.0902265
0.0894847
0.0881204
0.0855933
0.0806504
0.0696365
0.0372268
0.0909985
0.0909983
0.0909981
0.0909979
0.0909974
0.090996
0.0909925
0.0909841
0.0909641
0.0909189
0.0908213
0.0906205
0.0902265
0.0894847
0.0881204
0.0855933
0.0806504
0.0696365
0.0372268
0.0909985
0.0909983
0.0909981
0.0909979
0.0909974
0.090996
0.0909925
0.0909841
0.0909641
0.0909189
0.0908213
0.0906205
0.0902265
0.0894847
0.0881204
0.0855933
0.0806504
0.0696365
0.0372268
0.0909985
0.0909983
0.0909981
0.0909979
0.0909974
0.090996
0.0909925
0.0909841
0.0909641
0.0909189
0.0908213
0.0906205
0.0902265
0.0894847
0.0881204
0.0855933
0.0806504
0.0696365
0.0372268
0.0909985
0.0909983
0.0909981
0.0909979
0.0909974
0.090996
0.0909925
0.0909841
0.0909641
0.0909189
0.0908213
0.0906205
0.0902265
0.0894847
0.0881204
0.0855933
0.0806504
0.0696365
0.0372268
0.0909985
0.0909983
0.0909981
0.0909979
0.0909974
0.090996
0.0909925
0.0909841
0.0909641
0.0909189
0.0908213
0.0906205
0.0902265
0.0894847
0.0881204
0.0855933
0.0806504
0.0696365
0.0372268
0.0909985
0.0909983
0.0909981
0.0909979
0.0909974
0.090996
0.0909925
0.0909841
0.0909641
0.0909189
0.0908213
0.0906205
0.0902265
0.0894847
0.0881204
0.0855933
0.0806504
0.0696365
0.0372268
0.0909985
0.0909983
0.0909981
0.0909979
0.0909974
0.090996
0.0909925
0.0909841
0.0909641
0.0909189
0.0908213
0.0906205
0.0902265
0.0894847
0.0881204
0.0855933
0.0806504
0.0696365
0.0372268
0.0909985
0.0909983
0.0909981
0.0909979
0.0909974
0.090996
0.0909925
0.0909841
0.0909641
0.0909189
0.0908213
0.0906205
0.0902265
0.0894847
0.0881204
0.0855933
0.0806504
0.0696365
0.0372268
0.0909985
0.0909983
0.0909981
0.0909979
0.0909974
0.090996
0.0909925
0.0909841
0.0909641
0.0909189
0.0908213
0.0906205
0.0902265
0.0894847
0.0881204
0.0855933
0.0806504
0.0696365
0.0372268
0.0909985
0.0909983
0.0909981
0.0909979
0.0909974
0.090996
0.0909925
0.0909841
0.0909641
0.0909189
0.0908213
0.0906205
0.0902265
0.0894847
0.0881204
0.0855933
0.0806504
0.0696365
0.0372268
0.0909985
0.0909983
0.0909981
0.0909979
0.0909974
0.090996
0.0909925
0.0909841
0.0909641
0.0909189
0.0908213
0.0906205
0.0902265
0.0894847
0.0881204
0.0855933
0.0806504
0.0696365
0.0372268
0.0909985
0.0909983
0.0909981
0.0909979
0.0909974
0.090996
0.0909925
0.0909841
0.0909641
0.0909189
0.0908213
0.0906205
0.0902265
0.0894847
0.0881204
0.0855933
0.0806504
0.0696365
0.0372268
0.0909985
0.0909983
0.0909981
0.0909979
0.0909974
0.090996
0.0909925
0.0909841
0.0909641
0.0909189
0.0908213
0.0906205
0.0902265
0.0894847
0.0881204
0.0855933
0.0806504
0.0696365
0.0372268
0.0909985
0.0909983
0.0909981
0.0909979
0.0909974
0.090996
0.0909925
0.0909841
0.0909641
0.0909189
0.0908213
0.0906205
0.0902265
0.0894847
0.0881204
0.0855933
0.0806504
0.0696365
0.0372268
0.0909985
0.0909983
0.0909981
0.0909979
0.0909974
0.090996
0.0909925
0.0909841
0.0909641
0.0909189
0.0908213
0.0906205
0.0902265
0.0894847
0.0881204
0.0855933
0.0806504
0.0696365
0.0372268
0.0909985
0.0909983
0.0909981
0.0909979
0.0909974
0.090996
0.0909925
0.0909841
0.0909641
0.0909189
0.0908213
0.0906205
0.0902265
0.0894847
0.0881204
0.0855933
0.0806504
0.0696365
0.0372268
0.0909985
0.0909983
0.0909981
0.0909979
0.0909974
0.090996
0.0909925
0.0909841
0.0909641
0.0909189
0.0908213
0.0906205
0.0902265
0.0894847
0.0881204
0.0855933
0.0806504
0.0696365
0.0372268
0.0909985
0.0909983
0.0909981
0.0909979
0.0909974
0.090996
0.0909925
0.0909841
0.0909641
0.0909189
0.0908213
0.0906205
0.0902265
0.0894847
0.0881204
0.0855933
0.0806504
0.0696365
0.0372268
0.0909984
0.0909983
0.0909981
0.0909979
0.0909974
0.090996
0.0909925
0.0909841
0.0909641
0.0909189
0.0908213
0.0906205
0.0902265
0.0894847
0.0881204
0.0855933
0.0806504
0.0696365
0.0372268
0.0909984
0.0909982
0.0909981
0.0909979
0.0909974
0.090996
0.0909925
0.0909841
0.0909641
0.0909189
0.0908213
0.0906205
0.0902265
0.0894847
0.0881204
0.0855934
0.0806504
0.0696365
0.0372268
0.0909984
0.0909982
0.0909981
0.0909979
0.0909974
0.090996
0.0909925
0.0909841
0.0909641
0.0909189
0.0908213
0.0906205
0.0902265
0.0894847
0.0881204
0.0855934
0.0806504
0.0696365
0.0372268
)
;

boundaryField
{
    leftWall
    {
        type            kqRWallFunction;
        value           nonuniform List<scalar> 
50
(
0.0179264
0.0261202
0.0294508
0.031441
0.0327378
0.0335966
0.0341625
0.0345313
0.0349022
0.0351038
0.0351825
0.0352123
0.0352233
0.0352273
0.0352287
0.0352292
0.0352294
0.0352294
0.0352294
0.0352295
0.0352295
0.0352295
0.0352295
0.0352295
0.0352295
0.0352295
0.0352295
0.0352295
0.0352295
0.0352295
0.0352295
0.0352295
0.0352295
0.0352295
0.0352295
0.0352295
0.0352295
0.0352295
0.0352295
0.0352295
0.0352295
0.0352295
0.0352295
0.0352295
0.0352295
0.0352295
0.0352295
0.0352295
0.0352295
0.0352295
)
;
    }
    rightWall
    {
        type            kqRWallFunction;
        value           nonuniform List<scalar> 
50
(
0.0190065
0.0280265
0.0314821
0.0334722
0.0347519
0.0356001
0.0361611
0.0365279
0.0368979
0.0371
0.0371791
0.0372093
0.0372205
0.0372246
0.037226
0.0372265
0.0372267
0.0372268
0.0372268
0.0372268
0.0372268
0.0372268
0.0372268
0.0372268
0.0372268
0.0372268
0.0372268
0.0372268
0.0372268
0.0372268
0.0372268
0.0372268
0.0372268
0.0372268
0.0372268
0.0372268
0.0372268
0.0372268
0.0372268
0.0372268
0.0372268
0.0372268
0.0372268
0.0372268
0.0372268
0.0372268
0.0372268
0.0372268
0.0372268
0.0372268
)
;
    }
    lowerWall
    {
        type            kqRWallFunction;
        value           nonuniform List<scalar> 
62
(
0.0179264
0.0193417
0.0222804
0.0236422
0.0242278
0.0244675
0.0245613
0.0245967
0.0246096
0.0246142
0.0246158
0.0246163
0.0246162
0.0246153
0.0246124
0.0246034
0.0245765
0.0244987
0.0242834
0.0237224
0.0223595
0.0192912
0.0133885
0.0133885
0.0254525
0.029364
0.0315635
0.0330988
0.0345249
0.0369348
0.044537
0.0456339
0.0391578
0.0391178
0.045395
0.0138696
0.0271908
0.031339
0.0335815
0.0351178
0.0365684
0.0390764
0.0466314
0.0138696
0.0198392
0.0227637
0.0239564
0.0243977
0.024548
0.024596
0.0246105
0.0246146
0.0246152
0.0246134
0.0246069
0.0245865
0.0245259
0.0243525
0.0238818
0.0226793
0.0198786
0.0190065
)
;
    }
    atmosphere
    {
        type            inletOutlet;
        inletValue      uniform 0.1;
        value           nonuniform List<scalar> 
46
(
0.0352295
0.0676989
0.0791495
0.0844866
0.0873231
0.0889279
0.0898544
0.0903851
0.090681
0.0908401
0.0909222
0.0909629
0.0909823
0.0909913
0.0909952
0.090997
0.0909977
0.090998
0.0909981
0.0909982
0.0909982
0.0909983
0.0909984
0.0909986
0.0909986
0.0909986
0.0909986
0.0909984
0.0909982
0.0909981
0.0909979
0.0909974
0.090996
0.0909925
0.0909841
0.0909641
0.0909189
0.0908213
0.0906205
0.0902265
0.0894847
0.0881204
0.0855934
0.0806504
0.0696365
0.0372268
)
;
    }
    defaultFaces
    {
        type            empty;
    }
}


// ************************************************************************* //
