/*--------------------------------*- C++ -*----------------------------------*\
| =========                 |                                                 |
| \\      /  F ield         | OpenFOAM: The Open Source CFD Toolbox           |
|  \\    /   O peration     | Version:  2406                                  |
|   \\  /    A nd           | Website:  www.openfoam.com                      |
|    \\/     M anipulation  |                                                 |
\*---------------------------------------------------------------------------*/
FoamFile
{
    version     2.0;
    format      ascii;
    arch        "LSB;label=32;scalar=64";
    class       volScalarField;
    location    "0.1";
    object      k;
}
// * * * * * * * * * * * * * * * * * * * * * * * * * * * * * * * * * * * * * //

dimensions      [0 2 -2 0 0 0 0];

internalField   nonuniform List<scalar> 
2268
(
0.1
0.1
0.1
0.1
0.1
0.1
0.1
0.1
0.1
0.1
0.1
0.1
0.1
0.0198902
0.0216613
0.0234518
0.0241936
0.024419
0.0243161
0.0237859
0.0224075
0.0193072
0.0133899
0.1
0.1
0.1
0.1
0.1
0.1
0.1
0.1
0.1
0.1
0.1
0.1
0.1
0.0416696
0.0474209
0.0509953
0.0525903
0.0531085
0.0528793
0.0517061
0.0487525
0.0420064
0.0254603
0.1
0.1
0.1
0.1
0.1
0.1
0.1
0.1
0.1
0.1
0.1
0.1
0.1
0.0517106
0.0587309
0.0628138
0.0647219
0.0653767
0.0650997
0.0636649
0.0601188
0.0519235
0.0293783
0.1
0.1
0.1
0.1
0.1
0.1
0.1
0.1
0.1
0.1
0.1
0.1
0.1
0.0576416
0.0653698
0.0696175
0.071645
0.0723699
0.0720846
0.0705523
0.0667705
0.0578197
0.0315893
0.1
0.1
0.1
0.1
0.1
0.1
0.1
0.1
0.1
0.1
0.1
0.1
0.1
0.0613974
0.0696555
0.073986
0.0760633
0.0768308
0.0765644
0.0750302
0.0712073
0.061876
0.0331377
0.1
0.1
0.1
0.1
0.1
0.1
0.1
0.1
0.1
0.1
0.1
0.1
0.1
0.0638719
0.0725406
0.0769438
0.0790522
0.079855
0.0796299
0.0781624
0.0744559
0.0651183
0.0345734
0.1
0.1
0.1
0.1
0.1
0.1
0.1
0.1
0.1
0.1
0.1
0.1
0.1
0.0655496
0.0745274
0.0790106
0.0811526
0.0819938
0.0818293
0.0804832
0.0770493
0.0682377
0.0369875
0.1
0.1
0.1
0.1
0.1
0.1
0.1
0.1
0.1
0.1
0.1
0.1
0.1
0.066715
0.0759137
0.0804846
0.0826699
0.0835567
0.0834685
0.0822856
0.07927
0.0717449
0.0445931
0.0138709
0.0198561
0.022817
0.0240373
0.0244831
0.0246294
0.0246738
0.0246865
0.02469
0.0246904
0.0246889
0.0246833
0.0246653
0.024609
0.0244406
0.0239671
0.0227396
0.0198987
0.0190084
0.0271976
0.0432518
0.0496523
0.0522922
0.0533187
0.0536868
0.0538093
0.0538477
0.0538588
0.0538603
0.053855
0.0538365
0.0537813
0.0536234
0.0531934
0.0520887
0.0494127
0.0431488
0.0280347
0.031351
0.0534463
0.0612253
0.0644283
0.0657326
0.0662343
0.0664148
0.0664758
0.0664945
0.0664969
0.0664872
0.0664547
0.066364
0.0661242
0.0655209
0.0640825
0.0607851
0.0531216
0.0314983
0.0336042
0.0594953
0.067986
0.0714286
0.0728696
0.0734535
0.0736771
0.0737575
0.0737834
0.0737863
0.0737714
0.0737241
0.0735994
0.0732893
0.0725577
0.0709097
0.0672717
0.0588235
0.0335015
0.035155
0.0636444
0.0724796
0.0759812
0.0774719
0.0781006
0.0783539
0.0784498
0.0784819
0.078485
0.0784644
0.0784021
0.0782451
0.0778743
0.0770429
0.0752491
0.0713891
0.0624074
0.0347963
0.0366189
0.0669242
0.0757397
0.0791577
0.0806341
0.0812784
0.0815493
0.0816564
0.0816932
0.081696
0.0816695
0.0815923
0.0814054
0.0809823
0.080071
0.0781677
0.0741429
0.064759
0.0356558
0.0391373
0.0699921
0.0782942
0.0814948
0.0829072
0.0835439
0.0838218
0.0839357
0.0839757
0.0839776
0.083945
0.0838536
0.0836395
0.0831711
0.0821939
0.0802022
0.0760417
0.0663349
0.0362208
0.0467069
0.0732908
0.0804229
0.0832889
0.0845997
0.085211
0.085487
0.0856036
0.0856452
0.0856456
0.0856069
0.0855022
0.0852636
0.0847557
0.0837223
0.0816545
0.0773743
0.0673998
0.0365851
0.1
0.1
0.1
0.1
0.1
0.1
0.1
0.1
0.1
0.1
0.1
0.1
0.1
0.0680164
0.0774403
0.0821515
0.0844185
0.0853879
0.0854358
0.084545
0.0822998
0.0775156
0.0671769
0.1
0.1
0.1
0.1
0.1
0.1
0.1
0.1
0.1
0.1
0.1
0.1
0.1
0.0690774
0.078505
0.0833441
0.0857261
0.0868239
0.0870749
0.0865836
0.08524
0.0827407
0.0787167
0.1
0.1
0.1
0.1
0.1
0.1
0.1
0.1
0.1
0.1
0.1
0.1
0.1
0.0698598
0.0791117
0.0840015
0.0864742
0.0876915
0.0881284
0.0879682
0.0872621
0.0860239
0.0843902
0.1
0.1
0.1
0.1
0.1
0.1
0.1
0.1
0.1
0.1
0.1
0.1
0.1
0.0705098
0.0795033
0.0843837
0.0869136
0.0882255
0.0888107
0.0888946
0.0885967
0.0880177
0.0873231
0.1
0.1
0.1
0.1
0.1
0.1
0.1
0.1
0.1
0.1
0.1
0.1
0.1
0.0710798
0.0797882
0.0846218
0.0871781
0.0885547
0.0892458
0.0894949
0.089445
0.0892095
0.0889152
0.1
0.1
0.1
0.1
0.1
0.1
0.1
0.1
0.1
0.1
0.1
0.1
0.1
0.0715896
0.0800154
0.0847824
0.0873418
0.0887561
0.0895153
0.0898682
0.0899633
0.0899083
0.0897979
0.1
0.1
0.1
0.1
0.1
0.1
0.1
0.1
0.1
0.1
0.1
0.1
0.1
0.0720474
0.0802069
0.0848995
0.0874471
0.0888786
0.0896767
0.09009
0.0902663
0.0903054
0.0902834
0.1
0.1
0.1
0.1
0.1
0.1
0.1
0.1
0.1
0.1
0.1
0.1
0.1
0.0724571
0.080373
0.0849907
0.0875181
0.0889533
0.0897706
0.0902161
0.0904352
0.0905223
0.090543
0.1
0.1
0.1
0.1
0.1
0.1
0.1
0.1
0.1
0.1
0.1
0.1
0.1
0.0728216
0.0805189
0.0850653
0.0875691
0.0890001
0.0898245
0.0902853
0.0905254
0.0906357
0.0906764
0.1
0.1
0.1
0.1
0.1
0.1
0.1
0.1
0.1
0.1
0.1
0.1
0.1
0.0731433
0.0806471
0.0851283
0.0876079
0.089031
0.0898558
0.0903224
0.0905718
0.0906926
0.0907423
0.1
0.1
0.1
0.1
0.1
0.1
0.1
0.1
0.1
0.1
0.1
0.1
0.1
0.0734246
0.0807595
0.0851825
0.0876392
0.089053
0.089875
0.0903426
0.0905953
0.0907204
0.0907737
0.1
0.1
0.1
0.1
0.1
0.1
0.1
0.1
0.1
0.1
0.1
0.1
0.1
0.073668
0.0808577
0.0852301
0.0876662
0.0890705
0.0898882
0.0903545
0.0906076
0.0907338
0.0907884
0.1
0.1
0.1
0.1
0.1
0.1
0.1
0.1
0.1
0.1
0.1
0.1
0.1
0.0738765
0.0809443
0.0852738
0.0876918
0.0890868
0.0898995
0.0903631
0.0906149
0.0907408
0.0907953
0.1
0.1
0.1
0.1
0.1
0.1
0.1
0.1
0.1
0.1
0.1
0.1
0.1
0.0740551
0.0810247
0.0853192
0.0877206
0.0891059
0.089912
0.0903714
0.0906207
0.0907452
0.0907991
0.1
0.1
0.1
0.1
0.1
0.1
0.1
0.1
0.1
0.1
0.1
0.1
0.1
0.0742154
0.0811138
0.0853788
0.0877618
0.0891336
0.08993
0.0903825
0.0906275
0.0907493
0.0908018
0.1
0.1
0.1
0.1
0.1
0.1
0.1
0.1
0.1
0.1
0.1
0.1
0.1
0.0743949
0.0812506
0.0854803
0.0878325
0.08918
0.0899588
0.0903996
0.0906371
0.0907546
0.0908046
0.1
0.1
0.1
0.1
0.1
0.1
0.1
0.1
0.1
0.1
0.1
0.1
0.1
0.0747241
0.0815349
0.0856794
0.0879611
0.0892594
0.0900058
0.0904262
0.0906514
0.090762
0.0908083
0.1
0.1
0.1
0.1
0.1
0.1
0.1
0.1
0.1
0.1
0.1
0.1
0.1
0.0756323
0.0821807
0.0860642
0.0881845
0.0893878
0.0900781
0.0904654
0.0906719
0.0907722
0.0908131
0.1
0.1
0.1
0.1
0.1
0.1
0.1
0.1
0.1
0.1
0.1
0.1
0.1
0.0781022
0.0834602
0.0867078
0.0885254
0.0895731
0.0901783
0.0905183
0.0906987
0.0907853
0.0908192
0.1
0.1
0.1
0.1
0.1
0.1
0.1
0.1
0.1
0.1
0.1
0.1
0.0754468
0.0809567
0.0851124
0.0875328
0.0889568
0.089804
0.0903011
0.0905819
0.0907305
0.0908005
0.0908262
0.0356998
0.0608597
0.0692627
0.0726781
0.0740676
0.0745809
0.0747239
0.0747334
0.0747466
0.0749367
0.07575
0.0781632
0.0809851
0.0843632
0.0868035
0.0884021
0.0894201
0.0900533
0.0904334
0.0906501
0.0907644
0.0908167
0.0908335
0.0332671
0.0627241
0.0728783
0.0773882
0.0795292
0.0805427
0.0810073
0.081225
0.0813809
0.0816463
0.082266
0.0835187
0.0851456
0.0868158
0.0881763
0.0891688
0.0898478
0.0902885
0.0905593
0.0907151
0.0907967
0.0908321
0.0908405
0.034313
0.0651521
0.0757829
0.0806079
0.0830309
0.0842806
0.0849221
0.0852589
0.0854771
0.0857176
0.0861108
0.0867479
0.0875605
0.0884172
0.0891745
0.0897693
0.0901983
0.0904863
0.0906667
0.0907711
0.0908246
0.0908454
0.0908466
0.034867
0.0665233
0.0774408
0.0824186
0.0849741
0.0863455
0.0870869
0.0874923
0.0877388
0.0879459
0.0881998
0.0885481
0.0889767
0.0894337
0.0898552
0.0902012
0.0904596
0.0906372
0.0907498
0.0908148
0.0908466
0.090856
0.0908515
0.0351001
0.0671986
0.0783302
0.083424
0.086066
0.087512
0.0883145
0.0887613
0.0890221
0.089205
0.0893793
0.0895819
0.0898167
0.0900642
0.0902962
0.090491
0.0906394
0.0907429
0.0908089
0.0908462
0.0908625
0.0908638
0.0908551
0.0351916
0.0675064
0.0787827
0.0839672
0.0866742
0.0881719
0.0890146
0.0894876
0.0897566
0.0899241
0.090053
0.0901775
0.0903089
0.0904427
0.0905676
0.0906733
0.0907546
0.0908117
0.0908478
0.0908672
0.0908733
0.0908691
0.0908576
0.0352259
0.0676384
0.0790004
0.084248
0.0870019
0.0885358
0.0894054
0.0898954
0.0901695
0.0903279
0.0904311
0.0905129
0.0905884
0.0906605
0.0907261
0.0907813
0.0908238
0.0908535
0.0908718
0.0908802
0.0908802
0.0908725
0.0908592
0.0352382
0.0676923
0.0790997
0.0843859
0.0871706
0.0887282
0.0896153
0.0901161
0.0903935
0.0905468
0.0906359
0.0906948
0.0907406
0.0907799
0.0908138
0.0908418
0.0908631
0.0908776
0.0908858
0.090888
0.0908843
0.0908746
0.0908603
0.0352425
0.0677135
0.0791429
0.0844503
0.0872532
0.0888253
0.089723
0.0902303
0.0905098
0.0906605
0.0907423
0.0907893
0.0908199
0.0908424
0.0908602
0.0908741
0.0908843
0.0908908
0.0908936
0.0908924
0.0908867
0.0908759
0.090861
0.0352441
0.0677216
0.079161
0.0844792
0.0872919
0.0888722
0.089776
0.090287
0.0905678
0.0907173
0.0907954
0.0908366
0.0908597
0.0908741
0.0908839
0.0908908
0.0908955
0.090898
0.0908981
0.0908951
0.0908883
0.0908769
0.0908616
0.0352446
0.0677246
0.0791685
0.0844919
0.0873098
0.0888946
0.0898017
0.0903147
0.0905963
0.0907454
0.0908217
0.0908601
0.0908797
0.0908902
0.0908963
0.0909
0.090902
0.0909025
0.0909012
0.0908974
0.09089
0.0908782
0.0908626
0.0352448
0.0677259
0.079172
0.0844983
0.0873191
0.0889064
0.0898155
0.0903298
0.0906119
0.0907608
0.0908363
0.0908735
0.0908915
0.0909002
0.0909046
0.0909067
0.0909075
0.090907
0.0909049
0.0909005
0.0908927
0.0908806
0.0908647
0.0352449
0.067727
0.079175
0.0845038
0.0873272
0.0889166
0.0898272
0.0903423
0.0906249
0.0907737
0.0908489
0.0908855
0.0909027
0.0909106
0.0909142
0.0909155
0.0909156
0.0909145
0.0909119
0.090907
0.0908988
0.0908862
0.0908698
0.0352453
0.0677292
0.0791808
0.0845139
0.087341
0.0889332
0.0898455
0.0903615
0.0906444
0.0907932
0.0908682
0.0909045
0.0909213
0.0909287
0.0909317
0.0909325
0.090932
0.0909304
0.0909272
0.0909217
0.0909127
0.0908992
0.0908819
0.0352463
0.0677356
0.0791961
0.0845382
0.0873723
0.0889689
0.0898835
0.0904005
0.0906835
0.0908322
0.0909069
0.0909428
0.0909592
0.0909661
0.0909686
0.0909688
0.0909676
0.0909652
0.0909611
0.0909545
0.0909442
0.0909292
0.09091
0.0352496
0.067755
0.0792383
0.0845998
0.0874464
0.0890494
0.0899662
0.0904833
0.0907656
0.0909134
0.0909873
0.0910226
0.0910384
0.0910447
0.0910465
0.0910459
0.0910437
0.0910401
0.0910346
0.0910261
0.0910135
0.0909957
0.0909732
0.0352612
0.0678164
0.0793559
0.0847541
0.0876179
0.0892256
0.0901411
0.0906547
0.0909336
0.0910788
0.0911509
0.0911849
0.0911998
0.0912053
0.091206
0.0912043
0.0912007
0.0911954
0.0911876
0.0911764
0.0911602
0.091138
0.0911101
0.0353035
0.0680177
0.0796813
0.0851299
0.088
0.0895957
0.0904952
0.0909949
0.0912638
0.0914026
0.0914709
0.0915026
0.0915159
0.0915201
0.0915197
0.0915165
0.0915112
0.0915037
0.0914932
0.0914784
0.0914577
0.0914295
0.0913942
0.0354697
0.0686968
0.0805648
0.0860062
0.0888064
0.0903307
0.0911747
0.0916366
0.0918821
0.0920073
0.0920683
0.092096
0.0921072
0.0921099
0.0921082
0.0921037
0.0920969
0.0920874
0.0920744
0.0920563
0.0920312
0.0919973
0.0919544
0.0362248
0.0709937
0.0828327
0.0879009
0.0903826
0.0916905
0.0923987
0.0927801
0.0929802
0.0930811
0.0931297
0.0931514
0.0931597
0.093161
0.0931585
0.0931534
0.093146
0.093136
0.0931222
0.0931032
0.0930768
0.093041
0.0929953
0.0411102
0.0781305
0.0878969
0.0914833
0.093139
0.0939935
0.0944521
0.0946975
0.0948257
0.0948901
0.0949209
0.0949345
0.0949394
0.0949398
0.0949374
0.0949332
0.0949273
0.0949192
0.0949082
0.094893
0.0948719
0.0948433
0.0948064
0.0858194
0.094765
0.0962362
0.0969091
0.0972958
0.0975225
0.0976533
0.0977264
0.0977657
0.0977859
0.0977957
0.0978
0.0978015
0.0978014
0.0978005
0.0977988
0.0977964
0.0977933
0.097789
0.0977832
0.0977752
0.0977643
0.0977505
0.0456693
0.0391694
0.0391303
0.0454338
0.0748735
0.073357
0.0733512
0.0748589
0.0833338
0.0829378
0.0829439
0.083354
0.086953
0.0868238
0.086831
0.086976
0.0887704
0.0887228
0.0887303
0.0887939
0.0897423
0.0897258
0.0897335
0.0897664
0.090267
0.090264
0.0902718
0.0902918
0.0905445
0.0905475
0.0905555
0.0905696
0.0906861
0.0906918
0.0906998
0.0907114
0.0907555
0.0907624
0.0907705
0.0907808
0.0907884
0.0907957
0.0908038
0.0908136
0.0908035
0.090811
0.090819
0.0908286
0.0908105
0.0908179
0.0908258
0.0908353
0.0908139
0.0908212
0.0908289
0.0908383
0.090816
0.090823
0.0908306
0.0908397
0.0908179
0.0908245
0.0908317
0.0908407
0.0908202
0.0908261
0.0908329
0.0908415
0.0908231
0.0908281
0.0908342
0.0908425
0.0908266
0.0908305
0.0908359
0.0908436
0.0908306
0.0908332
0.0908377
0.0908448
0.0908348
0.090836
0.0908396
0.0908461
0.0908388
0.0908387
0.0908414
0.0908473
0.0908423
0.0908411
0.0908429
0.0908483
0.0908452
0.090843
0.0908442
0.0908492
0.0908473
0.0908444
0.0908452
0.0908498
0.0908487
0.0908454
0.0908459
0.0908503
0.0908497
0.0908461
0.0908463
0.0908506
0.0908503
0.0908465
0.0908466
0.0908508
0.0908508
0.0908469
0.0908469
0.090851
0.0908513
0.0908473
0.0908473
0.0908514
0.0908521
0.0908481
0.090848
0.090852
0.0908541
0.0908499
0.0908497
0.0908537
0.0908588
0.0908544
0.090854
0.0908577
0.0908702
0.0908653
0.0908644
0.0908676
0.0908967
0.0908908
0.090889
0.0908912
0.0909571
0.0909493
0.0909456
0.0909459
0.0910893
0.0910784
0.0910713
0.0910682
0.0913667
0.091351
0.0913388
0.0913304
0.0919195
0.0918983
0.0918799
0.0918645
0.0929568
0.0929322
0.092909
0.0928874
0.0947742
0.0947529
0.0947313
0.0947095
0.0977381
0.0977294
0.0977198
0.0977095
0.068004
0.0785416
0.0832578
0.0855062
0.086622
0.087173
0.0874344
0.0875497
0.0875911
0.0875884
0.0875406
0.0874167
0.0871442
0.086583
0.0854735
0.0832989
0.0788477
0.0685249
0.03695
0.0790128
0.0833298
0.0859544
0.0874497
0.0882743
0.0887114
0.0889302
0.0890303
0.0890654
0.0890565
0.0889978
0.0888536
0.0885464
0.0879315
0.0867436
0.0844541
0.079821
0.069188
0.0371349
0.0845236
0.0863809
0.0878034
0.0887417
0.0893101
0.0896309
0.0897987
0.0898772
0.0899024
0.0898866
0.0898186
0.0896589
0.0893259
0.088671
0.0874241
0.0850484
0.0802872
0.0694683
0.0372023
0.0874065
0.0882624
0.0890294
0.0895942
0.089963
0.0901822
0.0903009
0.0903566
0.090371
0.0903484
0.0902732
0.0901022
0.089751
0.0890678
0.0877796
0.0853452
0.0805035
0.0695842
0.0372271
0.0889828
0.0894008
0.0898135
0.0901414
0.0903679
0.0905079
0.0905855
0.0906211
0.0906256
0.0905972
0.0905166
0.090338
0.0899747
0.0892732
0.0879583
0.0854877
0.0806003
0.0696309
0.0372362
0.0898604
0.0900736
0.0902949
0.0904791
0.0906113
0.0906953
0.0907423
0.0907622
0.0907589
0.0907261
0.0906417
0.0904583
0.0900877
0.089375
0.0880445
0.0855534
0.080642
0.0696494
0.0372394
0.0903442
0.090458
0.0905771
0.0906781
0.0907521
0.0907998
0.0908262
0.0908351
0.0908262
0.0907902
0.0907034
0.0905171
0.0901423
0.0894234
0.0880843
0.0855825
0.0806595
0.0696565
0.0372406
0.0906032
0.0906687
0.0907345
0.0907897
0.0908301
0.0908561
0.0908696
0.0908716
0.090859
0.090821
0.0907327
0.0905448
0.0901676
0.0894454
0.088102
0.085595
0.0806665
0.0696591
0.037241
0.0907364
0.0907788
0.090818
0.0908493
0.0908716
0.0908853
0.0908914
0.0908893
0.0908745
0.0908352
0.0907461
0.0905573
0.090179
0.0894552
0.0881096
0.0856002
0.0806693
0.0696601
0.0372411
0.0908021
0.0908339
0.0908603
0.0908797
0.0908927
0.0909
0.0909021
0.0908976
0.0908816
0.0908417
0.0907521
0.0905628
0.0901839
0.0894593
0.0881128
0.0856023
0.0806704
0.0696605
0.0372412
0.0908332
0.0908602
0.0908807
0.0908946
0.090903
0.0909071
0.0909072
0.0909015
0.0908848
0.0908445
0.0907546
0.0905652
0.090186
0.089461
0.0881141
0.0856031
0.0806708
0.0696606
0.0372412
0.0908474
0.0908723
0.0908903
0.0909015
0.0909078
0.0909104
0.0909095
0.0909032
0.0908862
0.0908457
0.0907557
0.0905661
0.0901868
0.0894617
0.0881146
0.0856034
0.080671
0.0696607
0.0372412
0.0908538
0.0908778
0.0908945
0.0909047
0.0909101
0.090912
0.0909106
0.090904
0.0908868
0.0908462
0.0907562
0.0905665
0.0901872
0.089462
0.0881148
0.0856035
0.080671
0.0696607
0.0372412
0.0908565
0.0908801
0.0908964
0.0909061
0.090911
0.0909126
0.090911
0.0909044
0.090887
0.0908464
0.0907564
0.0905667
0.0901873
0.0894621
0.0881148
0.0856036
0.080671
0.0696607
0.0372412
0.0908578
0.0908812
0.0908972
0.0909067
0.0909115
0.0909129
0.0909112
0.0909045
0.0908871
0.0908465
0.0907564
0.0905668
0.0901874
0.0894622
0.0881149
0.0856036
0.080671
0.0696607
0.0372412
0.0908585
0.0908816
0.0908976
0.090907
0.0909117
0.0909131
0.0909113
0.0909046
0.0908872
0.0908465
0.0907565
0.0905668
0.0901874
0.0894622
0.0881149
0.0856036
0.0806711
0.0696607
0.0372412
0.090859
0.0908819
0.0908978
0.0909071
0.0909117
0.0909131
0.0909114
0.0909046
0.0908872
0.0908466
0.0907565
0.0905668
0.0901874
0.0894622
0.0881149
0.0856036
0.0806711
0.0696607
0.0372412
0.0908595
0.0908821
0.0908979
0.0909071
0.0909118
0.0909131
0.0909114
0.0909046
0.0908872
0.0908466
0.0907565
0.0905668
0.0901874
0.0894622
0.0881149
0.0856036
0.0806711
0.0696607
0.0372412
0.09086
0.0908823
0.090898
0.0909072
0.0909118
0.0909131
0.0909114
0.0909046
0.0908872
0.0908466
0.0907565
0.0905668
0.0901874
0.0894622
0.0881149
0.0856036
0.0806711
0.0696607
0.0372412
0.0908606
0.0908826
0.090898
0.0909072
0.0909118
0.0909132
0.0909114
0.0909046
0.0908872
0.0908466
0.0907565
0.0905668
0.0901874
0.0894622
0.0881149
0.0856036
0.0806711
0.0696607
0.0372412
0.0908612
0.0908828
0.0908981
0.0909072
0.0909118
0.0909132
0.0909114
0.0909046
0.0908872
0.0908466
0.0907565
0.0905668
0.0901874
0.0894622
0.0881149
0.0856036
0.0806711
0.0696607
0.0372412
0.0908617
0.090883
0.0908982
0.0909073
0.0909118
0.0909132
0.0909114
0.0909046
0.0908872
0.0908466
0.0907565
0.0905668
0.0901874
0.0894622
0.0881149
0.0856036
0.0806711
0.0696607
0.0372412
0.0908622
0.0908832
0.0908983
0.0909073
0.0909118
0.0909132
0.0909114
0.0909046
0.0908872
0.0908466
0.0907565
0.0905668
0.0901874
0.0894622
0.0881149
0.0856036
0.0806711
0.0696607
0.0372412
0.0908626
0.0908833
0.0908983
0.0909073
0.0909118
0.0909132
0.0909114
0.0909046
0.0908872
0.0908466
0.0907565
0.0905668
0.0901874
0.0894622
0.0881149
0.0856036
0.0806711
0.0696607
0.0372412
0.0908629
0.0908834
0.0908984
0.0909073
0.0909118
0.0909132
0.0909114
0.0909046
0.0908872
0.0908466
0.0907565
0.0905668
0.0901874
0.0894622
0.0881149
0.0856036
0.0806711
0.0696607
0.0372412
0.0908631
0.0908835
0.0908984
0.0909073
0.0909118
0.0909132
0.0909114
0.0909046
0.0908872
0.0908466
0.0907565
0.0905668
0.0901874
0.0894622
0.0881149
0.0856036
0.0806711
0.0696607
0.0372412
0.0908633
0.0908836
0.0908984
0.0909074
0.0909119
0.0909132
0.0909114
0.0909046
0.0908872
0.0908466
0.0907565
0.0905668
0.0901874
0.0894622
0.0881149
0.0856036
0.0806711
0.0696607
0.0372412
0.0908634
0.0908837
0.0908985
0.0909074
0.0909119
0.0909132
0.0909114
0.0909046
0.0908872
0.0908466
0.0907565
0.0905668
0.0901874
0.0894622
0.0881149
0.0856036
0.0806711
0.0696607
0.0372412
0.0908635
0.0908837
0.0908985
0.0909074
0.0909119
0.0909132
0.0909114
0.0909046
0.0908872
0.0908466
0.0907565
0.0905668
0.0901874
0.0894622
0.0881149
0.0856036
0.0806711
0.0696607
0.0372412
0.0908638
0.0908839
0.0908987
0.0909076
0.090912
0.0909133
0.0909115
0.0909047
0.0908873
0.0908466
0.0907565
0.0905668
0.0901874
0.0894622
0.0881149
0.0856036
0.0806711
0.0696607
0.0372412
0.0908644
0.0908844
0.0908991
0.0909079
0.0909123
0.0909135
0.0909117
0.0909048
0.0908874
0.0908467
0.0907565
0.0905668
0.0901874
0.0894622
0.0881149
0.0856036
0.0806711
0.0696607
0.0372412
0.0908659
0.0908857
0.0909002
0.0909088
0.0909131
0.0909141
0.0909121
0.0909052
0.0908876
0.0908468
0.0907566
0.0905669
0.0901875
0.0894622
0.0881149
0.0856036
0.0806711
0.0696607
0.0372412
0.0908696
0.090889
0.090903
0.0909112
0.090915
0.0909158
0.0909134
0.0909061
0.0908883
0.0908473
0.090757
0.0905671
0.0901876
0.0894623
0.0881149
0.0856036
0.0806711
0.0696607
0.0372412
0.0908787
0.0908971
0.0909101
0.0909173
0.0909202
0.09092
0.0909169
0.0909088
0.0908902
0.0908486
0.0907578
0.0905676
0.0901878
0.0894624
0.088115
0.0856036
0.0806711
0.0696607
0.0372412
0.0909007
0.0909168
0.0909277
0.0909327
0.0909335
0.0909312
0.0909259
0.0909158
0.0908954
0.0908522
0.0907601
0.0905689
0.0901886
0.0894628
0.0881151
0.0856037
0.0806711
0.0696607
0.0372412
0.0909522
0.0909638
0.0909701
0.0909705
0.0909666
0.0909595
0.0909493
0.0909343
0.0909093
0.090862
0.0907664
0.0905727
0.0901905
0.0894636
0.0881155
0.0856038
0.0806711
0.0696607
0.0372412
0.0910687
0.0910718
0.0910693
0.0910607
0.0910471
0.0910297
0.0910087
0.0909825
0.0909461
0.0908883
0.0907836
0.0905829
0.0901957
0.0894659
0.0881164
0.0856041
0.0806712
0.0696607
0.0372412
0.0913214
0.0913103
0.0912927
0.0912678
0.0912363
0.0911991
0.0911557
0.0911051
0.0910425
0.0909595
0.090831
0.0906114
0.0902097
0.0894717
0.0881185
0.0856048
0.0806713
0.0696607
0.0372412
0.0918426
0.0918115
0.0917719
0.0917225
0.0916624
0.0915916
0.0915073
0.0914093
0.0912907
0.0911508
0.090962
0.0906934
0.0902474
0.0894859
0.0881231
0.0856061
0.0806716
0.0696607
0.0372412
0.0928531
0.0928015
0.0927387
0.0926621
0.0925674
0.092453
0.0923093
0.0921359
0.0919143
0.0916626
0.0913284
0.0909391
0.0903473
0.0895185
0.0881326
0.0856086
0.080672
0.0696604
0.0372409
0.0946727
0.0946151
0.0945451
0.0944591
0.0943481
0.0942081
0.0940167
0.0937722
0.0934173
0.0930079
0.0923682
0.0917279
0.0905966
0.0895843
0.0881487
0.0856123
0.0806725
0.0696596
0.0372402
0.0976909
0.0976613
0.0976248
0.0975793
0.097516
0.0974321
0.0973001
0.0971189
0.0967812
0.0963765
0.0953905
0.0945112
0.0910939
0.0896775
0.0881671
0.0856161
0.080673
0.0696587
0.0372386
)
;

boundaryField
{
    leftWall
    {
        type            kqRWallFunction;
        value           nonuniform List<scalar> 
50
(
0.1
0.1
0.1
0.1
0.1
0.1
0.1
0.1
0.1
0.1
0.1
0.1
0.1
0.1
0.1
0.1
0.1
0.1
0.1
0.1
0.1
0.1
0.1
0.1
0.1
0.1
0.1
0.1
0.0356998
0.0332671
0.034313
0.034867
0.0351001
0.0351916
0.0352259
0.0352382
0.0352425
0.0352441
0.0352446
0.0352448
0.0352449
0.0352453
0.0352463
0.0352496
0.0352612
0.0353035
0.0354697
0.0362248
0.0411102
0.0858194
)
;
    }
    rightWall
    {
        type            kqRWallFunction;
        value           nonuniform List<scalar> 
50
(
0.0190084
0.0280347
0.0314983
0.0335015
0.0347963
0.0356558
0.0362208
0.0365851
0.03695
0.0371349
0.0372023
0.0372271
0.0372362
0.0372394
0.0372406
0.037241
0.0372411
0.0372412
0.0372412
0.0372412
0.0372412
0.0372412
0.0372412
0.0372412
0.0372412
0.0372412
0.0372412
0.0372412
0.0372412
0.0372412
0.0372412
0.0372412
0.0372412
0.0372412
0.0372412
0.0372412
0.0372412
0.0372412
0.0372412
0.0372412
0.0372412
0.0372412
0.0372412
0.0372412
0.0372412
0.0372412
0.0372412
0.0372409
0.0372402
0.0372386
)
;
    }
    lowerWall
    {
        type            kqRWallFunction;
        value           nonuniform List<scalar> 
62
(
0.1
0.1
0.1
0.1
0.1
0.1
0.1
0.1
0.1
0.1
0.1
0.1
0.1
0.0198902
0.0216613
0.0234518
0.0241936
0.024419
0.0243161
0.0237859
0.0224075
0.0193072
0.0133899
0.0133899
0.0254603
0.0293783
0.0315893
0.0331377
0.0345734
0.0369875
0.0445931
0.0456693
0.0391694
0.0391303
0.0454338
0.0138709
0.0271976
0.031351
0.0336042
0.035155
0.0366189
0.0391373
0.0467069
0.0138709
0.0198561
0.022817
0.0240373
0.0244831
0.0246294
0.0246738
0.0246865
0.02469
0.0246904
0.0246889
0.0246833
0.0246653
0.024609
0.0244406
0.0239671
0.0227396
0.0198987
0.0190084
)
;
    }
    atmosphere
    {
        type            inletOutlet;
        inletValue      uniform 0.1;
        value           nonuniform List<scalar> 
46
(
0.1
0.1
0.1
0.1
0.1
0.1
0.1
0.1
0.1
0.1
0.1
0.1
0.1
0.1
0.1
0.1
0.1
0.1
0.1
0.1
0.1
0.1
0.1
0.1
0.1
0.1
0.1
0.1
0.1
0.1
0.1
0.1
0.1
0.1
0.1
0.1
0.1
0.1
0.1
0.0910939
0.0896775
0.0881671
0.0856161
0.080673
0.0696587
0.0372386
)
;
    }
    defaultFaces
    {
        type            empty;
    }
}


// ************************************************************************* //
