/*--------------------------------*- C++ -*----------------------------------*\
| =========                 |                                                 |
| \\      /  F ield         | OpenFOAM: The Open Source CFD Toolbox           |
|  \\    /   O peration     | Version:  2406                                  |
|   \\  /    A nd           | Website:  www.openfoam.com                      |
|    \\/     M anipulation  |                                                 |
\*---------------------------------------------------------------------------*/
FoamFile
{
    version     2.0;
    format      ascii;
    arch        "LSB;label=32;scalar=64";
    class       volScalarField;
    location    "0.1";
    object      nut;
}
// * * * * * * * * * * * * * * * * * * * * * * * * * * * * * * * * * * * * * //

dimensions      [0 2 -1 0 0 0 0];

internalField   nonuniform List<scalar> 
2268
(
0.000101304
8.16507e-05
9.00028e-05
9.40672e-05
9.59862e-05
9.68497e-05
9.72173e-05
9.7366e-05
9.74238e-05
9.74456e-05
9.74534e-05
9.74558e-05
9.74553e-05
9.74511e-05
9.74377e-05
9.73981e-05
9.72866e-05
9.69853e-05
9.62172e-05
9.43893e-05
9.03247e-05
8.16408e-05
6.37506e-05
0.000196018
0.000551394
0.000723014
0.000808668
0.000850785
0.000870427
0.000879055
0.000882645
0.000884075
0.000884624
0.000884825
0.000884888
0.000884876
0.00088477
0.000884435
0.000883468
0.000880801
0.000873785
0.000856412
0.000816387
0.000730742
0.000556035
0.000193285
0.000211604
0.000901494
0.00131557
0.00154644
0.00166846
0.0017287
0.00175651
0.00176861
0.00177362
0.00177561
0.00177637
0.00177661
0.00177657
0.00177619
0.001775
0.0017717
0.00176291
0.00174072
0.00168814
0.00157288
0.0013414
0.000914954
0.00021139
0.000221099
0.00115123
0.00180904
0.0022111
0.00243815
0.00255665
0.00261411
0.00264023
0.00265148
0.00265611
0.00265792
0.00265851
0.00265843
0.00265756
0.00265491
0.00264775
0.00262939
0.00258483
0.00248365
0.00227171
0.00186827
0.00118183
0.00022196
0.000227431
0.00133338
0.00221605
0.00279874
0.00314776
0.0033393
0.00343646
0.00348246
0.003503
0.00351171
0.00351521
0.00351639
0.00351628
0.00351468
0.00350992
0.00349742
0.00346644
0.00339393
0.00323535
0.00291583
0.00233267
0.00139633
0.000229639
0.000231776
0.00146641
0.00254567
0.00330584
0.00378535
0.00406058
0.0042059
0.00427723
0.00431013
0.00432449
0.00433039
0.00433244
0.00433233
0.0043298
0.00432239
0.00430343
0.00425785
0.00415455
0.00393605
0.0035099
0.00275598
0.00158799
0.00023698
0.000234766
0.00156283
0.00280687
0.00373209
0.00434264
0.00470719
0.00490663
0.00500772
0.00505569
0.00507716
0.00508619
0.00508942
0.00508936
0.0050858
0.00507542
0.0050495
0.00498886
0.00485544
0.00458155
0.00406239
0.00316458
0.00178966
0.000248678
0.00023681
0.00163185
0.0030093
0.00408124
0.00481673
0.00527131
0.00552789
0.00566166
0.00572676
0.00575656
0.00576935
0.00577404
0.00577414
0.00576954
0.00575619
0.00572355
0.0056491
0.00548964
0.00517142
0.00458485
0.00359255
0.00205964
0.000279648
6.52407e-05
8.3193e-05
9.15169e-05
9.51431e-05
9.66218e-05
9.71754e-05
9.73671e-05
9.74294e-05
9.74478e-05
9.74504e-05
9.74419e-05
9.74118e-05
9.73232e-05
9.70772e-05
9.64308e-05
9.48406e-05
9.11761e-05
8.31663e-05
0.0001084
0.000222855
0.000585734
0.000755318
0.000832727
0.000865516
0.0008782
0.000882724
0.000884231
0.000884687
0.00088475
0.000884532
0.000883776
0.000881607
0.000875746
0.00086083
0.000825435
0.000747133
0.000580466
0.000226576
0.000243356
0.000980357
0.00140564
0.00161926
0.0017155
0.00175463
0.00176924
0.0017743
0.00177588
0.00177609
0.00177528
0.00177257
0.00176509
0.00174575
0.00169894
0.00159412
0.00137815
0.000964706
0.000243856
0.00025495
0.00127968
0.00197731
0.00235597
0.00253596
0.00261268
0.00264259
0.00265338
0.00265685
0.00265727
0.00265534
0.00264912
0.00263257
0.00259165
0.00249749
0.00229825
0.00191444
0.00124428
0.000254088
0.000263248
0.00152296
0.00248718
0.00304167
0.00331691
0.00343913
0.00348868
0.00350723
0.00351334
0.003514
0.00351027
0.00349867
0.00346888
0.00339815
0.00324271
0.00293046
0.00236432
0.00145092
0.000260833
0.000271316
0.0017406
0.00295322
0.00367665
0.00404801
0.00421881
0.00429054
0.00431826
0.00432758
0.00432842
0.00432213
0.00430317
0.00425603
0.00414809
0.00392049
0.00348401
0.00273404
0.00160324
0.00026546
0.000284479
0.0019667
0.00339832
0.00426483
0.00472156
0.00493833
0.00503231
0.00506969
0.00508247
0.0050833
0.00507366
0.0050455
0.00497747
0.00482667
0.00452006
0.00395575
0.00303087
0.00171436
0.000268652
0.000317998
0.00225967
0.00385171
0.00481344
0.00533393
0.00558864
0.0057024
0.00574885
0.00576491
0.00576546
0.00575173
0.00571288
0.00562139
0.00542428
0.0050362
0.00434726
0.00326364
0.00179432
0.00027084
0.000238977
0.00170849
0.00325318
0.00452827
0.00545037
0.00604771
0.00639937
0.00658972
0.00668548
0.00673063
0.00675051
0.00675806
0.00675865
0.00675253
0.00673476
0.00669254
0.00659962
0.00640836
0.006043
0.0054024
0.00438817
0.00298572
0.00143097
0.000240258
0.00175669
0.00342496
0.00487207
0.00596977
0.00671311
0.00716891
0.00742497
0.0075582
0.00762296
0.00765234
0.00766404
0.00766594
0.00765929
0.00763934
0.00759326
0.00749571
0.00730352
0.00695355
0.0063718
0.00550427
0.00437466
0.0031472
0.000240796
0.00177801
0.00350901
0.00505489
0.00626375
0.00710693
0.0076385
0.00794488
0.00810805
0.00818909
0.00822668
0.00824228
0.00824597
0.00824042
0.00822216
0.00818065
0.00809544
0.00793336
0.00764922
0.00719576
0.00654848
0.00574387
0.0049174
0.000241014
0.00178699
0.00354759
0.00514509
0.00641706
0.00732075
0.0079007
0.00824057
0.0084244
0.00851705
0.00856073
0.00857945
0.00858506
0.00858162
0.00856749
0.00853535
0.00847092
0.00835182
0.00814927
0.00783613
0.00740412
0.00688765
0.00638495
0.000241099
0.00179062
0.00356436
0.00518686
0.00649159
0.0074285
0.00803621
0.00839601
0.00859252
0.0086925
0.00874016
0.00876112
0.00876842
0.00876731
0.0087579
0.00873592
0.00869259
0.00861437
0.00848465
0.00828928
0.00802718
0.00772377
0.00744058
0.000241131
0.00179204
0.00357133
0.00520518
0.00652572
0.00747946
0.00810177
0.0084724
0.00867598
0.00878016
0.00883019
0.0088526
0.00886119
0.0088621
0.00885675
0.00884326
0.00881683
0.00877004
0.00869415
0.00858244
0.00843609
0.00827112
0.00812184
0.000241143
0.00179257
0.00357412
0.00521287
0.00654059
0.00750229
0.00813177
0.00850785
0.00871509
0.0088215
0.00887284
0.00889611
0.0089056
0.00890799
0.00890561
0.00889812
0.0088833
0.00885745
0.00881635
0.00875709
0.0086811
0.00859732
0.00852321
0.000241147
0.00179277
0.00357521
0.00521598
0.0065468
0.00751208
0.00814486
0.00852353
0.00873254
0.00884006
0.00889209
0.00891586
0.00892591
0.00892926
0.0089288
0.0089251
0.0089174
0.00890407
0.00888323
0.00885377
0.0088167
0.0087766
0.00874172
0.000241149
0.00179285
0.00357562
0.00521719
0.00654931
0.00751611
0.00815035
0.00853019
0.00874002
0.00884807
0.00890043
0.00892447
0.00893485
0.00893878
0.00893944
0.00893793
0.00893423
0.00892777
0.00891779
0.00890392
0.00888677
0.0088685
0.00885278
0.000241149
0.00179287
0.00357577
0.00521766
0.00655029
0.00751772
0.00815258
0.00853292
0.00874311
0.0088514
0.00890393
0.0089281
0.00893866
0.00894292
0.0089442
0.00894386
0.00894225
0.0089393
0.00893475
0.00892851
0.0089209
0.00891288
0.00890598
0.00024115
0.00179288
0.00357582
0.00521783
0.00655066
0.00751835
0.00815346
0.00853401
0.00874435
0.00885275
0.00890535
0.00892959
0.00894025
0.00894467
0.00894628
0.00894652
0.00894595
0.00894469
0.0089427
0.00893999
0.00893671
0.00893324
0.00893021
0.00024115
0.00179289
0.00357584
0.0052179
0.0065508
0.00751858
0.00815379
0.00853443
0.00874484
0.00885328
0.00890592
0.00893019
0.0089409
0.0089454
0.00894716
0.00894769
0.00894761
0.00894712
0.00894629
0.00894513
0.00894371
0.00894218
0.00894077
0.00024115
0.00179289
0.00357585
0.00521792
0.00655085
0.00751867
0.00815392
0.00853459
0.00874503
0.00885349
0.00890614
0.00893043
0.00894115
0.0089457
0.00894753
0.00894819
0.00894833
0.00894818
0.00894784
0.00894734
0.0089467
0.00894596
0.00894521
0.00024115
0.00179289
0.00357585
0.00521793
0.00655087
0.0075187
0.00815397
0.00853465
0.0087451
0.00885356
0.00890622
0.00893052
0.00894126
0.00894582
0.00894769
0.0089484
0.00894863
0.00894863
0.0089485
0.00894827
0.00894794
0.00894751
0.00894701
0.00024115
0.00179289
0.00357585
0.00521793
0.00655088
0.00751872
0.00815399
0.00853468
0.00874512
0.00885359
0.00890625
0.00893055
0.0089413
0.00894587
0.00894775
0.00894849
0.00894876
0.00894881
0.00894877
0.00894864
0.00894843
0.00894813
0.00894773
0.00024115
0.00179289
0.00357585
0.00521793
0.00655088
0.00751872
0.00815399
0.00853468
0.00874513
0.0088536
0.00890626
0.00893057
0.00894131
0.00894589
0.00894778
0.00894853
0.00894881
0.00894889
0.00894887
0.00894879
0.00894863
0.00894837
0.008948
0.00024115
0.00179289
0.00357585
0.00521793
0.00655088
0.00751872
0.00815399
0.00853469
0.00874514
0.00885361
0.00890627
0.00893057
0.00894132
0.0089459
0.00894779
0.00894854
0.00894883
0.00894892
0.00894892
0.00894885
0.0089487
0.00894846
0.00894811
0.00024115
0.00179289
0.00357585
0.00521793
0.00655088
0.00751872
0.00815399
0.00853469
0.00874514
0.00885361
0.00890627
0.00893057
0.00894132
0.0089459
0.00894779
0.00894855
0.00894884
0.00894893
0.00894893
0.00894887
0.00894873
0.00894849
0.00894815
0.00024115
0.00179289
0.00357585
0.00521793
0.00655088
0.00751872
0.00815399
0.00853469
0.00874514
0.00885361
0.00890627
0.00893058
0.00894132
0.0089459
0.00894779
0.00894855
0.00894884
0.00894893
0.00894894
0.00894888
0.00894874
0.00894851
0.00894816
0.00024115
0.00179289
0.00357585
0.00521793
0.00655088
0.00751872
0.00815399
0.00853469
0.00874514
0.00885361
0.00890627
0.00893058
0.00894132
0.0089459
0.00894779
0.00894855
0.00894884
0.00894894
0.00894894
0.00894888
0.00894875
0.00894851
0.00894817
0.00024115
0.00179289
0.00357585
0.00521793
0.00655088
0.00751872
0.00815399
0.00853469
0.00874514
0.00885361
0.00890627
0.00893058
0.00894132
0.0089459
0.00894779
0.00894855
0.00894884
0.00894894
0.00894894
0.00894888
0.00894875
0.00894851
0.00894817
0.00024115
0.00179289
0.00357585
0.00521793
0.00655088
0.00751872
0.00815399
0.00853469
0.00874514
0.00885361
0.00890627
0.00893058
0.00894132
0.0089459
0.00894779
0.00894855
0.00894884
0.00894894
0.00894894
0.00894888
0.00894875
0.00894851
0.00894817
0.00024115
0.00179289
0.00357585
0.00521793
0.00655088
0.00751872
0.00815399
0.00853469
0.00874514
0.00885361
0.00890627
0.00893058
0.00894132
0.0089459
0.00894779
0.00894855
0.00894884
0.00894894
0.00894894
0.00894888
0.00894875
0.00894851
0.00894817
0.00024115
0.00179289
0.00357585
0.00521793
0.00655088
0.00751872
0.00815399
0.00853469
0.00874514
0.00885361
0.00890627
0.00893058
0.00894132
0.0089459
0.00894779
0.00894855
0.00894884
0.00894894
0.00894894
0.00894888
0.00894875
0.00894851
0.00894817
0.00024115
0.00179289
0.00357585
0.00521793
0.00655088
0.00751872
0.00815399
0.00853469
0.00874514
0.00885361
0.00890627
0.00893058
0.00894132
0.0089459
0.00894779
0.00894855
0.00894884
0.00894894
0.00894894
0.00894888
0.00894875
0.00894851
0.00894817
0.00024115
0.00179289
0.00357585
0.00521793
0.00655088
0.00751872
0.00815399
0.00853469
0.00874514
0.00885361
0.00890627
0.00893058
0.00894132
0.0089459
0.00894779
0.00894855
0.00894884
0.00894894
0.00894894
0.00894888
0.00894875
0.00894851
0.00894817
0.00024115
0.00179289
0.00357585
0.00521793
0.00655088
0.00751872
0.00815399
0.00853469
0.00874514
0.00885361
0.00890627
0.00893058
0.00894132
0.0089459
0.00894779
0.00894855
0.00894884
0.00894894
0.00894894
0.00894888
0.00894875
0.00894851
0.00894817
0.00024115
0.00179289
0.00357585
0.00521793
0.00655088
0.00751872
0.00815399
0.00853469
0.00874514
0.00885361
0.00890627
0.00893058
0.00894132
0.0089459
0.00894779
0.00894855
0.00894884
0.00894894
0.00894894
0.00894888
0.00894875
0.00894851
0.00894817
0.00024115
0.00179289
0.00357585
0.00521793
0.00655088
0.00751872
0.00815399
0.00853469
0.00874514
0.00885361
0.00890627
0.00893058
0.00894132
0.0089459
0.00894779
0.00894855
0.00894884
0.00894894
0.00894894
0.00894888
0.00894875
0.00894851
0.00894817
0.00024115
0.00179289
0.00357585
0.00521793
0.00655088
0.00751872
0.00815399
0.00853469
0.00874514
0.00885361
0.00890627
0.00893058
0.00894132
0.0089459
0.00894779
0.00894855
0.00894884
0.00894894
0.00894894
0.00894888
0.00894875
0.00894851
0.00894817
0.00024115
0.00179289
0.00357585
0.00521793
0.00655088
0.00751872
0.00815399
0.00853469
0.00874514
0.00885361
0.00890627
0.00893058
0.00894132
0.0089459
0.00894779
0.00894855
0.00894884
0.00894894
0.00894894
0.00894888
0.00894875
0.00894851
0.00894817
0.00024115
0.00179289
0.00357585
0.00521793
0.00655088
0.00751872
0.00815399
0.00853469
0.00874514
0.00885361
0.00890627
0.00893058
0.00894132
0.0089459
0.00894779
0.00894855
0.00894884
0.00894894
0.00894894
0.00894888
0.00894875
0.00894851
0.00894817
0.00024115
0.00179289
0.00357585
0.00521793
0.00655088
0.00751872
0.00815399
0.00853469
0.00874514
0.00885361
0.00890627
0.00893058
0.00894132
0.0089459
0.00894779
0.00894855
0.00894884
0.00894894
0.00894894
0.00894888
0.00894875
0.00894851
0.00894817
0.00024115
0.00179289
0.00357585
0.00521793
0.00655088
0.00751872
0.00815399
0.00853469
0.00874514
0.00885361
0.00890627
0.00893058
0.00894132
0.0089459
0.00894779
0.00894855
0.00894884
0.00894894
0.00894894
0.00894888
0.00894875
0.00894851
0.00894817
0.00024115
0.00179289
0.00357585
0.00521793
0.00655088
0.00751872
0.00815399
0.00853469
0.00874514
0.00885361
0.00890627
0.00893058
0.00894132
0.0089459
0.00894779
0.00894855
0.00894884
0.00894894
0.00894894
0.00894888
0.00894875
0.00894852
0.00894817
0.00024115
0.00179289
0.00357585
0.00521793
0.00655088
0.00751872
0.00815399
0.00853469
0.00874514
0.00885361
0.00890627
0.00893058
0.00894132
0.0089459
0.00894779
0.00894855
0.00894884
0.00894894
0.00894894
0.00894888
0.00894875
0.00894852
0.00894817
0.00024115
0.00179289
0.00357585
0.00521793
0.00655088
0.00751872
0.00815399
0.00853469
0.00874514
0.00885361
0.00890627
0.00893058
0.00894132
0.0089459
0.00894779
0.00894855
0.00894884
0.00894894
0.00894894
0.00894888
0.00894875
0.00894852
0.00894817
0.00024115
0.00179289
0.00357585
0.00521793
0.00655088
0.00751872
0.00815399
0.00853469
0.00874514
0.00885361
0.00890627
0.00893058
0.00894132
0.0089459
0.00894779
0.00894855
0.00894884
0.00894894
0.00894895
0.00894889
0.00894875
0.00894852
0.00894818
0.00024115
0.00179289
0.00357585
0.00521793
0.00655088
0.00751872
0.00815399
0.00853469
0.00874514
0.00885361
0.00890627
0.00893058
0.00894132
0.0089459
0.00894779
0.00894855
0.00894884
0.00894894
0.00894895
0.00894889
0.00894876
0.00894853
0.0089482
0.00024115
0.00179289
0.00357585
0.00521793
0.00655088
0.00751872
0.00815399
0.00853469
0.00874514
0.00885361
0.00890627
0.00893058
0.00894132
0.0089459
0.0089478
0.00894855
0.00894884
0.00894894
0.00894895
0.00894889
0.00894877
0.00894854
0.00894822
0.00024115
0.00179289
0.00357585
0.00521793
0.00655088
0.00751872
0.00815399
0.00853469
0.00874514
0.00885361
0.00890628
0.00893058
0.00894133
0.00894591
0.0089478
0.00894856
0.00894885
0.00894894
0.00894895
0.0089489
0.00894877
0.00894856
0.00894824
0.00024115
0.00179289
0.00357585
0.00521793
0.00655088
0.00751872
0.00815399
0.00853469
0.00874514
0.00885361
0.00890628
0.00893058
0.00894133
0.00894591
0.0089478
0.00894856
0.00894885
0.00894895
0.00894895
0.0089489
0.00894878
0.00894857
0.00894827
0.000286613
0.000262005
0.000261831
0.000285702
0.002331
0.00218577
0.00218541
0.00232922
0.00447321
0.00433929
0.00433913
0.0044726
0.00614472
0.00606483
0.00606478
0.00614453
0.00731358
0.0072708
0.00727075
0.00731338
0.00805724
0.00803551
0.00803545
0.00805704
0.0084918
0.00848124
0.00848119
0.00849163
0.00872708
0.00872215
0.00872211
0.00872695
0.00884617
0.00884392
0.00884389
0.00884607
0.00890302
0.00890198
0.00890196
0.00890293
0.00892883
0.00892831
0.00892829
0.00892875
0.00894004
0.00893974
0.00893972
0.00893997
0.00894474
0.00894453
0.00894451
0.00894467
0.00894665
0.00894647
0.00894645
0.00894658
0.0089474
0.00894723
0.00894721
0.00894733
0.00894769
0.00894753
0.00894751
0.00894762
0.0089478
0.00894764
0.00894762
0.00894773
0.00894784
0.00894768
0.00894766
0.00894777
0.00894785
0.00894769
0.00894767
0.00894778
0.00894786
0.0089477
0.00894768
0.00894779
0.00894786
0.0089477
0.00894768
0.00894779
0.00894786
0.0089477
0.00894768
0.00894779
0.00894786
0.0089477
0.00894768
0.00894779
0.00894786
0.0089477
0.00894768
0.00894779
0.00894786
0.0089477
0.00894768
0.00894779
0.00894786
0.0089477
0.00894768
0.00894779
0.00894786
0.0089477
0.00894768
0.00894779
0.00894786
0.0089477
0.00894768
0.00894779
0.00894786
0.0089477
0.00894768
0.00894779
0.00894786
0.0089477
0.00894768
0.00894779
0.00894786
0.0089477
0.00894768
0.00894779
0.00894786
0.0089477
0.00894768
0.00894779
0.00894786
0.0089477
0.00894768
0.00894779
0.00894786
0.0089477
0.00894768
0.00894779
0.00894786
0.0089477
0.00894768
0.00894779
0.00894786
0.00894771
0.00894769
0.00894779
0.00894787
0.00894771
0.00894769
0.0089478
0.00894788
0.00894772
0.0089477
0.00894781
0.0089479
0.00894774
0.00894772
0.00894783
0.00894793
0.00894778
0.00894776
0.00894787
0.00894797
0.00894783
0.00894782
0.00894792
0.00894801
0.00894788
0.00894788
0.00894798
0.00150024
0.00318442
0.00465666
0.00565261
0.00622959
0.00652707
0.00666605
0.00672495
0.00674553
0.00674494
0.0067234
0.00666499
0.00653195
0.00625595
0.00573553
0.00485593
0.00354764
0.00188354
0.000273165
0.00320471
0.00454489
0.00573895
0.00660082
0.00713288
0.00742298
0.0075653
0.00762789
0.00764939
0.00764535
0.0076129
0.00752959
0.00734657
0.00698111
0.00632063
0.00525559
0.00375126
0.00194007
0.000274545
0.00495167
0.00586725
0.00672601
0.00737565
0.00779544
0.00803427
0.00815593
0.00821072
0.0082283
0.00821937
0.00817696
0.00807297
0.00785048
0.0074179
0.0066586
0.00547254
0.00385257
0.00196525
0.000275127
0.00640307
0.00696665
0.0075234
0.00796107
0.00825389
0.00842601
0.00851619
0.0085571
0.00856808
0.00855399
0.00850374
0.00838492
0.00813543
0.00765887
0.0068381
0.00558156
0.00389975
0.00197594
0.000275364
0.00744966
0.00776976
0.00809971
0.00836751
0.0085518
0.00866298
0.0087224
0.0087489
0.008753
0.00873441
0.00867867
0.00855041
0.00828445
0.00778207
0.00692679
0.00563284
0.00392053
0.00198029
0.000275457
0.00812621
0.00829587
0.00847657
0.00862723
0.00873343
0.00879888
0.00883421
0.00884898
0.00884742
0.00882545
0.00876621
0.00863245
0.00835733
0.0078411
0.00696799
0.00565566
0.00392926
0.00198199
0.000275493
0.00852522
0.00860975
0.00870207
0.00878083
0.00883753
0.00887307
0.00889213
0.00889873
0.00889317
0.00886892
0.00880759
0.00867086
0.00839102
0.00786787
0.00698617
0.00566535
0.00393279
0.00198265
0.000275506
0.00874259
0.00878248
0.00882688
0.00886552
0.00889385
0.00891176
0.00892097
0.00892249
0.00891439
0.00888873
0.00882625
0.00868801
0.00840587
0.00787946
0.00699385
0.00566931
0.00393417
0.00198289
0.000275511
0.00885313
0.00887113
0.00889144
0.00890939
0.00892273
0.00893111
0.00893484
0.00893347
0.0089239
0.00889744
0.00883434
0.00869536
0.00841216
0.00788429
0.00699698
0.00567087
0.00393469
0.00198298
0.000275512
0.0089061
0.008914
0.00892294
0.00893092
0.00893686
0.00894041
0.00894131
0.0089384
0.00892804
0.00890114
0.00883773
0.00869841
0.00841473
0.00788624
0.00699821
0.00567147
0.00393489
0.00198301
0.000275513
0.00893023
0.0089337
0.00893756
0.00894098
0.00894347
0.00894473
0.00894424
0.00894056
0.00892979
0.00890268
0.00883911
0.00869963
0.00841575
0.007887
0.00699869
0.0056717
0.00393496
0.00198302
0.000275513
0.00894076
0.00894237
0.00894406
0.0089455
0.00894645
0.00894666
0.00894554
0.00894149
0.00893053
0.0089033
0.00883966
0.00870012
0.00841615
0.00788729
0.00699887
0.00567178
0.00393499
0.00198302
0.000275513
0.00894518
0.00894604
0.00894684
0.00894745
0.00894775
0.00894751
0.00894609
0.00894188
0.00893083
0.00890355
0.00883988
0.0087003
0.0084163
0.0078874
0.00699893
0.00567181
0.003935
0.00198303
0.000275513
0.00894698
0.00894754
0.00894799
0.00894827
0.0089483
0.00894786
0.00894633
0.00894205
0.00893095
0.00890365
0.00883996
0.00870037
0.00841636
0.00788744
0.00699896
0.00567182
0.003935
0.00198303
0.000275513
0.00894769
0.00894814
0.00894845
0.0089486
0.00894853
0.00894801
0.00894643
0.00894211
0.008931
0.00890369
0.00883999
0.0087004
0.00841638
0.00788746
0.00699897
0.00567183
0.003935
0.00198303
0.000275513
0.00894797
0.00894837
0.00894863
0.00894873
0.00894862
0.00894807
0.00894647
0.00894214
0.00893102
0.0089037
0.00884001
0.00870041
0.00841639
0.00788746
0.00699897
0.00567183
0.003935
0.00198303
0.000275513
0.00894807
0.00894846
0.0089487
0.00894878
0.00894865
0.0089481
0.00894648
0.00894215
0.00893102
0.00890371
0.00884001
0.00870041
0.00841639
0.00788746
0.00699897
0.00567183
0.003935
0.00198303
0.000275513
0.00894811
0.0089485
0.00894873
0.0089488
0.00894867
0.00894811
0.00894649
0.00894215
0.00893103
0.00890371
0.00884001
0.00870041
0.00841639
0.00788747
0.00699897
0.00567183
0.003935
0.00198303
0.000275513
0.00894812
0.00894851
0.00894874
0.00894881
0.00894867
0.00894811
0.00894649
0.00894215
0.00893103
0.00890371
0.00884001
0.00870041
0.00841639
0.00788747
0.00699897
0.00567183
0.003935
0.00198303
0.000275513
0.00894813
0.00894851
0.00894874
0.00894881
0.00894867
0.00894811
0.00894649
0.00894215
0.00893103
0.00890371
0.00884001
0.00870041
0.00841639
0.00788747
0.00699897
0.00567183
0.003935
0.00198303
0.000275513
0.00894813
0.00894852
0.00894874
0.00894881
0.00894867
0.00894811
0.00894649
0.00894215
0.00893103
0.00890371
0.00884001
0.00870041
0.00841639
0.00788747
0.00699897
0.00567183
0.003935
0.00198303
0.000275513
0.00894813
0.00894852
0.00894875
0.00894881
0.00894867
0.00894811
0.00894649
0.00894215
0.00893103
0.00890371
0.00884001
0.00870041
0.00841639
0.00788747
0.00699897
0.00567183
0.003935
0.00198303
0.000275513
0.00894813
0.00894852
0.00894875
0.00894881
0.00894867
0.00894811
0.00894649
0.00894215
0.00893103
0.00890371
0.00884001
0.00870041
0.00841639
0.00788747
0.00699897
0.00567183
0.003935
0.00198303
0.000275513
0.00894813
0.00894852
0.00894875
0.00894881
0.00894867
0.00894811
0.00894649
0.00894215
0.00893103
0.00890371
0.00884001
0.00870041
0.00841639
0.00788747
0.00699897
0.00567183
0.003935
0.00198303
0.000275513
0.00894813
0.00894852
0.00894875
0.00894881
0.00894867
0.00894811
0.00894649
0.00894215
0.00893103
0.00890371
0.00884001
0.00870041
0.00841639
0.00788747
0.00699897
0.00567183
0.003935
0.00198303
0.000275513
0.00894813
0.00894852
0.00894875
0.00894881
0.00894867
0.00894811
0.00894649
0.00894215
0.00893103
0.00890371
0.00884001
0.00870041
0.00841639
0.00788747
0.00699897
0.00567183
0.003935
0.00198303
0.000275513
0.00894813
0.00894852
0.00894875
0.00894881
0.00894867
0.00894811
0.00894649
0.00894215
0.00893103
0.00890371
0.00884001
0.00870041
0.00841639
0.00788747
0.00699897
0.00567183
0.003935
0.00198303
0.000275513
0.00894813
0.00894852
0.00894875
0.00894881
0.00894867
0.00894811
0.00894649
0.00894215
0.00893103
0.00890371
0.00884001
0.00870041
0.00841639
0.00788747
0.00699897
0.00567183
0.003935
0.00198303
0.000275513
0.00894813
0.00894852
0.00894875
0.00894881
0.00894867
0.00894811
0.00894649
0.00894215
0.00893103
0.00890371
0.00884001
0.00870041
0.00841639
0.00788747
0.00699897
0.00567183
0.003935
0.00198303
0.000275513
0.00894813
0.00894852
0.00894875
0.00894881
0.00894867
0.00894811
0.00894649
0.00894215
0.00893103
0.00890371
0.00884001
0.00870041
0.00841639
0.00788747
0.00699897
0.00567183
0.003935
0.00198303
0.000275513
0.00894813
0.00894852
0.00894875
0.00894881
0.00894867
0.00894811
0.00894649
0.00894215
0.00893103
0.00890371
0.00884001
0.00870041
0.00841639
0.00788747
0.00699897
0.00567183
0.003935
0.00198303
0.000275513
0.00894813
0.00894852
0.00894875
0.00894881
0.00894867
0.00894811
0.00894649
0.00894215
0.00893103
0.00890371
0.00884001
0.00870041
0.00841639
0.00788747
0.00699897
0.00567183
0.003935
0.00198303
0.000275513
0.00894813
0.00894852
0.00894875
0.00894881
0.00894867
0.00894811
0.00894649
0.00894215
0.00893103
0.00890371
0.00884001
0.00870041
0.00841639
0.00788747
0.00699897
0.00567183
0.003935
0.00198303
0.000275513
0.00894813
0.00894852
0.00894875
0.00894881
0.00894867
0.00894811
0.00894649
0.00894215
0.00893103
0.00890371
0.00884001
0.00870041
0.00841639
0.00788747
0.00699897
0.00567183
0.003935
0.00198303
0.000275513
0.00894813
0.00894852
0.00894875
0.00894881
0.00894867
0.00894811
0.00894649
0.00894215
0.00893103
0.00890371
0.00884001
0.00870041
0.00841639
0.00788747
0.00699897
0.00567183
0.003935
0.00198303
0.000275513
0.00894814
0.00894852
0.00894875
0.00894882
0.00894867
0.00894811
0.00894649
0.00894216
0.00893103
0.00890371
0.00884001
0.00870041
0.00841639
0.00788747
0.00699897
0.00567183
0.003935
0.00198303
0.000275513
0.00894814
0.00894852
0.00894875
0.00894882
0.00894868
0.00894811
0.00894649
0.00894216
0.00893103
0.00890371
0.00884001
0.00870041
0.00841639
0.00788747
0.00699897
0.00567183
0.003935
0.00198303
0.000275513
0.00894815
0.00894853
0.00894875
0.00894882
0.00894868
0.00894811
0.00894649
0.00894216
0.00893103
0.00890371
0.00884001
0.00870041
0.00841639
0.00788747
0.00699897
0.00567183
0.003935
0.00198303
0.000275513
0.00894817
0.00894854
0.00894876
0.00894882
0.00894868
0.00894811
0.00894649
0.00894216
0.00893103
0.00890371
0.00884001
0.00870041
0.00841639
0.00788747
0.00699897
0.00567183
0.003935
0.00198303
0.000275513
0.00894819
0.00894856
0.00894877
0.00894883
0.00894868
0.00894812
0.00894649
0.00894216
0.00893103
0.00890371
0.00884001
0.00870042
0.00841639
0.00788747
0.00699897
0.00567183
0.003935
0.00198303
0.000275513
0.00894823
0.00894858
0.00894878
0.00894883
0.00894868
0.00894812
0.0089465
0.00894216
0.00893103
0.00890371
0.00884002
0.00870042
0.00841639
0.00788747
0.00699897
0.00567183
0.003935
0.00198303
0.000275513
0.00894827
0.0089486
0.00894879
0.00894884
0.00894869
0.00894812
0.0089465
0.00894216
0.00893103
0.00890371
0.00884002
0.00870042
0.00841639
0.00788747
0.00699897
0.00567183
0.003935
0.00198303
0.000275513
)
;

boundaryField
{
    leftWall
    {
        type            nutkWallFunction;
        blending        stepwise;
        value           nonuniform List<scalar> 
50
(
1.85038e-05
2.41225e-05
2.61148e-05
2.72448e-05
2.79593e-05
2.84238e-05
2.87262e-05
2.89217e-05
2.91172e-05
2.92229e-05
2.92641e-05
2.92797e-05
2.92854e-05
2.92875e-05
2.92882e-05
2.92885e-05
2.92886e-05
2.92886e-05
2.92886e-05
2.92886e-05
2.92886e-05
2.92886e-05
2.92886e-05
2.92886e-05
2.92886e-05
2.92886e-05
2.92886e-05
2.92886e-05
2.92886e-05
2.92886e-05
2.92886e-05
2.92886e-05
2.92886e-05
2.92886e-05
2.92886e-05
2.92886e-05
2.92886e-05
2.92886e-05
2.92886e-05
2.92886e-05
2.92886e-05
2.92886e-05
2.92886e-05
2.92886e-05
2.92886e-05
2.92886e-05
2.92886e-05
2.92886e-05
2.92886e-05
2.92886e-05
)
;
    }
    rightWall
    {
        type            nutkWallFunction;
        blending        stepwise;
        value           nonuniform List<scalar> 
50
(
2.24261e-05
2.89557e-05
3.11342e-05
3.23277e-05
3.30741e-05
3.35602e-05
3.38782e-05
3.40846e-05
3.42916e-05
3.44041e-05
3.44481e-05
3.44649e-05
3.44711e-05
3.44734e-05
3.44742e-05
3.44745e-05
3.44746e-05
3.44746e-05
3.44746e-05
3.44746e-05
3.44746e-05
3.44746e-05
3.44746e-05
3.44746e-05
3.44746e-05
3.44746e-05
3.44746e-05
3.44746e-05
3.44746e-05
3.44746e-05
3.44746e-05
3.44746e-05
3.44746e-05
3.44746e-05
3.44746e-05
3.44746e-05
3.44746e-05
3.44746e-05
3.44746e-05
3.44746e-05
3.44746e-05
3.44746e-05
3.44746e-05
3.44746e-05
3.44746e-05
3.44746e-05
3.44746e-05
3.44746e-05
3.44746e-05
3.44746e-05
)
;
    }
    lowerWall
    {
        type            nutkWallFunction;
        blending        stepwise;
        value           nonuniform List<scalar> 
62
(
3.30731e-06
3.86613e-06
4.95569e-06
5.43257e-06
5.63279e-06
5.71394e-06
5.74558e-06
5.75748e-06
5.76184e-06
5.7634e-06
5.76393e-06
5.76409e-06
5.76406e-06
5.76376e-06
5.76279e-06
5.75976e-06
5.75071e-06
5.72447e-06
5.65166e-06
5.46016e-06
4.98383e-06
3.8466e-06
1.32079e-06
1.32079e-06
2.37061e-05
2.60646e-05
2.7313e-05
2.81554e-05
2.89183e-05
3.0168e-05
3.38324e-05
3.4546e-05
3.14816e-05
3.14618e-05
3.44376e-05
1.54819e-06
2.84064e-05
3.10467e-05
3.2392e-05
3.32846e-05
3.41073e-05
3.54873e-05
3.9365e-05
1.54819e-06
4.05699e-06
5.1268e-06
5.54037e-06
5.69036e-06
5.74109e-06
5.75725e-06
5.76214e-06
5.76352e-06
5.76372e-06
5.76312e-06
5.76092e-06
5.75407e-06
5.73364e-06
5.67508e-06
5.51483e-06
5.09709e-06
4.07198e-06
3.73598e-06
)
;
    }
    atmosphere
    {
        type            calculated;
        value           nonuniform List<scalar> 
46
(
0.00024115
0.00179289
0.00357585
0.00521793
0.00655088
0.00751872
0.00815399
0.00853469
0.00874514
0.00885361
0.00890628
0.00893058
0.00894133
0.00894591
0.0089478
0.00894856
0.00894885
0.00894895
0.00894895
0.0089489
0.00894878
0.00894857
0.00894827
0.00894801
0.00894788
0.00894788
0.00894798
0.00894827
0.0089486
0.00894879
0.00894884
0.00894869
0.00894812
0.0089465
0.00894216
0.00893103
0.00890371
0.00884002
0.00870042
0.00841639
0.00788747
0.00699897
0.00567183
0.003935
0.00198303
0.000275513
)
;
    }
    defaultFaces
    {
        type            empty;
    }
}


// ************************************************************************* //
