/*--------------------------------*- C++ -*----------------------------------*\
| =========                 |                                                 |
| \\      /  F ield         | OpenFOAM: The Open Source CFD Toolbox           |
|  \\    /   O peration     | Version:  2406                                  |
|   \\  /    A nd           | Website:  www.openfoam.com                      |
|    \\/     M anipulation  |                                                 |
\*---------------------------------------------------------------------------*/
FoamFile
{
    version     2.0;
    format      ascii;
    arch        "LSB;label=32;scalar=64";
    class       volScalarField;
    location    "0.1";
    object      nut;
}
// * * * * * * * * * * * * * * * * * * * * * * * * * * * * * * * * * * * * * //

dimensions      [0 2 -1 0 0 0 0];

internalField   nonuniform List<scalar> 
2268
(
0.000289337
0.000213038
0.000213038
0.000213038
0.000213038
0.000213038
0.000213038
0.000213038
0.000213038
0.000213038
0.000213038
0.000213038
0.000213038
8.34098e-05
8.79991e-05
9.33241e-05
9.5709e-05
9.64926e-05
9.61618e-05
9.44738e-05
9.03986e-05
8.1667e-05
6.3756e-05
0.000450785
0.000254306
0.000232321
0.000225511
0.000222385
0.000220635
0.000219545
0.000218827
0.000218345
0.000218026
0.00021783
0.000217737
0.000217737
0.000356651
0.000657849
0.000785859
0.000840985
0.000859375
0.000852448
0.000815889
0.000730301
0.000555399
0.00019332
0.000450785
0.000288167
0.000251962
0.000238672
0.000232268
0.000228639
0.000226376
0.000224886
0.000223885
0.000223224
0.000222819
0.000222627
0.000222627
0.000502715
0.00111951
0.00146503
0.00162784
0.00168508
0.0016665
0.00156305
0.00133308
0.000909903
0.000211422
0.000450785
0.000314823
0.000270613
0.00025196
0.00024245
0.000236938
0.000233469
0.000231177
0.000229636
0.000228617
0.000227993
0.000227696
0.000227696
0.000597799
0.00146674
0.00205433
0.00235945
0.00247365
0.00244276
0.00225491
0.00185365
0.00117352
0.000222002
0.000450785
0.000335499
0.000287639
0.000264954
0.00025271
0.000245414
0.000240758
0.000237661
0.00023557
0.000234185
0.000233337
0.000232933
0.000232933
0.000665486
0.00173521
0.00256267
0.00303196
0.00321941
0.00317931
0.002899
0.00231625
0.0013864
0.000229701
0.000450785
0.000351572
0.000302834
0.000277374
0.000262867
0.000253958
0.000248177
0.000244295
0.00024166
0.000239908
0.000238833
0.000238321
0.000238321
0.000715687
0.0019434
0.00299146
0.00363277
0.00390605
0.0038644
0.0034961
0.00274021
0.00157727
0.000237055
0.000450785
0.000364209
0.000316232
0.000289058
0.000272781
0.000262476
0.000255663
0.000251036
0.000247874
0.000245764
0.000244465
0.000243846
0.000243846
0.000753835
0.00210278
0.00334088
0.00414823
0.00451482
0.00448424
0.0040475
0.00314908
0.00177852
0.00024875
0.000450785
0.000374291
0.00032798
0.000299934
0.000282354
0.000270887
0.000263159
0.000257845
0.000254183
0.000251727
0.000250212
0.000249488
0.000249488
0.000783427
0.00222234
0.00361389
0.00456999
0.00503204
0.00502928
0.00455857
0.00357599
0.00204901
0.000279714
6.52457e-05
8.32248e-05
9.16143e-05
9.5309e-05
9.68017e-05
9.73424e-05
9.75207e-05
9.75755e-05
9.7591e-05
9.7593e-05
9.75859e-05
9.75601e-05
9.74814e-05
9.72526e-05
9.66239e-05
9.50256e-05
9.1297e-05
8.32055e-05
0.000108408
0.00022289
0.000585462
0.000755537
0.000834333
0.000867366
0.000879663
0.000883802
0.000885094
0.000885463
0.00088551
0.000885334
0.000884709
0.000882829
0.000877464
0.000863077
0.000827599
0.000747983
0.00058018
0.000226619
0.00024339
0.000975159
0.00139934
0.00161648
0.00171326
0.00175093
0.00176409
0.00176832
0.00176956
0.00176971
0.00176908
0.00176692
0.0017606
0.00174319
0.00169842
0.00159354
0.00137406
0.000960399
0.000243913
0.000254999
0.00127095
0.00196755
0.00235454
0.00253657
0.00261051
0.0026373
0.0026462
0.00264885
0.00264914
0.0026477
0.00264285
0.00262911
0.00259256
0.00250238
0.00230164
0.00190878
0.00123741
0.000254175
0.000263337
0.00151324
0.00248109
0.00305327
0.00333454
0.0034532
0.00349767
0.00351289
0.00351751
0.00351797
0.00351523
0.0035063
0.0034817
0.00341836
0.00326816
0.00294956
0.0023633
0.00144352
0.000260963
0.000271451
0.00173159
0.00295623
0.00370982
0.00409314
0.00426038
0.00432511
0.00434792
0.00435498
0.00435557
0.00435098
0.0043364
0.0042973
0.00419981
0.00397724
0.00352608
0.00274099
0.00159622
0.000265627
0.00028466
0.00195944
0.00341264
0.00432056
0.00479474
0.00500826
0.00509365
0.00512465
0.00513442
0.00513503
0.00512795
0.0051061
0.00504902
0.00491119
0.00460806
0.00401948
0.00304509
0.00170787
0.000268836
0.000318246
0.00225577
0.00387772
0.00488547
0.00542543
0.00567687
0.00578099
0.00582002
0.00583255
0.005833
0.00582273
0.00579198
0.00571382
0.00553119
0.00514447
0.00442412
0.0032829
0.00178918
0.00027103
0.000450785
0.000387196
0.000344346
0.000315957
0.00029696
0.000284003
0.000275005
0.000268694
0.000264291
0.000261313
0.000259466
0.00025858
0.00025858
0.00082084
0.00236124
0.00393797
0.00509677
0.00571214
0.00578693
0.0053362
0.00437231
0.00298149
0.00143125
0.000450785
0.000399214
0.000361272
0.000333995
0.000314485
0.00030048
0.000290381
0.000283102
0.000277925
0.000274376
0.000272156
0.000271087
0.000271087
0.000856928
0.0024635
0.00417783
0.00551453
0.00630026
0.00652091
0.00621792
0.0054555
0.00435598
0.00314011
0.000450785
0.00040801
0.000374623
0.000349179
0.000330024
0.000315685
0.000304999
0.000297102
0.000291379
0.000287404
0.000284895
0.000283681
0.000283681
0.000887143
0.00252638
0.00431419
0.0057616
0.00667915
0.00705226
0.00694529
0.00645212
0.00570303
0.00489016
0.000450785
0.000414732
0.000385377
0.000362022
0.000343729
0.000329561
0.000318701
0.000310495
0.000304445
0.00030019
0.000297482
0.000296165
0.000296165
0.000914442
0.00257034
0.00439519
0.00590676
0.00691641
0.00741762
0.00749256
0.00725029
0.00681499
0.0063397
0.000450785
0.000420037
0.000394197
0.000372956
0.000355795
0.00034213
0.000331404
0.000323142
0.000316957
0.000312557
0.000309734
0.000308356
0.000308356
0.000939799
0.00260471
0.00444712
0.00599313
0.00706053
0.00765244
0.00786333
0.00780877
0.00760113
0.00735346
0.000450785
0.000424323
0.000401535
0.00038232
0.00036641
0.00035345
0.000343076
0.00033495
0.000328786
0.000324357
0.000321495
0.00032009
0.000320091
0.000963488
0.00263373
0.00448362
0.00604614
0.00714561
0.0077929
0.00808985
0.00815382
0.0080854
0.00796639
0.000450785
0.000427845
0.000407703
0.000390375
0.000375739
0.000363596
0.000353714
0.000345864
0.00033984
0.000335472
0.000332632
0.000331234
0.000331234
0.000985532
0.00265929
0.00451159
0.00608045
0.00719515
0.00787173
0.00821601
0.00834497
0.00835038
0.00829395
0.000450785
0.000430773
0.000412926
0.00039732
0.000383925
0.000372642
0.000363334
0.000355852
0.000350053
0.000345816
0.000343045
0.000341677
0.000341677
0.00100588
0.00268218
0.00453446
0.00610432
0.00722445
0.00791416
0.0082812
0.00844168
0.00848184
0.00845228
0.000450785
0.000433226
0.000417364
0.00040331
0.000391088
0.000380664
0.000371966
0.000364903
0.000359384
0.000355324
0.000352658
0.000351336
0.000351336
0.00102447
0.00270276
0.00455395
0.00612225
0.00724276
0.00793686
0.00831326
0.00848733
0.00854224
0.00852306
0.000450785
0.000435288
0.00042114
0.000408468
0.000397328
0.000387729
0.000379643
0.000373023
0.000367812
0.000363959
0.000361417
0.000360154
0.000360154
0.00104127
0.00272119
0.0045709
0.00613663
0.00725524
0.00794956
0.00832885
0.00850797
0.00856849
0.00855295
0.000450785
0.000437021
0.000424346
0.00041289
0.000402731
0.000393902
0.000386406
0.000380225
0.000375333
0.000371697
0.00036929
0.000368092
0.000368093
0.00105627
0.00273758
0.00458576
0.0061487
0.00726461
0.00795742
0.00833677
0.00851724
0.00857957
0.00856513
0.000450785
0.000438473
0.000427053
0.000416655
0.000407367
0.000399239
0.000392293
0.000386533
0.00038195
0.000378532
0.000376262
0.000375131
0.000375131
0.00106948
0.00275202
0.00459889
0.00615925
0.00727236
0.00796306
0.00834135
0.00852167
0.0085843
0.00857005
0.000450785
0.00043968
0.000429318
0.000419828
0.000411299
0.000403792
0.000397344
0.000391971
0.000387679
0.000384467
0.000382329
0.000381262
0.000381262
0.00108095
0.00276475
0.00461081
0.00616912
0.00727963
0.007968
0.00834472
0.00852422
0.00858653
0.00857212
0.000450785
0.00044067
0.000431187
0.000422459
0.000414577
0.000407608
0.000401596
0.000396567
0.000392537
0.000389512
0.000387496
0.000386488
0.000386488
0.0010908
0.00277632
0.00462275
0.00617991
0.007288
0.00797366
0.00834823
0.00852637
0.00858795
0.00857316
0.000450785
0.000441466
0.000432695
0.000424591
0.000417246
0.000410727
0.000405083
0.000400348
0.000396544
0.000393683
0.000391773
0.000390817
0.000390817
0.00109939
0.00278839
0.00463794
0.00619536
0.00730058
0.00798219
0.00835328
0.00852911
0.00858941
0.00857396
0.000450785
0.000442084
0.000433871
0.000426259
0.000419339
0.00041318
0.000407835
0.00040334
0.000399721
0.000396995
0.000395172
0.00039426
0.00039426
0.00110791
0.00280598
0.00466483
0.00622404
0.00732372
0.00799742
0.00836192
0.00853353
0.00859151
0.00857491
0.000450785
0.000442537
0.000434734
0.000427487
0.000420885
0.000414997
0.000409877
0.000405563
0.000402086
0.000399463
0.000397709
0.00039683
0.00039683
0.00112093
0.00284435
0.00472456
0.00628407
0.0073691
0.00802561
0.00837712
0.00854092
0.00859483
0.0085763
0.000450785
0.000442834
0.000435301
0.000428296
0.000421904
0.000416197
0.000411227
0.000407036
0.000403654
0.000401101
0.000399392
0.000398536
0.000398536
0.00115787
0.00295033
0.00486602
0.00640872
0.0074545
0.00807493
0.00840229
0.00855262
0.00859989
0.00857832
0.000450785
0.000442981
0.000435583
0.000428697
0.00042241
0.000416793
0.000411899
0.000407769
0.000404435
0.000401918
0.000400232
0.000399387
0.000399387
0.00131691
0.0032674
0.0051866
0.00664473
0.00759848
0.00815191
0.00843953
0.00856928
0.00860688
0.00858105
0.000450785
0.000442981
0.000435583
0.000428697
0.000422411
0.000416793
0.000411899
0.00040777
0.000404435
0.000401918
0.000400232
0.000399387
0.000952503
0.00239561
0.00418267
0.00580501
0.00701753
0.00780254
0.00825422
0.00848704
0.00858996
0.00861538
0.00858431
0.000243806
0.000771144
0.000987365
0.00108289
0.00112227
0.00113499
0.00113606
0.00113317
0.00113093
0.00113546
0.00116696
0.00132422
0.00240132
0.00382464
0.00528549
0.00653252
0.0074448
0.00803048
0.00836619
0.00853829
0.00861205
0.00862441
0.00858775
0.000230174
0.00128438
0.00199708
0.00241082
0.00263554
0.00274754
0.00279812
0.00282013
0.0028359
0.00286947
0.00297175
0.00328718
0.00419706
0.00529258
0.00634875
0.00721844
0.00784347
0.00824189
0.00846973
0.00858568
0.00863253
0.00863281
0.00859098
0.00023558
0.00155957
0.00274006
0.00357439
0.00410064
0.00440014
0.0045558
0.00463417
0.00468457
0.00475094
0.00489314
0.00521198
0.00582414
0.006544
0.00722309
0.0077724
0.00816314
0.00841132
0.00855306
0.0086241
0.00864929
0.00863976
0.00859368
0.000238746
0.00169034
0.00316901
0.00435156
0.00517742
0.00568915
0.00597532
0.00612634
0.00621506
0.00629879
0.00643116
0.00666746
0.00703569
0.00745681
0.00784989
0.00816557
0.00838944
0.00853169
0.00861274
0.00865194
0.0086616
0.00864494
0.00859572
0.000240197
0.00175003
0.00339022
0.00479876
0.00584861
0.00653664
0.0069396
0.00715761
0.00727783
0.00736503
0.00746634
0.00761437
0.00781672
0.00804089
0.00824851
0.00841506
0.00853343
0.00860886
0.00865145
0.00867026
0.00866984
0.00864847
0.00859714
0.000240812
0.00177585
0.00349497
0.00502922
0.00621774
0.0070243
0.00751055
0.00777755
0.00791924
0.00800426
0.00807684
0.00816176
0.00826522
0.00837571
0.00847721
0.00855875
0.008617
0.00865417
0.00867451
0.00868136
0.00867492
0.0086507
0.00859805
0.000241058
0.0017864
0.00354105
0.00513773
0.00640107
0.00727587
0.00781238
0.00810965
0.00826414
0.00834647
0.00840025
0.00844847
0.00849931
0.0085508
0.00859745
0.00863496
0.00866184
0.00867883
0.00868729
0.00868763
0.00867786
0.00865201
0.00859861
0.000241152
0.0017905
0.00356009
0.00518515
0.0064848
0.00739452
0.00795776
0.00827151
0.00843292
0.00851358
0.00855722
0.00858684
0.00861224
0.00863568
0.00865625
0.00867266
0.00868435
0.00869143
0.00869394
0.00869097
0.00867946
0.00865275
0.00859893
0.000241187
0.00179203
0.00356757
0.00520465
0.00652054
0.00744658
0.00802274
0.00834463
0.0085095
0.00858939
0.00862824
0.00864931
0.00866335
0.00867436
0.00868333
0.00869028
0.00869506
0.00869754
0.00869725
0.00869268
0.00868031
0.00865316
0.00859912
0.0002412
0.00179258
0.0035704
0.0052123
0.00653502
0.00746817
0.00805014
0.00837578
0.00854229
0.00862188
0.00865866
0.00867611
0.00868537
0.00869118
0.00869528
0.00869819
0.00869998
0.00870044
0.00869888
0.00869356
0.00868079
0.00865342
0.00859927
0.000241204
0.00179278
0.00357145
0.00521524
0.00654072
0.00747684
0.0080613
0.00838858
0.00855584
0.00863534
0.0086713
0.00868728
0.00869463
0.00869836
0.00870049
0.00870175
0.0087023
0.0087019
0.00869978
0.00869413
0.00868116
0.00865368
0.00859946
0.000241206
0.00179286
0.00357188
0.00521646
0.0065431
0.00748048
0.00806602
0.00839402
0.00856162
0.00864111
0.00867675
0.00869217
0.00869878
0.0087017
0.00870306
0.00870366
0.0087037
0.00870293
0.00870057
0.00869476
0.00868168
0.00865413
0.00859986
0.000241207
0.00179293
0.00357219
0.00521727
0.00654459
0.00748266
0.00806875
0.00839711
0.00856487
0.00864438
0.0086799
0.0086951
0.00870143
0.00870404
0.00870509
0.00870542
0.00870524
0.0087043
0.00870181
0.0086959
0.00868274
0.00865511
0.00860076
0.00024121
0.00179304
0.00357274
0.00521856
0.0065467
0.00748544
0.00807196
0.00840054
0.00856839
0.00864789
0.00868336
0.00869846
0.00870467
0.00870714
0.00870806
0.00870826
0.00870796
0.00870691
0.00870432
0.00869831
0.00868505
0.00865731
0.00860286
0.000241219
0.00179339
0.0035742
0.00522169
0.00655137
0.00749108
0.00807803
0.00840671
0.00857451
0.00865393
0.00868931
0.00870433
0.00871046
0.00871284
0.00871367
0.00871379
0.00871339
0.00871225
0.00870954
0.00870341
0.00869
0.00866213
0.00860753
0.000241247
0.00179445
0.00357838
0.00522989
0.00656262
0.00750368
0.00809071
0.00841896
0.0085863
0.00866537
0.00870053
0.0087154
0.00872143
0.00872374
0.00872449
0.00872452
0.00872402
0.00872276
0.00871993
0.00871364
0.0087001
0.00867211
0.00861748
0.00024134
0.00179785
0.00359047
0.00525142
0.00658957
0.00753139
0.00811664
0.00844268
0.0086083
0.00868631
0.00872087
0.00873543
0.00874129
0.00874349
0.00874417
0.00874412
0.00874354
0.00874219
0.00873924
0.00873286
0.0087193
0.00869146
0.00863732
0.000241661
0.00180906
0.00362561
0.00530713
0.00665234
0.00759
0.00816704
0.00848576
0.00864651
0.00872177
0.00875493
0.00876883
0.00877438
0.00877645
0.00877707
0.00877699
0.0087764
0.00877503
0.00877212
0.00876588
0.00875273
0.00872586
0.00867374
0.000242838
0.00184688
0.00372676
0.00544724
0.00679234
0.00770718
0.00825834
0.00855772
0.00870682
0.00877594
0.00880617
0.00881876
0.00882377
0.00882565
0.00882625
0.00882623
0.00882575
0.00882457
0.00882198
0.00881639
0.00880456
0.00878039
0.00873348
0.000247641
0.00197437
0.00401009
0.00578239
0.00708411
0.00792318
0.00840884
0.00866535
0.00879067
0.00884802
0.00887287
0.00888315
0.00888726
0.00888885
0.00888943
0.00888954
0.0088893
0.00888852
0.00888663
0.00888236
0.00887316
0.00885423
0.00881741
0.000272853
0.00237999
0.00476334
0.00652105
0.00763112
0.00827625
0.00862623
0.00880393
0.00888873
0.00892698
0.00894342
0.0089502
0.00895293
0.00895403
0.0089545
0.0089547
0.00895469
0.00895437
0.00895336
0.00895091
0.00894542
0.00893397
0.0089117
0.000417362
0.00366113
0.00669759
0.00795848
0.00849785
0.00875671
0.00888538
0.00894809
0.00897741
0.0089905
0.0089961
0.00899841
0.00899935
0.00899975
0.00899994
0.00900004
0.00900008
0.00900004
0.00899978
0.00899907
0.00899743
0.00899391
0.00898701
0.000286611
0.000261881
0.00026171
0.000285734
0.0023178
0.00216425
0.0021637
0.00231127
0.00443366
0.00429181
0.00429475
0.00443881
0.00609627
0.00601465
0.00601867
0.00610662
0.007225
0.00718035
0.00718322
0.00723226
0.00788908
0.0078586
0.00786024
0.00789148
0.00823433
0.00820682
0.00820783
0.00823344
0.00839686
0.00836884
0.00836967
0.00839446
0.00846784
0.00843891
0.00843973
0.00846492
0.00849725
0.00846772
0.00846857
0.00849418
0.00850904
0.00847921
0.00848007
0.00850592
0.00851372
0.00848374
0.0084846
0.00851053
0.00851561
0.00848555
0.00848639
0.00851235
0.00851648
0.00848634
0.00848713
0.00851308
0.00851702
0.00848677
0.00848751
0.00851342
0.00851756
0.00848714
0.00848778
0.00851363
0.00851828
0.0084876
0.00848808
0.00851384
0.0085193
0.00848822
0.00848846
0.00851409
0.00852064
0.00848902
0.00848895
0.0085144
0.00852224
0.00848996
0.00848952
0.00851475
0.00852392
0.00849096
0.00849012
0.00851512
0.0085255
0.00849189
0.00849069
0.00851547
0.00852684
0.00849268
0.00849117
0.00851577
0.00852786
0.0084933
0.00849154
0.00851601
0.00852858
0.00849373
0.00849181
0.00851618
0.00852905
0.00849402
0.00849199
0.0085163
0.00852934
0.0084942
0.00849211
0.00851637
0.00852951
0.00849432
0.00849218
0.00851643
0.00852962
0.00849439
0.00849224
0.00851647
0.00852973
0.00849448
0.00849231
0.00851653
0.00852989
0.00849462
0.00849244
0.00851665
0.00853025
0.00849496
0.00849276
0.00851695
0.0085311
0.00849578
0.00849354
0.00851769
0.00853312
0.00849772
0.0084954
0.00851946
0.00853771
0.0085022
0.00849972
0.00852359
0.00854771
0.00851211
0.00850936
0.00853284
0.00856828
0.00853281
0.00852967
0.0085524
0.00860734
0.00857287
0.0085694
0.00859077
0.00867389
0.00864265
0.00863931
0.00865839
0.00877116
0.00874693
0.00874473
0.00876025
0.00888474
0.00887111
0.00887082
0.00888121
0.00897924
0.00897592
0.00897651
0.00898034
0.00150412
0.00319593
0.00470058
0.00573347
0.00632554
0.00661905
0.00674813
0.00679915
0.00681596
0.00681565
0.00679878
0.0067504
0.0066325
0.00637087
0.00584913
0.00493715
0.00357709
0.00188705
0.000273398
0.00320441
0.00456178
0.00577886
0.00665794
0.00719115
0.0074711
0.00760132
0.00765533
0.00767313
0.00767037
0.00764482
0.00757518
0.00741179
0.00706478
0.00640636
0.00531523
0.00377141
0.00194348
0.000274715
0.0049468
0.00587749
0.0067425
0.00738868
0.00779537
0.00801746
0.00812493
0.00817088
0.00818535
0.00817917
0.0081465
0.00806089
0.00786473
0.0074586
0.00671007
0.00550806
0.00386052
0.0019658
0.00027523
0.00638459
0.00695222
0.00749992
0.0079203
0.00819219
0.00834512
0.00842135
0.00845445
0.00846353
0.00845385
0.00841607
0.00832014
0.00810363
0.00766209
0.00686181
0.00559951
0.00389966
0.00197467
0.000275429
0.00738711
0.00770925
0.00802557
0.00827303
0.00843649
0.00853063
0.0085786
0.00859931
0.00860308
0.00859047
0.00854941
0.00844755
0.00821981
0.00775933
0.00693234
0.00564029
0.00391612
0.00197813
0.000275506
0.00799352
0.00817734
0.00835101
0.00848673
0.0085774
0.0086305
0.00865791
0.00866921
0.00866884
0.0086541
0.00861109
0.00850609
0.00827269
0.00780294
0.00696325
0.00565757
0.00392278
0.00197946
0.000275534
0.00831915
0.00843616
0.0085332
0.00860577
0.00865373
0.00868191
0.00869637
0.00870153
0.00869838
0.00868225
0.00863815
0.00853159
0.00829552
0.00782152
0.00697618
0.0056646
0.00392539
0.00197996
0.000275545
0.00847783
0.00856652
0.00862678
0.0086673
0.00869273
0.0087073
0.00871444
0.00871601
0.00871118
0.00869424
0.00864955
0.00854225
0.00830498
0.00782913
0.00698138
0.00566737
0.00392638
0.00198014
0.000275549
0.00854946
0.00862737
0.0086715
0.00869711
0.00871164
0.00871937
0.00872271
0.00872235
0.0087166
0.0086992
0.00865421
0.00854656
0.00830877
0.00783215
0.00698341
0.00566843
0.00392676
0.00198021
0.00027555
0.00857996
0.0086541
0.00869164
0.00871079
0.00872038
0.00872491
0.00872641
0.00872508
0.00871885
0.00870121
0.00865606
0.00854827
0.00831026
0.00783332
0.00698419
0.00566882
0.00392689
0.00198023
0.000275551
0.00859239
0.0086653
0.00870029
0.00871679
0.00872427
0.00872738
0.00872803
0.00872624
0.00871978
0.00870201
0.00865679
0.00854893
0.00831083
0.00783376
0.00698448
0.00566897
0.00392694
0.00198024
0.000275551
0.00859732
0.00866982
0.00870386
0.00871932
0.00872593
0.00872844
0.00872872
0.00872672
0.00872015
0.00870233
0.00865708
0.00854918
0.00831104
0.00783392
0.00698458
0.00566902
0.00392696
0.00198024
0.000275551
0.00859924
0.00867161
0.0087053
0.00872036
0.00872663
0.00872889
0.00872901
0.00872693
0.00872031
0.00870246
0.00865719
0.00854928
0.00831112
0.00783399
0.00698462
0.00566904
0.00392697
0.00198024
0.000275551
0.00859999
0.0086723
0.00870586
0.00872077
0.00872691
0.00872908
0.00872914
0.00872701
0.00872037
0.0087025
0.00865723
0.00854931
0.00831115
0.00783401
0.00698464
0.00566905
0.00392697
0.00198024
0.000275551
0.0086003
0.00867258
0.00870608
0.00872094
0.00872703
0.00872915
0.00872918
0.00872704
0.00872039
0.00870252
0.00865725
0.00854933
0.00831117
0.00783402
0.00698464
0.00566905
0.00392697
0.00198024
0.000275551
0.00860046
0.00867269
0.00870617
0.008721
0.00872707
0.00872918
0.0087292
0.00872706
0.0087204
0.00870253
0.00865725
0.00854933
0.00831117
0.00783402
0.00698464
0.00566905
0.00392697
0.00198024
0.000275551
0.00860058
0.00867276
0.00870621
0.00872103
0.00872709
0.0087292
0.00872921
0.00872706
0.0087204
0.00870253
0.00865725
0.00854933
0.00831117
0.00783402
0.00698465
0.00566905
0.00392697
0.00198024
0.000275551
0.00860069
0.00867281
0.00870624
0.00872104
0.0087271
0.0087292
0.00872922
0.00872706
0.00872041
0.00870254
0.00865726
0.00854934
0.00831117
0.00783402
0.00698465
0.00566905
0.00392697
0.00198024
0.000275551
0.00860083
0.00867286
0.00870626
0.00872105
0.0087271
0.0087292
0.00872922
0.00872706
0.00872041
0.00870254
0.00865726
0.00854934
0.00831117
0.00783402
0.00698465
0.00566905
0.00392697
0.00198024
0.000275551
0.00860098
0.00867291
0.00870628
0.00872106
0.00872711
0.0087292
0.00872922
0.00872706
0.00872041
0.00870254
0.00865726
0.00854934
0.00831117
0.00783402
0.00698465
0.00566905
0.00392697
0.00198024
0.000275551
0.00860114
0.00867297
0.0087063
0.00872107
0.00872711
0.00872921
0.00872922
0.00872706
0.00872041
0.00870254
0.00865726
0.00854934
0.00831117
0.00783402
0.00698465
0.00566905
0.00392697
0.00198024
0.000275551
0.00860129
0.00867302
0.00870631
0.00872107
0.00872711
0.00872921
0.00872922
0.00872706
0.00872041
0.00870254
0.00865726
0.00854934
0.00831117
0.00783402
0.00698465
0.00566905
0.00392697
0.00198024
0.000275551
0.00860142
0.00867307
0.00870633
0.00872108
0.00872711
0.00872921
0.00872922
0.00872706
0.00872041
0.00870254
0.00865726
0.00854934
0.00831117
0.00783402
0.00698465
0.00566905
0.00392697
0.00198024
0.000275551
0.00860153
0.0086731
0.00870634
0.00872108
0.00872711
0.00872921
0.00872922
0.00872706
0.00872041
0.00870254
0.00865726
0.00854934
0.00831117
0.00783402
0.00698465
0.00566905
0.00392697
0.00198024
0.000275551
0.0086016
0.00867313
0.00870635
0.00872108
0.00872712
0.00872921
0.00872922
0.00872707
0.00872041
0.00870254
0.00865726
0.00854934
0.00831117
0.00783402
0.00698465
0.00566905
0.00392697
0.00198024
0.000275551
0.00860166
0.00867315
0.00870636
0.00872109
0.00872712
0.00872921
0.00872922
0.00872707
0.00872041
0.00870254
0.00865726
0.00854934
0.00831117
0.00783402
0.00698465
0.00566905
0.00392697
0.00198024
0.000275551
0.00860169
0.00867317
0.00870637
0.00872109
0.00872712
0.00872921
0.00872922
0.00872707
0.00872041
0.00870254
0.00865726
0.00854934
0.00831117
0.00783402
0.00698465
0.00566905
0.00392697
0.00198024
0.000275551
0.00860172
0.00867318
0.00870637
0.0087211
0.00872712
0.00872921
0.00872922
0.00872707
0.00872041
0.00870254
0.00865726
0.00854934
0.00831117
0.00783402
0.00698465
0.00566905
0.00392697
0.00198024
0.000275551
0.00860175
0.0086732
0.00870639
0.0087211
0.00872713
0.00872922
0.00872923
0.00872707
0.00872041
0.00870254
0.00865726
0.00854934
0.00831117
0.00783402
0.00698465
0.00566905
0.00392697
0.00198024
0.000275551
0.0086018
0.00867323
0.00870642
0.00872113
0.00872715
0.00872923
0.00872924
0.00872708
0.00872042
0.00870254
0.00865726
0.00854934
0.00831117
0.00783402
0.00698465
0.00566905
0.00392697
0.00198024
0.000275551
0.0086019
0.00867332
0.00870649
0.00872119
0.0087272
0.00872928
0.00872927
0.0087271
0.00872044
0.00870256
0.00865727
0.00854934
0.00831118
0.00783402
0.00698465
0.00566905
0.00392697
0.00198024
0.000275551
0.00860217
0.00867356
0.00870669
0.00872136
0.00872734
0.00872939
0.00872936
0.00872717
0.00872048
0.00870259
0.00865729
0.00854936
0.00831118
0.00783403
0.00698465
0.00566905
0.00392697
0.00198024
0.000275551
0.00860284
0.00867414
0.00870719
0.00872179
0.0087277
0.00872969
0.0087296
0.00872735
0.00872062
0.00870268
0.00865735
0.00854939
0.0083112
0.00783404
0.00698465
0.00566905
0.00392697
0.00198024
0.000275551
0.00860445
0.00867555
0.00870843
0.00872287
0.00872862
0.00873046
0.00873022
0.00872784
0.00872098
0.00870293
0.00865752
0.00854949
0.00831126
0.00783406
0.00698466
0.00566906
0.00392697
0.00198024
0.000275551
0.0086082
0.00867886
0.00871137
0.00872546
0.00873088
0.00873238
0.00873181
0.00872911
0.00872193
0.00870361
0.00865796
0.00854977
0.00831141
0.00783414
0.00698469
0.00566907
0.00392697
0.00198024
0.000275551
0.00861658
0.00868628
0.00871804
0.00873145
0.00873621
0.00873702
0.00873574
0.0087323
0.0087244
0.0087054
0.00865916
0.0085505
0.00831181
0.00783432
0.00698477
0.00566909
0.00392698
0.00198024
0.000275551
0.00863419
0.0087019
0.00873227
0.0087445
0.00874808
0.00874764
0.00874498
0.00874003
0.00873055
0.00870999
0.00866232
0.00855247
0.00831287
0.00783481
0.00698495
0.00566914
0.00392698
0.00198024
0.000275551
0.00866835
0.00873217
0.0087602
0.00877065
0.00877253
0.00877018
0.00876528
0.00875768
0.00874517
0.00872137
0.00867045
0.00855769
0.00831568
0.00783603
0.00698539
0.00566925
0.00392699
0.00198024
0.000275551
0.00872754
0.00878428
0.00880886
0.00881726
0.00881744
0.00881311
0.00880558
0.00879441
0.00877725
0.00874786
0.00869043
0.00857125
0.0083229
0.00783896
0.00698638
0.00566948
0.003927
0.00198023
0.000275551
0.00881457
0.00885972
0.00887978
0.00888664
0.0088865
0.00888183
0.00887348
0.00886008
0.00883896
0.00880313
0.00873588
0.00860522
0.00834061
0.00784553
0.00698843
0.00566991
0.00392696
0.00198018
0.000275549
0.00891423
0.00894298
0.00895719
0.00896314
0.00896489
0.00896312
0.00895886
0.00894892
0.00893166
0.00889618
0.00882419
0.00868349
0.00837782
0.0078578
0.00699208
0.0056706
0.00392681
0.00198007
0.000275546
0.00899047
0.009
0.00900575
0.009009
0.00901164
0.00901292
0.00901504
0.00901323
0.00901209
0.00899215
0.00894898
0.00882856
0.00841257
0.00786959
0.00699643
0.00567157
0.00392671
0.00198015
0.000275541
)
;

boundaryField
{
    leftWall
    {
        type            nutkWallFunction;
        blending        stepwise;
        value           nonuniform List<scalar> 
50
(
0
0
0
0
0
0
0
0
0
0
0
0
0
0
0
0
0
0
0
0
0
0
0
0
0
0
0
5.36008e-05
2.95336e-05
2.82464e-05
2.88061e-05
2.90987e-05
2.9221e-05
2.92689e-05
2.92868e-05
2.92932e-05
2.92955e-05
2.92963e-05
2.92965e-05
2.92967e-05
2.92967e-05
2.92969e-05
2.92974e-05
2.92992e-05
2.93052e-05
2.93273e-05
2.94139e-05
2.98048e-05
3.22283e-05
4.93095e-05
)
;
    }
    rightWall
    {
        type            nutkWallFunction;
        blending        stepwise;
        value           nonuniform List<scalar> 
50
(
2.24276e-05
2.89611e-05
3.11441e-05
3.23449e-05
3.30996e-05
3.35919e-05
3.39119e-05
3.41166e-05
3.43206e-05
3.44235e-05
3.4461e-05
3.44748e-05
3.44798e-05
3.44816e-05
3.44823e-05
3.44825e-05
3.44826e-05
3.44826e-05
3.44826e-05
3.44826e-05
3.44826e-05
3.44826e-05
3.44826e-05
3.44826e-05
3.44826e-05
3.44826e-05
3.44826e-05
3.44826e-05
3.44826e-05
3.44826e-05
3.44826e-05
3.44826e-05
3.44826e-05
3.44826e-05
3.44826e-05
3.44826e-05
3.44826e-05
3.44826e-05
3.44826e-05
3.44826e-05
3.44826e-05
3.44826e-05
3.44826e-05
3.44826e-05
3.44826e-05
3.44826e-05
3.44826e-05
3.44825e-05
3.44821e-05
3.44811e-05
)
;
    }
    lowerWall
    {
        type            nutkWallFunction;
        blending        stepwise;
        value           nonuniform List<scalar> 
62
(
0
0
0
0
0
0
0
0
0
0
0
0
2.16739e-05
4.07638e-06
4.73336e-06
5.36686e-06
5.62116e-06
5.69755e-06
5.66273e-06
5.48196e-06
5.00088e-06
3.85282e-06
1.32148e-06
1.32148e-06
2.3711e-05
2.60729e-05
2.73273e-05
2.81765e-05
2.8944e-05
3.01948e-05
3.38581e-05
3.45621e-05
3.14874e-05
3.1468e-05
3.44552e-05
1.5488e-06
2.84109e-05
3.10541e-05
3.24054e-05
3.33059e-05
3.41356e-05
3.55202e-05
3.94019e-05
1.5488e-06
4.06339e-06
5.14556e-06
5.56798e-06
5.7192e-06
5.76851e-06
5.78342e-06
5.7877e-06
5.78885e-06
5.78901e-06
5.78851e-06
5.78663e-06
5.78056e-06
5.76164e-06
5.70486e-06
5.544e-06
5.11833e-06
4.07962e-06
3.73669e-06
)
;
    }
    atmosphere
    {
        type            calculated;
        value           nonuniform List<scalar> 
46
(
0.009
0.009
0.009
0.009
0.009
0.009
0.009
0.009
0.009
0.009
0.009
0.009
0.009
0.009
0.009
0.009
0.009
0.009
0.009
0.009
0.009
0.009
0.009
0.009
0.009
0.009
0.009
0.009
0.009
0.009
0.009
0.009
0.009
0.009
0.009
0.009
0.009
0.009
0.009
0.00841257
0.00786959
0.00699643
0.00567157
0.00392671
0.00198015
0.000275541
)
;
    }
    defaultFaces
    {
        type            empty;
    }
}


// ************************************************************************* //
