/*--------------------------------*- C++ -*----------------------------------*\
| =========                 |                                                 |
| \\      /  F ield         | OpenFOAM: The Open Source CFD Toolbox           |
|  \\    /   O peration     | Version:  2406                                  |
|   \\  /    A nd           | Website:  www.openfoam.com                      |
|    \\/     M anipulation  |                                                 |
\*---------------------------------------------------------------------------*/
FoamFile
{
    version     2.0;
    format      ascii;
    arch        "LSB;label=32;scalar=64";
    class       surfaceScalarField;
    location    "0.1";
    object      phi;
}
// * * * * * * * * * * * * * * * * * * * * * * * * * * * * * * * * * * * * * //

dimensions      [0 3 -1 0 0 0 0];

oriented        oriented;

internalField   nonuniform List<scalar> 
4432
(
-2.9756e-305
-2.05404e-305
-6.58271e-305
-9.70178e-305
-1.18336e-304
-1.64374e-304
-1.97707e-304
-2.35624e-304
-3.16824e-304
-3.00551e-304
-4.90405e-304
-3.21533e-304
-7.33288e-304
-2.14307e-304
-1.05568e-303
1.83427e-304
-1.45018e-303
1.17077e-303
-1.83749e-303
3.29237e-303
-1.70657e-303
7.63918e-303
1.34483e-303
1.68138e-302
3.40236e-303
3.77857e-302
-1.72851e-303
3.40349e-303
-5.72083e-304
-5.31736e-304
-1.70025e-304
-4.00728e-304
-5.48305e-305
-1.662e-304
-1.87643e-305
-5.6019e-305
-6.45576e-306
-1.56032e-305
-2.08306e-306
-2.9618e-306
-5.63106e-307
1.50418e-307
-1.0071e-307
4.00144e-307
1.05568e-307
-9.74595e-305
-3.88221e-305
-2.13527e-304
-1.82122e-304
-3.79498e-304
-3.08406e-304
-6.2777e-304
-4.34821e-304
-9.96116e-304
-5.38243e-304
-1.52667e-303
-5.40386e-304
-2.26014e-303
-2.7348e-304
-3.22127e-303
5.83174e-304
-4.38486e-303
2.60301e-303
-5.58545e-303
6.80264e-303
-6.08354e-303
1.50608e-302
-7.52249e-303
3.14239e-302
3.61632e-304
5.93275e-302
-3.59264e-303
5.59255e-303
-1.36335e-303
-2.75998e-304
-5.08505e-304
-4.56635e-304
-1.90376e-304
-2.20399e-304
-7.14425e-305
-7.89878e-305
-2.62757e-305
-2.13871e-305
-9.08218e-306
-2.6478e-306
-2.70302e-306
1.64738e-306
-5.61329e-307
1.43548e-306
4.08837e-307
-1.7387e-304
-5.94955e-305
-3.81607e-304
-2.70707e-304
-6.75471e-304
-4.54137e-304
-1.11151e-303
-6.28599e-304
-1.75484e-303
-7.55162e-304
-2.67872e-303
-7.13926e-304
-3.95611e-303
-2.52416e-304
-5.63945e-303
1.09905e-303
-7.71928e-303
4.16917e-303
-1.00421e-302
1.03787e-302
-1.18825e-302
2.22106e-302
-1.80543e-302
4.42844e-302
-3.31059e-303
7.75893e-302
-4.98499e-303
7.53432e-303
-2.04151e-303
1.12058e-304
-8.39495e-304
-4.18875e-304
-3.42662e-304
-2.36109e-304
-1.38004e-304
-8.85455e-305
-5.4005e-305
-2.23357e-305
-1.991e-305
-1.52352e-307
-6.43164e-306
4.4127e-306
-1.50335e-306
3.2554e-306
1.01845e-306
-2.6806e-304
-8.22997e-305
-5.87942e-304
-3.68558e-304
-1.03461e-303
-6.09902e-304
-1.69e-303
-8.2569e-304
-2.64926e-303
-9.59105e-304
-4.02008e-303
-8.45054e-304
-5.91299e-303
-1.47931e-304
-8.41807e-303
1.74592e-303
-1.15615e-302
5.89282e-303
-1.52377e-302
1.40612e-302
-1.87598e-302
2.91798e-302
-2.96277e-302
5.60685e-302
-7.47308e-303
9.37249e-302
-6.42267e-303
9.67825e-303
-2.71164e-303
5.81791e-304
-1.17807e-303
-3.20464e-304
-5.10688e-304
-2.21311e-304
-2.17667e-304
-8.54702e-305
-8.994e-305
-1.81098e-305
-3.51404e-305
4.78952e-306
-1.21991e-305
8.59253e-306
-3.14636e-306
5.99069e-306
2.05763e-306
-3.8973e-304
-1.07989e-304
-8.52298e-304
-4.80462e-304
-1.4882e-303
-7.82094e-304
-2.40811e-303
-1.03283e-303
-3.73977e-303
-1.15431e-303
-5.62821e-303
-9.34134e-304
-8.22516e-303
4.80976e-305
-1.16641e-302
2.54e-303
-1.60156e-302
7.80343e-303
-2.12235e-302
1.78942e-302
-2.65839e-302
3.60919e-302
-4.2017e-302
6.73725e-302
-1.21068e-302
1.09666e-301
-8.03043e-303
1.20033e-302
-3.41753e-303
1.10549e-303
-1.53714e-303
-1.8149e-304
-6.97222e-304
-1.82468e-304
-3.11611e-304
-7.07624e-305
-1.3516e-304
-8.59671e-306
-5.56944e-305
1.22719e-305
-2.06532e-305
1.416e-305
-5.8045e-306
9.6253e-306
3.67284e-306
-5.49988e-304
-1.37745e-304
-1.19736e-303
-6.09941e-304
-2.07191e-303
-9.75423e-304
-3.31602e-303
-1.25357e-303
-5.09277e-303
-1.34147e-303
-7.58648e-303
-9.74988e-304
-1.09921e-302
3.49976e-304
-1.54891e-302
3.50872e-303
-2.11951e-302
9.94081e-303
-2.8098e-302
2.19403e-302
-3.54252e-302
4.3065e-302
-5.53455e-302
7.85978e-302
-1.73193e-302
1.26664e-301
-9.8497e-303
1.44799e-302
-4.19106e-303
1.67539e-303
-1.93306e-303
-1.28936e-305
-9.0955e-304
-1.24934e-304
-4.23591e-304
-4.61819e-305
-1.91979e-304
5.64651e-306
-8.31035e-305
2.19388e-305
-3.28062e-305
2.06976e-305
-1.00074e-305
1.37434e-305
5.84665e-306
-7.61798e-304
-1.73974e-304
-1.64972e-303
-7.59418e-304
-2.82694e-303
-1.19316e-303
-4.47092e-303
-1.49009e-303
-6.78233e-303
-1.51789e-303
-9.98615e-303
-9.57712e-304
-1.43208e-302
7.79842e-304
-2.00121e-302
4.68799e-303
-2.72262e-302
1.23613e-302
-3.59977e-302
2.6279e-302
-4.54889e-302
5.02181e-302
-6.99549e-302
8.98593e-302
-2.33034e-302
1.44539e-301
-1.18908e-302
1.70035e-302
-5.06769e-303
2.28552e-303
-2.38967e-303
1.80664e-304
-1.1612e-303
-5.31866e-305
-5.61226e-304
-1.44542e-305
-2.64844e-304
2.29919e-305
-1.20016e-304
3.25905e-305
-5.03079e-305
2.70559e-305
-1.67553e-305
1.7035e-305
6.96842e-306
-1.04037e-303
-2.19261e-304
-2.2405e-303
-9.25876e-304
-3.80114e-303
-1.43175e-303
-5.93796e-303
-1.73775e-303
-8.89148e-303
-1.67696e-303
-1.29275e-302
-8.73443e-304
-1.83267e-302
1.34769e-303
-2.53594e-302
6.08635e-303
-3.42414e-302
1.507e-302
-4.50664e-302
3.09093e-302
-5.68875e-302
5.75233e-302
-8.64133e-302
1.00759e-301
-2.98106e-302
1.6007e-301
-1.41448e-302
1.93905e-302
-6.07714e-303
2.91672e-303
-2.92983e-303
3.98105e-304
-1.46632e-303
3.09871e-305
-7.3277e-304
2.25541e-305
-3.58492e-304
4.174e-305
-1.69067e-304
4.26579e-305
-7.47394e-305
3.17883e-305
-2.789e-305
1.82064e-305
6.36313e-306
-2.75141e-314
-2.32529e-313
-2.94858e-314
-3.52412e-312
-7.45419e-315
-2.57524e-312
-9.53835e-315
-6.89965e-313
-9.5535e-315
-5.89287e-314
-4.79577e-315
2.28452e-314
-1.62488e-315
1.20894e-314
-4.27762e-316
3.49042e-315
-9.42428e-317
7.83708e-316
-1.81463e-317
1.50957e-316
-3.13661e-318
2.60754e-317
-4.9492e-319
4.13958e-318
-7.19607e-320
6.14059e-319
-9.65898e-321
8.64071e-320
-1.18576e-321
1.17291e-320
-1.23516e-322
1.54643e-321
-9.88131e-324
1.82804e-322
0
1.4822e-323
0
-2.07864e-313
-1.74408e-312
-3.58795e-313
-1.7953e-311
-2.48706e-313
-1.12302e-311
-1.86497e-313
-2.82364e-312
-1.0687e-313
-2.13184e-313
-4.37011e-314
1.09329e-313
-1.38007e-314
5.66555e-314
-3.59052e-315
1.68035e-314
-8.04196e-316
3.91852e-315
-1.59722e-316
7.87393e-316
-2.86972e-317
1.42156e-316
-4.72645e-318
2.36044e-317
-7.19117e-319
3.66241e-318
-1.01204e-319
5.38704e-319
-1.30532e-320
7.62739e-320
-1.49702e-321
1.04544e-320
-1.38338e-322
1.3241e-321
-9.88131e-324
1.28457e-322
4.94066e-324
-1.16904e-312
-1.13321e-311
-2.29648e-312
-7.54451e-311
-1.76123e-312
-3.94864e-311
-1.14681e-312
-9.00108e-312
-5.56197e-313
-5.22336e-313
-2.06315e-313
4.0924e-313
-6.21602e-314
2.008e-313
-1.5924e-314
5.98446e-314
-3.58101e-315
1.42357e-314
-7.22954e-316
2.93856e-315
-1.33099e-316
5.47227e-316
-2.25847e-317
9.39828e-317
-3.55405e-318
1.51168e-317
-5.19095e-319
2.31024e-318
-6.97621e-320
3.40643e-319
-8.38429e-321
4.87593e-320
-8.34971e-322
6.51673e-321
-5.92879e-323
6.91692e-322
2.96439e-323
-6.4734e-312
-7.19079e-311
-1.24488e-311
-2.84724e-310
-9.17889e-312
-1.23975e-310
-5.26579e-312
-2.51934e-311
-2.27599e-312
-9.35961e-313
-7.84467e-313
1.32764e-312
-2.27002e-313
6.14256e-313
-5.71626e-314
1.82369e-313
-1.28408e-314
4.39096e-314
-2.61851e-315
9.24602e-315
-4.90798e-316
1.76486e-315
-8.5277e-317
3.11766e-316
-1.38027e-317
5.17369e-317
-2.0817e-318
8.18354e-318
-2.90189e-319
1.2533e-318
-3.64275e-320
1.87137e-319
-3.84383e-321
2.63189e-320
-2.81617e-322
3.00886e-321
1.63042e-322
-3.35803e-311
-4.74023e-310
-5.85213e-311
-9.93763e-310
-4.03696e-311
-3.55099e-310
-2.05421e-311
-6.37832e-311
-8.09396e-312
-9.82321e-313
-2.62897e-312
3.81134e-312
-7.35832e-313
1.67852e-312
-1.82607e-313
4.95994e-313
-4.09737e-314
1.20564e-313
-8.42838e-315
2.58179e-314
-1.60513e-315
5.03463e-315
-2.84937e-316
9.11741e-316
-4.73291e-317
1.55608e-316
-7.35517e-318
2.54046e-317
-1.06138e-318
4.03188e-318
-1.38832e-319
6.26717e-319
-1.54346e-320
9.24693e-320
-1.22034e-321
1.1324e-320
6.96633e-322
-1.73482e-310
-3.17641e-309
-2.51726e-310
-3.25133e-309
-1.56922e-310
-9.35251e-310
-7.1253e-311
-1.46255e-310
-2.59254e-311
1.74093e-312
-8.02158e-312
1.01201e-311
-2.1868e-312
4.24264e-312
-5.37081e-313
1.2463e-312
-1.20639e-313
3.05332e-313
-2.50522e-314
6.6355e-314
-4.84723e-315
1.31877e-314
-8.78539e-316
2.44189e-315
-1.49608e-316
4.27447e-316
-2.39288e-317
7.18117e-317
-3.56986e-318
1.17639e-317
-4.85854e-319
1.89093e-318
-5.67928e-320
2.89028e-319
-4.83196e-321
3.70401e-320
2.53456e-321
-1.06539e-309
-2.18754e-308
-1.09182e-309
-9.51758e-309
-5.72337e-310
-2.21908e-309
-2.30299e-310
-3.0562e-310
-7.79128e-311
1.16999e-311
-2.3153e-311
2.42489e-311
-6.18898e-312
9.84165e-312
-1.51153e-312
2.88947e-312
-3.41014e-313
7.15162e-313
-7.1649e-314
1.57815e-313
-1.41042e-314
3.19448e-314
-2.6123e-315
6.03781e-315
-4.56305e-316
1.08088e-315
-7.51303e-317
1.85974e-316
-1.15836e-317
3.12024e-317
-1.63731e-318
5.12498e-318
-2.00116e-319
7.97684e-319
-1.80087e-320
1.04218e-319
7.63825e-321
-7.04919e-309
-7.71914e-308
-4.38881e-309
-2.15421e-308
-1.86236e-309
-4.40429e-309
-6.69852e-310
-5.47006e-310
-2.13722e-310
3.83023e-311
-6.16755e-311
5.12024e-311
-1.62977e-311
2.03112e-311
-3.98008e-312
5.97844e-312
-9.05096e-313
1.49562e-312
-1.92809e-313
3.34781e-313
-3.86544e-314
6.88632e-314
-7.31769e-315
1.32399e-314
-1.31055e-315
2.41192e-315
-2.21887e-316
4.21911e-316
-3.52869e-317
7.17291e-317
-5.16415e-318
1.18618e-317
-6.57532e-319
1.84332e-318
-6.25784e-320
2.38411e-319
1.7317e-320
-3.35184e-303
-3.24107e-304
-7.17186e-303
-1.26432e-303
-1.2019e-302
-1.91543e-303
-1.84886e-302
-2.22916e-303
-2.72295e-302
-1.96619e-303
-3.89433e-302
-6.40594e-304
-5.43634e-302
2.56695e-303
-7.42077e-302
8.93126e-303
-9.91037e-302
2.03476e-302
-1.29487e-301
3.95485e-302
-1.60894e-301
7.04137e-302
-2.46748e-301
1.18289e-301
-8.44965e-302
1.80025e-301
-3.82964e-302
2.31318e-302
-1.66515e-302
4.0293e-303
-8.25594e-303
8.28841e-304
-4.27892e-303
2.13758e-304
-2.22155e-303
1.04785e-304
-1.13058e-303
7.93519e-305
-5.55005e-304
5.82324e-305
-2.56924e-304
3.56064e-305
-1.0637e-304
1.6366e-305
3.83548e-306
-2.97311e-305
-4.92617e-303
-4.353e-304
-1.05008e-302
-1.59644e-303
-1.74632e-302
-2.40181e-303
-2.65996e-302
-2.75162e-303
-3.87548e-302
-2.34625e-303
-5.48306e-302
-6.21201e-304
-7.57661e-302
3.33416e-303
-1.02499e-301
1.08826e-302
-1.35911e-301
2.39647e-302
-1.76753e-301
4.52388e-302
-2.1938e-301
7.82516e-302
-3.32166e-301
1.27386e-301
-1.21213e-301
1.87502e-301
-5.03949e-302
2.50165e-302
-2.18618e-302
4.69111e-303
-1.09428e-302
1.12761e-303
-5.76518e-303
3.60457e-304
-3.05264e-303
1.76113e-304
-1.58563e-303
1.10688e-304
-7.94129e-304
6.85416e-305
-3.7591e-304
3.61256e-305
-1.61762e-304
1.40363e-305
2.17003e-306
-5.45735e-305
-6.48311e-303
-5.83485e-304
-1.37772e-302
-2.04176e-303
-2.28095e-302
-3.08215e-303
-3.4559e-302
-3.5605e-303
-5.00685e-302
-3.12947e-303
-7.04417e-302
-1.17209e-303
-9.68227e-302
3.27277e-303
-1.30358e-301
1.15977e-302
-1.72142e-301
2.57129e-302
-2.23147e-301
4.81171e-302
-2.76773e-301
8.19455e-302
-4.14333e-301
1.30704e-301
-1.57164e-301
1.8806e-301
-6.29676e-302
2.57299e-302
-2.72342e-302
5.01491e-303
-1.36334e-302
1.29934e-303
-7.20567e-303
4.58121e-304
-3.83351e-303
2.29421e-304
-2.00102e-303
1.36483e-304
-1.00689e-303
7.86793e-305
-4.79897e-304
3.89801e-305
-2.09766e-304
1.47401e-305
2.84891e-306
-7.44561e-305
-8.041e-303
-8.1643e-304
-1.70228e-302
-2.75221e-303
-2.80726e-302
-4.20121e-303
-4.23615e-302
-4.97919e-303
-6.1129e-302
-4.7013e-303
-8.56764e-302
-2.7162e-303
-1.17342e-301
1.96191e-303
-1.57458e-301
1.07235e-302
-2.0729e-301
2.54216e-302
-2.67956e-301
4.83891e-302
-3.3178e-301
8.24208e-302
-4.93037e-301
1.30417e-301
-1.91248e-301
1.85494e-301
-7.57473e-302
2.5881e-302
-3.27597e-302
5.15464e-303
-1.63825e-302
1.38908e-303
-8.65408e-303
5.17494e-304
-4.60261e-303
2.66526e-304
-2.40103e-303
1.57484e-304
-1.20736e-303
8.95758e-305
-5.76125e-304
4.46795e-305
-2.53603e-304
1.82381e-305
5.25491e-306
-9.19228e-305
-9.62744e-303
-1.19981e-303
-2.02791e-302
-3.92921e-303
-3.3299e-302
-6.08296e-303
-5.00517e-302
-7.43627e-303
-7.1973e-302
-7.57129e-303
-1.00558e-301
-5.81241e-303
-1.37332e-301
-1.16204e-303
-1.83798e-301
7.76039e-303
-2.4137e-301
2.27557e-302
-3.11283e-301
4.60369e-302
-3.84758e-301
8.01758e-302
-5.69085e-301
1.27735e-301
-2.23929e-301
1.81625e-301
-8.86272e-302
2.57877e-302
-3.84042e-302
5.20255e-303
-1.9198e-302
1.43142e-303
-1.01313e-302
5.5112e-304
-5.38053e-303
2.90992e-304
-2.8014e-303
1.73792e-304
-1.40581e-303
9.99951e-305
-6.70343e-304
5.14818e-305
-2.95965e-304
2.28514e-305
8.20364e-306
-1.08336e-304
-1.12839e-302
-1.82516e-303
-2.36117e-302
-5.84921e-303
-3.85724e-302
-9.17181e-303
-5.77285e-302
-1.15189e-302
-8.27174e-302
-1.24386e-302
-1.15231e-301
-1.12337e-302
-1.5698e-301
-6.89734e-303
-2.09636e-301
1.94767e-303
-2.74758e-301
1.70797e-302
-3.53704e-301
4.06555e-302
-4.36598e-301
7.51493e-302
-6.43785e-301
1.22975e-301
-2.55993e-301
1.77001e-301
-1.01621e-301
2.55372e-302
-4.41514e-302
5.18857e-303
-2.2076e-302
1.44139e-303
-1.16427e-302
5.66254e-304
-6.17549e-303
3.05372e-304
-3.20971e-303
1.85312e-304
-1.60768e-303
1.08567e-304
-7.65775e-304
5.7686e-305
-3.3846e-304
2.71687e-305
1.08547e-305
-1.24438e-304
-1.30658e-302
-2.82036e-303
-2.71091e-302
-8.89508e-303
-4.40083e-302
-1.40811e-302
-6.55361e-302
-1.80377e-302
-9.35444e-302
-2.02694e-302
-1.29933e-301
-2.00577e-302
-1.76605e-301
-1.63827e-302
-2.35409e-301
-7.85544e-303
-3.08059e-301
7.32061e-303
-3.96046e-301
3.13229e-302
-4.88423e-301
6.66427e-302
-7.18611e-301
1.15687e-301
-2.88332e-301
1.71316e-301
-1.14806e-301
2.50522e-302
-5.00076e-302
5.09098e-303
-2.50153e-302
1.4134e-303
-1.31886e-302
5.61895e-304
-6.98969e-303
3.09333e-304
-3.62848e-303
1.91333e-304
-1.81499e-303
1.14239e-304
-8.63708e-304
6.22414e-305
-3.81814e-304
3.04255e-305
1.28153e-305
-1.4062e-304
-1.50386e-302
-4.36339e-303
-3.08724e-302
-1.35929e-302
-4.97384e-302
-2.16526e-302
-7.36421e-302
-2.80998e-302
-1.04675e-301
-3.23846e-302
-1.44964e-301
-3.37637e-302
-1.96621e-301
-3.12063e-302
-2.61683e-301
-2.32924e-302
-3.42032e-301
-8.16031e-303
-4.39308e-301
1.64751e-302
-5.41511e-301
5.32463e-302
-7.9516e-301
1.04675e-301
-3.21914e-301
1.63624e-301
-1.28295e-301
2.41197e-302
-5.59946e-302
4.83976e-303
-2.80192e-302
1.32038e-303
-1.47689e-302
5.27178e-304
-7.8228e-303
2.98395e-304
-4.05766e-303
1.89844e-304
-2.02782e-303
1.15974e-304
-9.64287e-304
6.45807e-305
-4.26196e-304
3.23565e-305
1.40187e-305
-1.5704e-304
-1.72683e-302
-6.69892e-303
-3.49948e-302
-2.06592e-302
-5.58799e-302
-3.30229e-302
-8.22002e-302
-4.3195e-302
-1.16325e-301
-5.05496e-302
-1.6064e-301
-5.43324e-302
-2.17488e-301
-5.35096e-302
-2.89111e-301
-4.66242e-302
-3.77568e-301
-3.16949e-302
-4.84661e-301
-6.22565e-303
-5.9735e-301
3.27118e-302
-8.75275e-301
8.79212e-302
-3.57869e-301
1.52303e-301
-1.42237e-301
2.23714e-302
-6.21482e-302
4.30632e-303
-3.10956e-302
1.10856e-303
-1.63846e-302
4.38521e-304
-8.67402e-303
2.62282e-304
-4.4963e-303
1.76532e-304
-2.2455e-303
1.12083e-304
-1.06718e-303
6.41429e-305
-4.71512e-304
3.28609e-305
1.4523e-305
-1.73725e-304
-1.98024e-302
-1.01618e-302
-3.95233e-302
-3.10572e-302
-6.24812e-302
-4.97098e-302
-9.12843e-302
-6.52842e-302
-1.28638e-301
-7.7071e-302
-1.77226e-301
-8.43316e-302
-2.39655e-301
-8.60786e-302
-3.18386e-301
-8.08248e-302
-4.15671e-301
-6.64245e-302
-5.33483e-301
-4.00381e-302
-6.57738e-301
1.76813e-303
-9.61224e-301
6.23488e-302
-3.97609e-301
1.34787e-301
-1.56842e-301
1.9212e-302
-6.85209e-302
3.27673e-303
-3.42582e-302
6.85819e-304
-1.80382e-302
2.54268e-304
-9.543e-303
1.82339e-304
-4.9435e-303
1.43424e-304
-2.4673e-303
9.94281e-305
-1.17194e-303
5.98599e-305
-5.17588e-304
3.168e-305
1.43349e-305
-1.90643e-304
-2.26385e-302
-1.52087e-302
-4.43913e-302
-4.60801e-302
-6.94294e-302
-7.37117e-302
-1.00781e-301
-9.6911e-302
-1.41564e-301
-1.1488e-301
-1.94818e-301
-1.26991e-301
-2.63444e-301
-1.32397e-301
-3.50151e-301
-1.29644e-301
-4.57396e-301
-1.16383e-301
-5.87329e-301
-8.92831e-302
-7.24828e-301
-4.41147e-302
-1.05583e-300
2.34465e-302
-4.4294e-301
1.07014e-301
-1.72387e-301
1.3684e-302
-7.5183e-302
1.40549e-303
-3.75252e-302
-9.7015e-305
-1.97337e-302
-9.31953e-305
-1.04298e-302
2.81654e-305
-5.39852e-303
7.73828e-305
-2.69253e-303
7.26712e-305
-1.27816e-303
4.97436e-305
-5.64228e-304
2.81672e-305
1.32983e-305
-2.07737e-304
-2.56662e-302
-2.24749e-302
-4.93078e-302
-6.74672e-302
-7.63007e-302
-1.07658e-301
-1.1022e-301
-1.41317e-301
-1.54691e-301
-1.67623e-301
-2.13162e-301
-1.86234e-301
-2.88868e-301
-1.96659e-301
-3.84798e-301
-1.97603e-301
-5.03648e-301
-1.86524e-301
-6.47773e-301
-1.59435e-301
-8.01016e-301
-1.10962e-301
-1.16244e-300
-3.52092e-302
-4.96045e-301
6.25989e-302
-1.89207e-301
4.26016e-303
-8.22108e-302
-1.85043e-303
-4.09132e-302
-1.46976e-303
-2.14734e-302
-7.05809e-304
-1.13336e-302
-2.45241e-304
-5.86018e-303
-4.09068e-305
-2.9203e-303
2.3843e-305
-1.38531e-303
3.06613e-305
-6.11166e-304
2.11665e-305
1.10381e-305
-2.24907e-304
-2.85722e-302
-3.28746e-302
-5.35676e-302
-9.76102e-302
-8.21276e-302
-1.55014e-301
-1.1853e-301
-2.0261e-301
-1.66987e-301
-2.39722e-301
-2.31389e-301
-2.66678e-301
-3.15332e-301
-2.83697e-301
-4.22138e-301
-2.89905e-301
-5.54812e-301
-2.82634e-301
-7.15981e-301
-2.57108e-301
-8.88513e-301
-2.06431e-301
-1.2845e-300
-1.2242e-301
-5.5923e-301
-8.18645e-303
-2.07616e-301
-1.14295e-302
-8.96516e-302
-7.30504e-303
-4.44227e-302
-3.76075e-303
-2.32523e-302
-1.72193e-303
-1.22502e-302
-6.96378e-304
-6.3257e-303
-2.35974e-304
-3.14893e-303
-5.72367e-305
-1.4924e-303
-1.55438e-306
-6.57893e-304
9.01706e-306
6.94625e-306
-2.41948e-304
-3.06563e-302
-4.78216e-302
-5.5729e-302
-1.39898e-301
-8.5038e-302
-2.20411e-301
-1.23698e-301
-2.85938e-301
-1.76492e-301
-3.36431e-301
-2.47691e-301
-3.73548e-301
-3.41255e-301
-3.98838e-301
-4.60916e-301
-4.12235e-301
-6.1013e-301
-4.1112e-301
-7.91966e-301
-3.89851e-301
-9.88464e-301
-3.39717e-301
-1.42456e-300
-2.49572e-301
-6.34288e-301
-1.19325e-301
-2.27735e-301
-3.68617e-302
-9.74626e-302
-1.60717e-302
-4.80187e-302
-7.37761e-303
-2.50511e-302
-3.29682e-303
-1.31693e-302
-1.38588e-303
-6.78907e-303
-5.32394e-304
-3.37475e-303
-1.80983e-304
-1.59731e-303
-5.14512e-305
-7.03299e-304
-1.02583e-305
2.24859e-307
-2.58399e-304
-3.04526e-302
-6.97235e-302
-5.30126e-302
-1.99367e-301
-8.17044e-302
-3.10128e-301
-1.22357e-301
-3.97734e-301
-1.8e-301
-4.63808e-301
-2.59018e-301
-5.12524e-301
-3.63671e-301
-5.47631e-301
-4.98239e-301
-5.70443e-301
-6.66903e-301
-5.78628e-301
-8.73485e-301
-5.65712e-301
-1.09952e-300
-5.2104e-301
-1.58255e-300
-4.3023e-301
-7.21299e-301
-2.89199e-301
-2.49213e-301
-7.66017e-302
-1.05447e-301
-2.93862e-302
-5.16201e-302
-1.26788e-302
-2.68342e-302
-5.53555e-303
-1.40712e-302
-2.34732e-303
-7.23778e-303
-9.43575e-304
-3.58982e-303
-3.54073e-304
-1.69536e-303
-1.22595e-304
-7.44938e-304
-3.84803e-305
-9.95731e-306
-2.73242e-304
-2.47836e-302
-1.0309e-301
-4.01251e-302
-2.83827e-301
-6.65032e-302
-4.32766e-301
-1.09363e-301
-5.45841e-301
-1.72883e-301
-6.28564e-301
-2.6093e-301
-6.89408e-301
-3.77956e-301
-7.35493e-301
-5.29067e-301
-7.70127e-301
-7.19643e-301
-7.91565e-301
-9.54777e-301
-7.92569e-301
-1.21604e-300
-7.60642e-301
-1.75329e-300
-6.7864e-301
-8.17023e-301
-5.39013e-301
-2.70911e-301
-1.35044e-301
-1.13256e-301
-4.78037e-302
-5.51179e-302
-1.96077e-302
-2.85469e-302
-8.35237e-303
-1.49167e-302
-3.53887e-303
-7.64362e-303
-1.45578e-303
-3.77606e-303
-5.739e-304
-1.7763e-303
-2.15405e-304
-7.77691e-304
-7.63863e-305
-2.40786e-305
-2.84412e-304
-6.0535e-303
-1.56743e-301
-6.78594e-303
-4.05569e-301
-3.03199e-302
-5.99758e-301
-7.75954e-302
-7.39302e-301
-1.49345e-301
-8.37557e-301
-2.47877e-301
-9.09652e-301
-3.77898e-301
-9.67247e-301
-5.45976e-301
-1.01621e-300
-7.595e-301
-1.05557e-300
-1.02557e-300
-1.07736e-300
-1.32641e-300
-1.06732e-300
-1.92407e-300
-1.00689e-300
-9.1315e-301
-8.88107e-301
-2.90632e-301
-2.10776e-301
-1.20526e-301
-6.90179e-302
-5.83631e-302
-2.69972e-302
-3.00577e-302
-1.12854e-302
-1.56004e-302
-4.79654e-303
-7.93665e-303
-2.01402e-303
-3.89318e-303
-8.22467e-304
-1.81939e-303
-3.23967e-304
-7.91992e-304
-1.21995e-304
-4.15211e-305
-2.88253e-304
4.67109e-302
-2.19872e-301
6.74438e-302
-5.56993e-301
4.08342e-302
-7.98974e-301
-1.85562e-302
-9.61052e-301
-1.03534e-301
-1.07046e-300
-2.14139e-301
-1.15115e-300
-3.56251e-301
-1.22008e-300
-5.39363e-301
-1.28594e-300
-7.74303e-301
-1.34862e-300
-1.07111e-300
-1.39915e-300
-1.41275e-300
-1.42094e-300
-2.07385e-300
-1.38996e-300
-9.96122e-301
-1.34347e-300
-3.05097e-301
-2.65998e-301
-1.26815e-301
-8.19978e-302
-6.07556e-302
-3.18027e-302
-3.08828e-302
-1.34482e-302
-1.58247e-302
-5.83686e-303
-7.95789e-303
-2.51715e-303
-3.86393e-303
-1.06002e-303
-1.78986e-303
-4.31769e-304
-7.73382e-304
-1.68426e-304
-5.96274e-305
-2.79654e-304
1.97656e-301
-5.99687e-301
2.2138e-301
-1.04402e-300
1.63954e-301
-1.32736e-300
7.34317e-302
-1.50505e-300
-3.32113e-302
-1.62081e-300
-1.56295e-301
-1.7078e-300
-3.06082e-301
-1.7882e-300
-4.98024e-301
-1.87343e-300
-7.49001e-301
-1.96418e-300
-1.07354e-300
-2.05031e-300
-1.44939e-300
-2.1123e-300
-2.17818e-300
-2.12966e-300
-1.05761e-300
-1.07662e-300
-3.13754e-301
-2.29344e-301
-1.2599e-301
-7.72853e-302
-5.89874e-302
-3.19346e-302
-2.95173e-302
-1.41499e-302
-1.49468e-302
-6.3668e-303
-7.44365e-303
-2.82891e-303
-3.58395e-303
-1.22298e-303
-1.64796e-303
-5.10097e-304
-7.07477e-304
-2.03344e-304
-7.35698e-305
-2.54095e-304
6.03585e-301
1.65047e-302
4.87806e-301
-3.16019e-301
3.34943e-301
-5.0264e-301
1.86355e-301
-6.14275e-301
5.15671e-302
-6.85258e-301
-7.91317e-302
-7.38217e-301
-2.25937e-301
-7.87835e-301
-4.14457e-301
-8.41698e-301
-6.71697e-301
-9.00274e-301
-1.02032e-300
-9.56987e-301
-1.46772e-300
-9.99693e-301
-1.14489e-300
-1.02507e-300
-4.10895e-301
-4.00822e-301
-1.83032e-301
-1.46305e-301
-8.93543e-302
-6.19151e-302
-4.59072e-302
-2.82784e-302
-2.39776e-302
-1.32602e-302
-1.23932e-302
-6.19192e-303
-6.22838e-303
-2.82692e-303
-3.00837e-303
-1.24844e-303
-1.38338e-303
-5.29833e-304
-5.92818e-304
-2.14279e-304
-7.85043e-305
-2.11846e-304
7.13523e-302
-1.12914e-301
5.13778e-302
-2.09011e-301
3.7557e-302
-2.45167e-301
2.07126e-302
-2.66263e-301
8.82948e-304
-2.79639e-301
-2.27861e-302
-2.89065e-301
-5.33441e-302
-2.96964e-301
-9.5661e-302
-3.04434e-301
-1.54635e-301
-3.11182e-301
-2.29153e-301
-3.15594e-301
-2.81609e-301
-3.15386e-301
-2.38473e-301
-3.13746e-301
-1.48916e-301
-1.82201e-301
-9.11848e-302
-9.07764e-302
-5.34017e-302
-4.50182e-302
-3.04864e-302
-2.24135e-302
-1.69147e-302
-1.10652e-302
-9.05403e-303
-5.34387e-303
-4.6429e-303
-2.49878e-303
-2.26822e-303
-1.12337e-303
-1.04937e-303
-4.83342e-304
-4.50717e-304
-1.97571e-304
-7.29293e-305
-1.60485e-304
-9.61775e-303
-3.20758e-302
-7.41777e-303
-8.28057e-302
-4.64957e-303
-1.05937e-301
-3.79014e-303
-1.17465e-301
-5.85563e-303
-1.23383e-301
-1.10673e-302
-1.26692e-301
-1.99441e-302
-1.2888e-301
-3.3327e-302
-1.30534e-301
-5.15808e-302
-1.3172e-301
-7.23668e-302
-1.32395e-301
-8.47554e-302
-1.32633e-301
-7.90584e-302
-1.27541e-301
-6.25965e-302
-8.97115e-302
-4.51333e-302
-5.35053e-302
-2.9805e-302
-2.9862e-302
-1.84374e-302
-1.60016e-302
-1.07781e-302
-8.27397e-303
-5.96652e-303
-4.11921e-303
-3.1258e-303
-1.96668e-303
-1.54779e-303
-8.97433e-304
-7.22012e-304
-3.90418e-304
-3.11367e-304
-1.60882e-304
-5.96284e-305
-1.10465e-304
-9.24983e-303
-9.14176e-303
-9.72994e-303
-3.34539e-302
-8.20687e-303
-4.85626e-302
-6.29439e-303
-5.67501e-302
-5.51238e-303
-6.08686e-302
-6.41154e-303
-6.28551e-302
-9.23583e-303
-6.38251e-302
-1.4094e-302
-6.43191e-302
-2.07307e-302
-6.45536e-302
-2.78759e-302
-6.45981e-302
-3.24696e-302
-6.41258e-302
-3.23601e-302
-6.03065e-302
-2.84444e-302
-4.63728e-302
-2.24221e-302
-3.06607e-302
-1.59594e-302
-1.85149e-302
-1.04411e-302
-1.04824e-302
-6.35062e-303
-5.62548e-303
-3.6124e-303
-2.87135e-303
-1.92746e-303
-1.39433e-303
-9.66119e-304
-6.43853e-304
-4.54227e-304
-2.82478e-304
-1.96648e-304
-1.17073e-304
-4.34441e-305
-6.94321e-305
-4.51481e-303
-2.86242e-303
-5.72542e-303
-1.35977e-302
-5.5494e-303
-2.24541e-302
-4.59578e-303
-2.79991e-302
-3.81831e-303
-3.10415e-302
-3.74153e-303
-3.25438e-302
-4.58837e-303
-3.32163e-302
-6.38323e-303
-3.34795e-302
-8.92867e-303
-3.35385e-302
-1.16797e-302
-3.34247e-302
-1.37092e-302
-3.28108e-302
-1.42965e-302
-3.03952e-302
-1.33083e-302
-2.43283e-302
-1.10554e-302
-1.70503e-302
-8.24675e-303
-1.08335e-302
-5.60228e-303
-6.3764e-303
-3.50449e-303
-3.5179e-303
-2.03378e-303
-1.83008e-303
-1.10042e-303
-9.00289e-304
-5.56849e-304
-4.19413e-304
-2.63426e-304
-1.8511e-304
-1.14353e-304
-7.69937e-305
-2.85345e-305
-4.01118e-305
-1.91674e-303
-9.60885e-304
-2.76309e-303
-5.48456e-303
-2.9662e-303
-1.02009e-302
-2.65619e-303
-1.3607e-302
-2.24635e-303
-1.56827e-302
-2.06495e-303
-1.67904e-302
-2.28201e-303
-1.73077e-302
-2.93123e-303
-1.75053e-302
-3.92496e-303
-1.75289e-302
-5.05129e-303
-1.73904e-302
-5.99571e-303
-1.68857e-302
-6.4498e-303
-1.54669e-302
-6.2186e-303
-1.26123e-302
-5.33934e-303
-9.13747e-303
-4.10492e-303
-5.99701e-303
-2.85887e-303
-3.62421e-303
-1.82278e-303
-2.03916e-303
-1.07267e-303
-1.07559e-303
-5.861e-304
-5.34102e-304
-2.98552e-304
-2.50345e-304
-1.41813e-304
-1.10905e-304
-6.16291e-305
-4.62033e-305
-1.7064e-305
-2.14351e-305
-7.56893e-304
-3.34327e-304
-1.1945e-303
-2.17863e-303
-1.38654e-303
-4.50223e-303
-1.33037e-303
-6.40899e-303
-1.16505e-303
-7.69028e-303
-1.05126e-303
-8.43117e-303
-1.09201e-303
-8.80095e-303
-1.32093e-303
-8.94907e-303
-1.711e-303
-8.96388e-303
-2.18487e-303
-8.85247e-303
-2.62432e-303
-8.51205e-303
-2.88586e-303
-7.72549e-303
-2.84794e-303
-6.34933e-303
-2.49977e-303
-4.687e-303
-1.96045e-303
-3.13935e-303
-1.38802e-303
-1.93099e-303
-8.9631e-304
-1.10136e-303
-5.32355e-304
-5.86577e-304
-2.92721e-304
-2.93141e-304
-1.49704e-304
-1.37927e-304
-7.12549e-305
-6.1214e-305
-3.09498e-305
-2.54989e-305
-9.36718e-306
-1.06541e-305
-2.82747e-304
-1.17519e-304
-4.75488e-304
-8.467e-304
-5.8582e-304
-1.91775e-303
-5.95777e-304
-2.90018e-303
-5.41846e-304
-3.61954e-303
-4.90111e-304
-4.06619e-303
-4.92727e-304
-4.30317e-303
-5.73073e-304
-4.40301e-303
-7.26925e-304
-4.41341e-303
-9.27478e-304
-4.34008e-303
-1.1273e-303
-4.13799e-303
-1.26e-303
-3.72615e-303
-1.26369e-303
-3.06974e-303
-1.12609e-303
-2.28952e-303
-8.95095e-304
-1.55304e-303
-6.40773e-304
-9.66452e-304
-4.17257e-304
-5.56336e-304
-2.49276e-304
-2.98236e-304
-1.37568e-304
-1.49645e-304
-7.04831e-305
-7.05469e-305
-3.35564e-305
-3.13161e-305
-1.4546e-305
-1.30242e-305
-4.75151e-306
-4.94781e-306
-1.00535e-304
-4.10201e-305
-1.76435e-304
-3.20123e-304
-2.27096e-304
-7.85212e-304
-2.42217e-304
-1.25502e-303
-2.28398e-304
-1.62558e-303
-2.09284e-304
-1.87012e-303
-2.07818e-304
-2.00671e-303
-2.36891e-304
-2.06674e-303
-2.97934e-304
-2.07359e-303
-3.82066e-304
-2.03149e-303
-4.69849e-304
-1.92295e-303
-5.31742e-304
-1.71972e-303
-5.39449e-304
-1.41621e-303
-4.85814e-304
-1.06194e-303
-3.89759e-304
-7.25925e-304
-2.81105e-304
-4.55166e-304
-1.8404e-304
-2.63612e-304
-1.10325e-304
-1.419e-304
-6.09842e-305
-7.13557e-305
-3.12483e-305
-3.3653e-305
-1.48584e-305
-1.49217e-305
-6.41953e-306
-6.18829e-306
-2.23908e-306
-2.15468e-306
-3.41364e-305
-1.40417e-305
-6.14477e-305
-1.17175e-304
-8.14252e-305
-3.08246e-304
-9.01787e-305
-5.18149e-304
-8.79042e-305
-6.94737e-304
-8.21022e-305
-8.17467e-304
-8.17563e-305
-8.89011e-304
-9.28928e-305
-9.21556e-304
-1.17179e-304
-9.25637e-304
-1.51763e-304
-9.03934e-304
-1.88777e-304
-8.50396e-304
-2.15737e-304
-7.55966e-304
-2.20667e-304
-6.2143e-304
-2.002e-304
-4.67105e-304
-1.61646e-304
-3.20748e-304
-1.17163e-304
-2.02063e-304
-7.69616e-305
-1.17468e-304
-4.62115e-305
-6.33772e-305
-2.55469e-305
-3.1892e-305
-1.30736e-305
-1.50283e-305
-6.20101e-306
-6.6484e-306
-2.66736e-306
-2.74648e-306
-9.84475e-307
-8.82394e-307
-1.10923e-305
-4.67211e-306
-2.01712e-305
-4.13608e-305
-2.71184e-305
-1.15826e-304
-3.08876e-305
-2.03892e-304
-3.10368e-305
-2.8227e-304
-2.96918e-305
-3.39218e-304
-3.00314e-305
-3.73622e-304
-3.45301e-305
-3.89723e-304
-4.41364e-305
-3.91925e-304
-5.79438e-305
-3.81702e-304
-7.28661e-305
-3.57224e-304
-8.39087e-305
-3.15882e-304
-8.63227e-305
-2.59022e-304
-7.87092e-305
-1.94814e-304
-6.38212e-305
-1.34087e-304
-4.64027e-305
-8.4697e-305
-3.0534e-305
-4.93371e-305
-1.83395e-305
-2.66414e-305
-1.01274e-305
-1.33992e-305
-5.17042e-306
-6.30195e-306
-2.44383e-306
-2.77887e-306
-1.04564e-306
-1.14244e-306
-4.05295e-307
-3.40595e-307
-3.45418e-306
-1.50203e-306
-6.25733e-306
-1.40386e-305
-8.40138e-306
-4.1617e-305
-9.74323e-306
-7.64471e-305
-1.00705e-305
-1.09026e-304
-9.9225e-306
-1.33627e-304
-1.03229e-305
-1.48946e-304
-1.21817e-305
-1.56289e-304
-1.59161e-305
-1.57374e-304
-2.12345e-305
-1.52924e-304
-2.6974e-305
-1.42479e-304
-3.12424e-305
-1.254e-304
-3.22644e-305
-1.02538e-304
-2.9511e-305
-7.70773e-305
-2.39897e-305
-5.30947e-305
-1.7471e-305
-3.35756e-305
-1.15018e-305
-1.95707e-305
-6.90275e-306
-1.05642e-305
-3.80389e-306
-5.30489e-306
-1.93564e-306
-2.48793e-306
-9.10895e-307
-1.09255e-306
-3.87373e-307
-4.46635e-307
-1.56686e-307
-1.24136e-307
-1.03185e-306
-4.64807e-307
-1.837e-306
-4.57281e-306
-2.41795e-306
-1.42904e-305
-2.82179e-306
-2.73141e-305
-2.99679e-306
-4.00511e-305
-3.06539e-306
-5.00003e-305
-3.3277e-306
-5.63586e-305
-4.08647e-306
-5.94696e-305
-5.49756e-306
-5.99617e-305
-7.4647e-306
-5.81574e-305
-9.56842e-306
-5.39773e-305
-1.11292e-305
-4.73075e-305
-1.15188e-305
-3.8568e-305
-1.05526e-305
-2.89522e-305
-8.5881e-306
-1.99379e-305
-6.257e-306
-1.26074e-305
-4.11679e-306
-7.34502e-306
-2.46638e-306
-3.95938e-306
-1.35516e-306
-1.9833e-306
-6.86767e-307
-9.26722e-307
-3.21529e-307
-4.04964e-307