/*--------------------------------*- C++ -*----------------------------------*\
| =========                 |                                                 |
| \\      /  F ield         | OpenFOAM: The Open Source CFD Toolbox           |
|  \\    /   O peration     | Version:  2406                                  |
|   \\  /    A nd           | Website:  www.openfoam.com                      |
|    \\/     M anipulation  |                                                 |
\*---------------------------------------------------------------------------*/
FoamFile
{
    version     2.0;
    format      ascii;
    arch        "LSB;label=32;scalar=64";
    class       volVectorField;
    location    "0.1";
    object      U;
}
// * * * * * * * * * * * * * * * * * * * * * * * * * * * * * * * * * * * * * //

dimensions      [0 1 -1 0 0 0 0];

internalField   nonuniform List<vector> 
2268
(
(-1.6779e-301 -6.55859e-302 0)
(-5.11585e-301 -2.94263e-301 0)
(-9.9135e-301 -4.94897e-301 0)
(-1.71044e-300 -7.19764e-301 0)
(-2.80352e-300 -9.47734e-301 0)
(-4.43006e-300 -1.07968e-300 0)
(-6.76664e-300 -8.93703e-301 0)
(-9.97547e-300 5.99099e-302 0)
(-1.41273e-299 2.60996e-300 0)
(-1.89826e-299 8.35906e-300 0)
(-2.29702e-299 2.07745e-299 0)
(-1.6694e-299 4.84923e-299 0)
(6.90152e-299 1.41215e-298 0)
(-2.93509e-299 1.14959e-299 0)
(-1.01136e-299 -3.3412e-300 0)
(-2.94794e-300 -1.85783e-300 0)
(-9.33979e-301 -6.92613e-301 0)
(-3.17885e-301 -2.2159e-301 0)
(-1.10533e-301 -6.22647e-302 0)
(-3.68619e-302 -1.40698e-302 0)
(-1.06976e-302 -1.64222e-303 0)
(-2.15893e-303 3.1235e-304 0)
(-1.40434e-304 8.89966e-305 0)
(-5.4977e-301 -1.56046e-301 0)
(-1.67538e-300 -7.52561e-301 0)
(-3.19977e-300 -1.2787e-300 0)
(-5.46476e-300 -1.82263e-300 0)
(-8.8682e-300 -2.29521e-300 0)
(-1.38747e-299 -2.38967e-300 0)
(-2.09816e-299 -1.41868e-300 0)
(-3.06209e-299 1.91927e-300 0)
(-4.29256e-299 1.00227e-299 0)
(-5.71876e-299 2.71657e-299 0)
(-7.03369e-299 6.16524e-299 0)
(-7.15607e-299 1.32929e-298 0)
(-3.4439e-299 2.66494e-298 0)
(-5.93503e-299 2.52277e-299 0)
(-2.26753e-299 -2.39624e-300 0)
(-8.45204e-300 -2.46603e-300 0)
(-3.15792e-300 -1.10069e-300 0)
(-1.18866e-300 -3.82856e-301 0)
(-4.42487e-301 -1.06094e-301 0)
(-1.57429e-301 -1.7888e-302 0)
(-4.99316e-302 3.26523e-303 0)
(-1.17824e-302 4.00521e-303 0)
(-1.03357e-303 1.05008e-303 0)
(-9.70855e-301 -2.62845e-301 0)
(-2.99887e-300 -1.21254e-300 0)
(-5.7138e-300 -2.04901e-300 0)
(-9.70825e-300 -2.8691e-300 0)
(-1.56692e-299 -3.51244e-300 0)
(-2.43965e-299 -3.4411e-300 0)
(-3.67628e-299 -1.53217e-300 0)
(-5.35614e-299 4.37318e-300 0)
(-7.51959e-299 1.80638e-299 0)
(-1.01047e-298 4.62349e-299 0)
(-1.28229e-298 1.00854e-298 0)
(-1.48069e-298 2.06136e-298 0)
(-1.54554e-298 3.73651e-298 0)
(-8.08041e-299 3.51159e-299 0)
(-3.30109e-299 -5.81782e-301 0)
(-1.35999e-299 -2.46106e-300 0)
(-5.56708e-300 -1.27742e-300 0)
(-2.25643e-300 -4.69424e-301 0)
(-8.94425e-301 -1.24673e-301 0)
(-3.38593e-301 -1.06817e-302 0)
(-1.15984e-301 1.451e-302 0)
(-3.08601e-302 1.14837e-302 0)
(-3.46378e-303 3.36127e-303 0)
(-1.48735e-300 -3.79112e-301 0)
(-4.63287e-300 -1.7084e-300 0)
(-8.79075e-300 -2.85114e-300 0)
(-1.48311e-299 -3.91349e-300 0)
(-2.37544e-299 -4.63577e-300 0)
(-3.67324e-299 -4.26217e-300 0)
(-5.50522e-299 -1.1914e-300 0)
(-7.99505e-299 7.48556e-300 0)
(-1.12247e-298 2.69216e-299 0)
(-1.5172e-298 6.57515e-299 0)
(-1.9618e-298 1.388e-298 0)
(-2.39136e-298 2.71693e-298 0)
(-2.83893e-298 4.6354e-298 0)
(-1.03469e-298 4.61795e-299 0)
(-4.31705e-299 1.79089e-300 0)
(-1.87405e-299 -2.05861e-300 0)
(-8.15654e-300 -1.27019e-300 0)
(-3.50327e-300 -4.85983e-301 0)
(-1.4664e-300 -1.16329e-301 0)
(-5.87064e-301 9.03786e-303 0)
(-2.15244e-301 3.31031e-302 0)
(-6.32795e-302 2.36422e-302 0)
(-8.55667e-303 7.62787e-303 0)
(-2.15634e-300 -5.08904e-301 0)
(-6.74181e-300 -2.26835e-300 0)
(-1.27175e-299 -3.7297e-300 0)
(-2.12605e-299 -4.99572e-300 0)
(-3.37204e-299 -5.71299e-300 0)
(-5.16643e-299 -4.85598e-300 0)
(-7.68363e-299 -4.04787e-301 0)
(-1.10957e-298 1.1353e-299 0)
(-1.55353e-298 3.66621e-299 0)
(-2.10308e-298 8.59694e-299 0)
(-2.74257e-298 1.76051e-298 0)
(-3.41697e-298 3.33287e-298 0)
(-4.20366e-298 5.47754e-298 0)
(-1.2944e-298 5.82489e-299 0)
(-5.39074e-299 4.48664e-300 0)
(-2.41201e-299 -1.3992e-300 0)
(-1.09753e-299 -1.11776e-300 0)
(-4.9434e-300 -4.36242e-301 0)
(-2.17116e-300 -7.90752e-302 0)
(-9.14745e-301 4.26411e-302 0)
(-3.56845e-301 5.96105e-302 0)
(-1.14699e-301 4.09974e-302 0)
(-1.78262e-302 1.4574e-302 0)
(-3.04111e-300 -6.56302e-301 0)
(-9.51597e-300 -2.91585e-300 0)
(-1.78217e-299 -4.7091e-300 0)
(-2.94833e-299 -6.1485e-300 0)
(-4.62266e-299 -6.74204e-300 0)
(-7.00493e-299 -5.22334e-300 0)
(-1.03162e-298 9.23761e-301 0)
(-1.47805e-298 1.60537e-299 0)
(-2.05836e-298 4.75371e-299 0)
(-2.7808e-298 1.0711e-298 0)
(-3.63442e-298 2.13381e-298 0)
(-4.56373e-298 3.93663e-298 0)
(-5.66167e-298 6.35549e-298 0)
(-1.59195e-298 7.12671e-299 0)
(-6.56893e-299 7.44158e-300 0)
(-2.9999e-299 -5.5908e-301 0)
(-1.41358e-299 -8.51067e-301 0)
(-6.63064e-300 -3.27286e-301 0)
(-3.04059e-300 -1.36835e-302 0)
(-1.34259e-300 8.97728e-302 0)
(-5.54795e-301 9.31766e-302 0)
(-1.94222e-301 6.28598e-302 0)
(-3.42617e-302 2.50561e-302 0)
(-4.21548e-300 -8.29971e-301 0)
(-1.31776e-299 -3.66542e-300 0)
(-2.44882e-299 -5.81573e-300 0)
(-4.00553e-299 -7.37753e-300 0)
(-6.20227e-299 -7.73249e-300 0)
(-9.28284e-299 -5.29679e-300 0)
(-1.35171e-298 2.85248e-300 0)
(-1.91795e-298 2.18054e-299 0)
(-2.65112e-298 5.97244e-299 0)
(-3.56504e-298 1.29626e-298 0)
(-4.65378e-298 2.51291e-298 0)
(-5.86207e-298 4.54408e-298 0)
(-7.26052e-298 7.3116e-298 0)
(-1.92505e-298 8.4971e-299 0)
(-7.89801e-299 1.06359e-299 0)
(-3.67231e-299 4.19958e-301 0)
(-1.78369e-299 -4.96968e-301 0)
(-8.67521e-300 -1.71017e-301 0)
(-4.13845e-300 7.46094e-302 0)
(-1.90835e-300 1.46947e-301 0)
(-8.31794e-301 1.30151e-301 0)
(-3.16814e-301 8.54313e-302 0)
(-6.57347e-302 3.80294e-302 0)
(-5.76295e-300 -1.04722e-300 0)
(-1.79903e-299 -4.52871e-300 0)
(-3.31639e-299 -7.05853e-300 0)
(-5.36221e-299 -8.70058e-300 0)
(-8.19507e-299 -8.64555e-300 0)
(-1.21056e-298 -5.03693e-300 0)
(-1.74099e-298 5.56202e-300 0)
(-2.44327e-298 2.8778e-299 0)
(-3.34666e-298 7.36544e-299 0)
(-4.47117e-298 1.53925e-298 0)
(-5.81818e-298 2.90563e-298 0)
(-7.34755e-298 5.15174e-298 0)
(-9.06705e-298 8.28423e-298 0)
(-2.28808e-298 9.84971e-299 0)
(-9.41399e-299 1.4025e-299 0)
(-4.46106e-299 1.52941e-300 0)
(-2.2282e-299 -7.69159e-302 0)
(-1.11964e-299 1.50568e-302 0)
(-5.53384e-300 1.73474e-301 0)
(-2.65108e-300 2.04705e-301 0)
(-1.20898e-300 1.61782e-301 0)
(-4.97433e-301 9.8377e-302 0)
(-1.39338e-301 3.716e-302 0)
(-4.51565e-311 -1.57228e-310 0)
(-5.83033e-310 -3.89124e-309 0)
(-9.0173e-311 -3.22506e-309 0)
(-8.00177e-311 -8.80039e-310 0)
(-1.37758e-310 -7.57399e-311 0)
(-8.03636e-311 2.46551e-311 0)
(-2.91313e-311 1.24151e-311 0)
(-7.96731e-312 3.31374e-312 0)
(-1.79916e-312 6.8262e-313 0)
(-3.52547e-313 1.20333e-313 0)
(-6.17608e-314 1.90299e-314 0)
(-9.85292e-315 2.77353e-315 0)
(-1.44686e-315 3.79868e-316 0)
(-1.96167e-316 4.98985e-317 0)
(-2.44136e-317 6.47945e-318 0)
(-2.6348e-318 8.52436e-319 0)
(-2.35126e-319 7.83736e-320 0)
(0 0 0)
(0 0 0)
(3.35011e-310 -2.10102e-309 0)
(-5.08087e-309 -3.0334e-308 0)
(-3.11097e-309 -2.17849e-308 0)
(-2.56737e-309 -5.82069e-309 0)
(-1.69064e-309 -4.96558e-310 0)
(-7.49372e-310 1.9721e-310 0)
(-2.48391e-310 1.04993e-310 0)
(-6.67011e-311 3.05841e-311 0)
(-1.5276e-311 6.92852e-312 0)
(-3.08505e-312 1.34571e-312 0)
(-5.61665e-313 2.34207e-313 0)
(-9.35376e-314 3.74289e-314 0)
(-1.43747e-314 5.5837e-315 0)
(-2.04382e-315 7.8926e-316 0)
(-2.66867e-316 1.07438e-316 0)
(-3.11518e-317 1.41624e-317 0)
(-2.97979e-318 1.70687e-318 0)
(-1.9108e-319 1.59232e-319 0)
(0 0 0)
(2.60125e-309 -1.48369e-308 0)
(-2.92922e-308 -1.44021e-307 0)
(-2.314e-308 -8.72797e-308 0)
(-1.70716e-308 -2.16016e-308 0)
(-9.11184e-309 -1.57382e-309 0)
(-3.58699e-309 8.64556e-310 0)
(-1.12349e-309 4.45228e-310 0)
(-2.95722e-310 1.32606e-310 0)
(-6.78477e-311 3.1127e-311 0)
(-1.39122e-311 6.30121e-312 0)
(-2.59393e-312 1.14637e-312 0)
(-4.44932e-313 1.91809e-313 0)
(-7.0712e-314 2.99846e-314 0)
(-1.04325e-314 4.44246e-315 0)
(-1.41921e-315 6.33332e-316 0)
(-1.73593e-316 8.73494e-317 0)
(-1.78453e-317 1.11644e-317 0)
(-1.2667e-318 1.10836e-318 0)
(-3.77269e-320 3.77269e-320 0)
(8.91215e-309 -9.52171e-308 0)
(-1.5671e-307 -5.88679e-307 0)
(-1.27516e-307 -2.962e-307 0)
(-8.20519e-308 -6.58142e-308 0)
(-3.81744e-308 -3.49895e-309 0)
(-1.379e-308 3.10986e-309 0)
(-4.12062e-309 1.50488e-309 0)
(-1.06219e-309 4.48586e-310 0)
(-2.42922e-310 1.07126e-310 0)
(-5.02525e-311 2.22372e-311 0)
(-9.53217e-312 4.16814e-312 0)
(-1.67352e-312 7.20923e-313 0)
(-2.73484e-313 1.16825e-313 0)
(-4.16531e-314 1.79939e-314 0)
(-5.87522e-315 2.6749e-315 0)
(-7.50216e-316 3.86176e-316 0)
(-8.14755e-317 5.21119e-317 0)
(-6.28485e-318 5.6073e-318 0)
(-1.86228e-319 2.60718e-319 0)
(-2.143e-308 -6.0313e-307 0)
(-7.45261e-307 -2.17648e-306 0)
(-5.90872e-307 -9.07803e-307 0)
(-3.30829e-307 -1.78857e-307 0)
(-1.38179e-307 -5.59082e-309 0)
(-4.66183e-308 9.78375e-309 0)
(-1.34051e-308 4.46059e-309 0)
(-3.39506e-309 1.32253e-309 0)
(-7.74135e-310 3.19312e-310 0)
(-1.61357e-310 6.75574e-311 0)
(-3.1076e-311 1.29717e-311 0)
(-5.5715e-312 2.30686e-312 0)
(-9.34055e-313 3.85628e-313 0)
(-1.46541e-313 6.14821e-314 0)
(-2.13885e-314 9.49673e-315 0)
(-2.84447e-315 1.43126e-315 0)
(-3.25284e-316 2.03497e-316 0)
(-2.70841e-317 2.36178e-317 0)
(-8.12283e-319 1.32919e-318 0)
(-6.18249e-307 -4.00044e-306 0)
(-3.34261e-306 -7.47464e-306 0)
(-2.40468e-306 -2.54081e-306 0)
(-1.1781e-306 -4.40586e-307 0)
(-4.48713e-307 -3.94918e-309 0)
(-1.43203e-307 2.72308e-308 0)
(-3.99416e-308 1.18407e-308 0)
(-9.98644e-309 3.49442e-309 0)
(-2.27594e-309 8.51567e-310 0)
(-4.78429e-310 1.83179e-310 0)
(-9.35524e-311 3.59231e-311 0)
(-1.71173e-311 6.5477e-312 0)
(-2.94105e-312 1.12559e-312 0)
(-4.74728e-313 1.8524e-313 0)
(-7.16028e-314 2.96596e-314 0)
(-9.90258e-315 4.65522e-315 0)
(-1.19028e-315 6.94555e-316 0)
(-1.06349e-316 8.63617e-317 0)
(-3.92676e-318 5.43141e-318 0)
(-8.56931e-306 -2.68478e-305 0)
(-1.57552e-305 -2.41012e-305 0)
(-9.17271e-306 -6.54206e-306 0)
(-3.89462e-306 -9.79798e-307 0)
(-1.36347e-306 2.08566e-308 0)
(-4.15404e-307 7.10522e-308 0)
(-1.13215e-307 2.93625e-308 0)
(-2.80892e-308 8.60923e-309 0)
(-6.42134e-309 2.11372e-309 0)
(-1.36455e-309 4.61241e-310 0)
(-2.71312e-310 9.21521e-311 0)
(-5.07088e-311 1.71672e-311 0)
(-8.93408e-312 3.02564e-312 0)
(-1.48408e-312 5.12174e-313 0)
(-2.31263e-313 8.45882e-314 0)
(-3.32081e-314 1.37089e-314 0)
(-4.17411e-315 2.11241e-315 0)
(-3.94832e-316 2.73378e-316 0)
(-1.63358e-317 1.91863e-317 0)
(-9.1737e-305 -1.85599e-304 0)
(-6.92069e-305 -6.83306e-305 0)
(-3.09964e-305 -1.5009e-305 0)
(-1.15241e-305 -1.98829e-306 0)
(-3.76969e-306 9.27698e-308 0)
(-1.10991e-306 1.64446e-307 0)
(-2.98234e-307 6.62166e-308 0)
(-7.38677e-308 1.94524e-308 0)
(-1.70036e-308 4.83172e-309 0)
(-3.6611e-309 1.07141e-309 0)
(-7.41022e-310 2.18086e-310 0)
(-1.41517e-310 4.14702e-311 0)
(-2.55573e-311 7.47155e-312 0)
(-4.36462e-312 1.29395e-312 0)
(-7.01397e-313 2.1844e-313 0)
(-1.04258e-313 3.60634e-314 0)
(-1.36477e-314 5.63445e-315 0)
(-1.36475e-315 7.38777e-316 0)
(-6.39951e-317 5.49706e-317 0)
(-8.73408e-300 -1.47155e-300 0)
(-2.72445e-299 -5.98714e-300 0)
(-4.97381e-299 -9.14039e-300 0)
(-7.92739e-299 -1.081e-299 0)
(-1.19183e-298 -9.90155e-300 0)
(-1.73098e-298 -4.0216e-300 0)
(-2.44919e-298 1.09054e-299 0)
(-3.38617e-298 4.14672e-299 0)
(-4.57927e-298 9.75717e-299 0)
(-6.0585e-298 1.94048e-298 0)
(-7.84061e-298 3.52402e-298 0)
(-9.92389e-298 6.04046e-298 0)
(-1.22763e-297 9.38362e-298 0)
(-2.90774e-298 1.17618e-298 0)
(-1.20299e-298 1.93745e-299 0)
(-5.84376e-299 3.46308e-300 0)
(-3.01815e-299 6.86366e-301 0)
(-1.57484e-299 3.48471e-301 0)
(-8.09768e-300 3.35185e-301 0)
(-4.03798e-300 2.8424e-301 0)
(-1.91943e-300 1.92164e-301 0)
(-8.38379e-301 9.78973e-302 0)
(-3.03391e-301 2.83076e-302 0)
(-1.28322e-299 -2.02556e-300 0)
(-4.00452e-299 -7.6549e-300 0)
(-7.26701e-299 -1.15272e-299 0)
(-1.1478e-298 -1.32426e-299 0)
(-1.70739e-298 -1.13137e-299 0)
(-2.45254e-298 -2.89042e-300 0)
(-3.43296e-298 1.67921e-299 0)
(-4.69975e-298 5.49013e-299 0)
(-6.30248e-298 1.2198e-298 0)
(-8.28615e-298 2.3268e-298 0)
(-1.06865e-297 4.07363e-298 0)
(-1.35344e-297 6.72294e-298 0)
(-1.67661e-297 1.00411e-297 0)
(-3.83338e-298 1.31975e-298 0)
(-1.576e-298 2.41017e-299 0)
(-7.70638e-299 5.48013e-300 0)
(-4.03963e-299 1.62009e-300 0)
(-2.1487e-299 7.82158e-301 0)
(-1.12799e-299 5.21023e-301 0)
(-5.74017e-300 3.44088e-301 0)
(-2.784e-300 1.9203e-301 0)
(-1.25102e-300 7.86922e-302 0)
(-4.85328e-301 1.30772e-302 0)
(-1.69174e-299 -2.67133e-300 0)
(-5.26722e-299 -9.57076e-300 0)
(-9.5212e-299 -1.43884e-299 0)
(-1.49625e-298 -1.64474e-299 0)
(-2.21331e-298 -1.40024e-299 0)
(-3.16103e-298 -3.81235e-300 0)
(-4.40017e-298 1.91835e-299 0)
(-5.99276e-298 6.25218e-299 0)
(-7.99982e-298 1.366e-298 0)
(-1.04779e-297 2.55447e-298 0)
(-1.34747e-297 4.36972e-298 0)
(-1.70347e-297 7.02207e-298 0)
(-2.10679e-297 1.01903e-297 0)
(-4.79493e-298 1.37954e-298 0)
(-1.96399e-298 2.65155e-299 0)
(-9.59315e-299 6.68681e-300 0)
(-5.04095e-299 2.26925e-300 0)
(-2.6936e-299 1.11811e-300 0)
(-1.42128e-299 6.73298e-301 0)
(-7.26608e-300 3.95477e-301 0)
(-3.54187e-300 1.97766e-301 0)
(-1.60933e-300 7.27594e-302 0)
(-6.4229e-301 1.03374e-302 0)
(-2.10644e-299 -3.62449e-300 0)
(-6.52475e-299 -1.24599e-299 0)
(-1.17475e-298 -1.88681e-299 0)
(-1.83855e-298 -2.19704e-299 0)
(-2.70852e-298 -1.97645e-299 0)
(-3.85306e-298 -8.83455e-300 0)
(-5.34343e-298 1.61297e-299 0)
(-7.25206e-298 6.26171e-299 0)
(-9.64948e-298 1.40843e-298 0)
(-1.2601e-297 2.63737e-298 0)
(-1.61613e-297 4.4722e-298 0)
(-2.03804e-297 7.08088e-298 0)
(-2.51527e-297 1.01014e-297 0)
(-5.7673e-298 1.39673e-298 0)
(-2.3634e-298 2.75954e-299 0)
(-1.15302e-298 7.33313e-300 0)
(-6.05476e-299 2.67389e-300 0)
(-3.23451e-299 1.35735e-300 0)
(-1.70593e-299 7.99356e-301 0)
(-8.71333e-300 4.53474e-301 0)
(-4.24642e-300 2.2283e-301 0)
(-1.9377e-300 8.62864e-302 0)
(-7.8447e-301 2.04023e-302 0)
(-2.53738e-299 -5.1848e-300 0)
(-7.7967e-299 -1.72365e-299 0)
(-1.39708e-298 -2.6463e-299 0)
(-2.17723e-298 -3.17552e-299 0)
(-3.19532e-298 -3.09626e-299 0)
(-4.53025e-298 -2.04733e-299 0)
(-6.26367e-298 5.03932e-300 0)
(-8.47757e-298 5.309e-299 0)
(-1.12513e-297 1.33457e-298 0)
(-1.46573e-297 2.58382e-298 0)
(-1.87558e-297 4.42101e-298 0)
(-2.36004e-297 6.99115e-298 0)
(-2.9078e-297 9.91345e-298 0)
(-6.74249e-298 1.39583e-298 0)
(-2.77073e-298 2.80232e-299 0)
(-1.35156e-298 7.65502e-300 0)
(-7.09142e-299 2.90988e-300 0)
(-3.78354e-299 1.51847e-300 0)
(-1.9919e-299 8.99895e-301 0)
(-1.01511e-299 5.1305e-301 0)
(-4.9388e-300 2.59262e-301 0)
(-2.25665e-300 1.10503e-301 0)
(-9.20236e-301 3.62982e-302 0)
(-2.99913e-299 -7.7612e-300 0)
(-9.11301e-299 -2.51597e-299 0)
(-1.62317e-298 -3.91722e-299 0)
(-2.51718e-298 -4.84823e-299 0)
(-3.67938e-298 -5.07318e-299 0)
(-5.19948e-298 -4.22427e-299 0)
(-7.16938e-298 -1.75778e-299 0)
(-9.68079e-298 3.06447e-299 0)
(-1.28215e-297 1.12078e-298 0)
(-1.66711e-297 2.38358e-298 0)
(-2.12954e-297 4.22996e-298 0)
(-2.67532e-297 6.79143e-298 0)
(-3.29258e-297 9.68395e-298 0)
(-7.72321e-298 1.38666e-298 0)
(-3.18479e-298 2.81124e-299 0)
(-1.55441e-298 7.78999e-300 0)
(-8.15225e-299 3.03672e-300 0)
(-4.34498e-299 1.62134e-300 0)
(-2.28378e-299 9.75327e-301 0)
(-1.16152e-299 5.65899e-301 0)
(-5.64168e-300 2.96228e-301 0)
(-2.57813e-300 1.36064e-301 0)
(-1.05489e-300 5.22192e-302 0)
(-3.51141e-299 -1.19323e-299 0)
(-1.05134e-298 -3.79534e-299 0)
(-1.85854e-298 -5.97918e-299 0)
(-2.8653e-298 -7.5807e-299 0)
(-4.16933e-298 -8.34811e-299 0)
(-5.87171e-298 -7.89692e-299 0)
(-8.07524e-298 -5.68446e-299 0)
(-1.08815e-297 -9.62936e-300 0)
(-1.43873e-297 7.22129e-299 0)
(-1.86798e-297 2.00316e-298 0)
(-2.38317e-297 3.87866e-298 0)
(-2.99076e-297 6.47764e-298 0)
(-3.67855e-297 9.41447e-298 0)
(-8.71693e-298 1.3688e-298 0)
(-3.60635e-298 2.78723e-299 0)
(-1.76145e-298 7.76261e-300 0)
(-9.23687e-299 3.07318e-300 0)
(-4.91975e-299 1.67363e-300 0)
(-2.58297e-299 1.0242e-300 0)
(-1.31183e-299 6.05545e-301 0)
(-6.3638e-300 3.26205e-301 0)
(-2.90723e-300 1.57087e-301 0)
(-1.19115e-300 6.49033e-302 0)
(-4.09846e-299 -1.84994e-299 0)
(-1.2044e-298 -5.80247e-299 0)
(-2.10944e-298 -9.2144e-299 0)
(-3.22946e-298 -1.1882e-298 0)
(-4.67527e-298 -1.35226e-298 0)
(-6.56053e-298 -1.37454e-298 0)
(-8.99983e-298 -1.19925e-298 0)
(-1.21054e-297 -7.5131e-299 0)
(-1.59836e-297 6.77662e-300 0)
(-2.07301e-297 1.37659e-298 0)
(-2.64252e-297 3.31211e-298 0)
(-3.31405e-297 6.00497e-298 0)
(-4.07517e-297 9.0706e-298 0)
(-9.73372e-298 1.33433e-298 0)
(-4.03741e-298 2.70594e-299 0)
(-1.97304e-298 7.48799e-300 0)
(-1.03454e-298 2.98968e-300 0)
(-5.50758e-299 1.66407e-300 0)
(-2.8894e-299 1.04028e-300 0)
(-1.46608e-299 6.27098e-301 0)
(-7.10581e-300 3.45381e-301 0)
(-3.24483e-300 1.71205e-301 0)
(-1.32994e-300 7.33738e-302 0)
(-4.78686e-299 -2.85816e-299 0)
(-1.37489e-298 -8.86428e-299 0)
(-2.38145e-298 -1.41488e-298 0)
(-3.61669e-298 -1.84378e-298 0)
(-5.20667e-298 -2.14204e-298 0)
(-7.27968e-298 -2.26857e-298 0)
(-9.96338e-298 -2.16791e-298 0)
(-1.33818e-297 -1.76194e-298 0)
(-1.76513e-297 -9.48265e-299 0)
(-2.28767e-297 4.01078e-299 0)
(-2.91467e-297 2.43318e-298 0)
(-3.65405e-297 5.28944e-298 0)
(-4.49336e-297 8.5845e-298 0)
(-1.07867e-297 1.26818e-298 0)
(-4.48107e-298 2.51617e-299 0)
(-2.1899e-298 6.75896e-300 0)
(-1.1479e-298 2.69858e-300 0)
(-6.10817e-299 1.55562e-300 0)
(-3.2025e-299 1.00813e-300 0)
(-1.62381e-299 6.2426e-301 0)
(-7.86509e-300 3.51446e-301 0)
(-3.58995e-300 1.77922e-301 0)
(-1.47125e-300 7.7888e-302 0)
(-5.60158e-299 -4.36998e-299 0)
(-1.56543e-298 -1.3427e-298 0)
(-2.67699e-298 -2.1483e-298 0)
(-4.02973e-298 -2.81697e-298 0)
(-5.76871e-298 -3.31227e-298 0)
(-8.03922e-298 -3.5939e-298 0)
(-1.09842e-297 -3.60578e-298 0)
(-1.47403e-297 -3.26882e-298 0)
(-1.94352e-297 -2.47162e-298 0)
(-2.51829e-297 -1.07283e-298 0)
(-3.2081e-297 1.09643e-298 0)
(-4.02161e-297 4.19727e-298 0)
(-4.94661e-297 7.84904e-298 0)
(-1.18936e-297 1.1457e-298 0)
(-4.9418e-298 2.13036e-299 0)
(-2.41322e-298 5.20243e-300 0)
(-1.26405e-298 2.03306e-300 0)
(-6.72164e-299 1.27441e-300 0)
(-3.5218e-299 8.96646e-301 0)
(-1.78455e-299 5.85114e-301 0)
(-8.6385e-300 3.40657e-301 0)
(-3.94111e-300 1.76648e-301 0)
(-1.61467e-300 7.88157e-302 0)
(-6.55792e-299 -6.59457e-299 0)
(-1.77422e-298 -2.00837e-298 0)
(-2.99074e-298 -3.2154e-298 0)
(-4.4618e-298 -4.22721e-298 0)
(-6.35598e-298 -5.00371e-298 0)
(-8.83949e-298 -5.50549e-298 0)
(-1.20723e-297 -5.68211e-298 0)
(-1.62058e-297 -5.45219e-298 0)
(-2.13793e-297 -4.69559e-298 0)
(-2.77175e-297 -3.24729e-298 0)
(-3.53263e-297 -9.05646e-299 0)
(-4.43001e-297 2.53018e-298 0)
(-5.45196e-297 6.6945e-298 0)
(-1.30784e-297 9.27285e-299 0)
(-5.42555e-298 1.40524e-299 0)
(-2.64458e-298 2.19756e-300 0)
(-1.38336e-298 7.10499e-301 0)
(-7.34844e-299 6.93032e-301 0)
(-3.84691e-299 6.50904e-301 0)
(-1.94785e-299 4.87717e-301 0)
(-9.42303e-300 3.05233e-301 0)
(-4.29677e-300 1.65179e-301 0)
(-1.75965e-300 7.58586e-302 0)
(-7.64951e-299 -9.81567e-299 0)
(-1.99005e-298 -2.96367e-298 0)
(-3.30263e-298 -4.73811e-298 0)
(-4.88746e-298 -6.22951e-298 0)
(-6.94354e-298 -7.39187e-298 0)
(-9.66097e-298 -8.1969e-298 0)
(-1.32198e-297 -8.60352e-298 0)
(-1.77872e-297 -8.53645e-298 0)
(-2.35169e-297 -7.86218e-298 0)
(-3.05446e-297 -6.38636e-298 0)
(-3.89872e-297 -3.85434e-298 0)
(-4.89451e-297 -3.00499e-302 0)
(-6.03005e-297 4.85232e-298 0)
(-1.43704e-297 5.49224e-299 0)
(-5.939e-298 1.11288e-300 0)
(-2.88549e-298 -3.24436e-300 0)
(-1.50612e-298 -1.71608e-300 0)
(-7.98834e-299 -3.89128e-301 0)
(-4.17715e-299 1.84058e-301 0)
(-2.11315e-299 2.96406e-301 0)
(-1.0215e-299 2.31502e-301 0)
(-4.65492e-300 1.38745e-301 0)
(-1.90532e-300 6.76303e-302 0)
(-8.82547e-299 -1.44348e-298 0)
(-2.18439e-298 -4.31605e-298 0)
(-3.56554e-298 -6.87825e-298 0)
(-5.25002e-298 -9.01867e-298 0)
(-7.47292e-298 -1.06947e-297 0)
(-1.04515e-297 -1.18978e-297 0)
(-1.43857e-297 -1.2616e-297 0)
(-1.9462e-297 -1.27849e-297 0)
(-2.58502e-297 -1.22638e-297 0)
(-3.37031e-297 -1.08167e-297 0)
(-4.31501e-297 -8.11848e-298 0)
(-5.4302e-297 -3.79878e-298 0)
(-6.70276e-297 1.90211e-298 0)
(-1.57986e-297 -8.95516e-300 0)
(-6.48688e-298 -2.1079e-299 0)
(-3.1363e-298 -1.26144e-299 0)
(-1.63203e-298 -5.89961e-300 0)
(-8.63867e-299 -2.25703e-300 0)
(-4.5107e-299 -6.25443e-301 0)
(-2.2793e-299 -3.91398e-302 0)
(-1.10075e-299 9.93334e-302 0)
(-5.01186e-300 8.96422e-302 0)
(-2.04995e-300 5.14706e-302 0)
(-9.95017e-299 -2.10369e-298 0)
(-2.29563e-298 -6.2161e-298 0)
(-3.68631e-298 -9.84774e-298 0)
(-5.44165e-298 -1.28429e-297 0)
(-7.83603e-298 -1.51713e-297 0)
(-1.11086e-297 -1.68768e-297 0)
(-1.54786e-297 -1.79949e-297 0)
(-2.11517e-297 -1.84959e-297 0)
(-2.83229e-297 -1.82325e-297 0)
(-3.71683e-297 -1.69253e-297 0)
(-4.78412e-297 -1.41555e-297 0)
(-6.04675e-297 -9.41032e-298 0)
(-7.48789e-297 -2.78543e-298 0)
(-1.7378e-297 -1.1437e-298 0)
(-7.06703e-298 -5.77425e-299 0)
(-3.39458e-298 -2.79642e-299 0)
(-1.75974e-298 -1.268e-299 0)
(-9.29235e-299 -5.2569e-300 0)
(-4.84352e-299 -1.92072e-300 0)
(-2.44385e-299 -5.78445e-301 0)
(-1.17861e-299 -1.16105e-301 0)
(-5.35947e-300 7.65194e-303 0)
(-2.18972e-300 2.34796e-302 0)
(-1.0701e-298 -3.05627e-298 0)
(-2.19867e-298 -8.87891e-298 0)
(-3.49169e-298 -1.39346e-297 0)
(-5.27845e-298 -1.80099e-297 0)
(-7.85531e-298 -2.11297e-297 0)
(-1.14658e-297 -2.34291e-297 0)
(-1.63371e-297 -2.50397e-297 0)
(-2.26993e-297 -2.59843e-297 0)
(-3.07816e-297 -2.61275e-297 0)
(-4.08036e-297 -2.51396e-297 0)
(-5.29561e-297 -2.25e-297 0)
(-6.74016e-297 -1.75185e-297 0)
(-8.38849e-297 -1.00898e-297 0)
(-1.90861e-297 -2.83369e-298 0)
(-7.66444e-298 -1.15672e-298 0)
(-3.65416e-298 -5.16404e-299 0)
(-1.88673e-298 -2.28928e-299 0)
(-9.93649e-299 -9.69679e-300 0)
(-5.16752e-299 -3.82382e-300 0)
(-2.6015e-299 -1.37436e-300 0)
(-1.25181e-299 -4.39054e-301 0)
(-5.67991e-300 -1.18339e-301 0)
(-2.31624e-300 -2.10534e-302 0)
(-1.02503e-298 -4.46691e-298 0)
(-1.63523e-298 -1.26328e-297 0)
(-2.6718e-298 -1.95283e-297 0)
(-4.46664e-298 -2.49057e-297 0)
(-7.27237e-298 -2.89153e-297 0)
(-1.12849e-297 -3.18723e-297 0)
(-1.67233e-297 -3.40498e-297 0)
(-2.38464e-297 -3.55666e-297 0)
(-3.29436e-297 -3.63066e-297 0)
(-4.43027e-297 -3.59008e-297 0)
(-5.81828e-297 -3.37203e-297 0)
(-7.48097e-297 -2.89034e-297 0)
(-9.37864e-297 -2.11149e-297 0)
(-2.08295e-297 -5.43165e-298 0)
(-8.25005e-298 -2.01406e-298 0)
(-3.90681e-298 -8.51637e-299 0)
(-2.00953e-298 -3.68359e-299 0)
(-1.0547e-298 -1.56309e-299 0)
(-5.46458e-299 -6.35738e-300 0)
(-2.74006e-299 -2.44609e-300 0)
(-1.31315e-299 -8.83745e-301 0)
(-5.93529e-300 -2.96864e-301 0)
(-2.41243e-300 -8.63862e-302 0)
(-6.01144e-299 -6.65651e-298 0)
(-4.86378e-300 -1.79922e-297 0)
(-6.79764e-299 -2.71673e-297 0)
(-2.57477e-298 -3.39906e-297 0)
(-5.75431e-298 -3.89069e-297 0)
(-1.02764e-297 -4.2515e-297 0)
(-1.63306e-297 -4.53101e-297 0)
(-2.42329e-297 -4.75302e-297 0)
(-3.4372e-297 -4.91034e-297 0)
(-4.71525e-297 -4.96176e-297 0)
(-6.29322e-297 -4.83531e-297 0)
(-8.20355e-297 -4.4322e-297 0)
(-1.03875e-296 -3.70447e-297 0)
(-2.24032e-297 -9.1396e-298 0)
(-8.79317e-298 -3.14397e-298 0)
(-4.14406e-298 -1.26403e-298 0)
(-2.12062e-298 -5.32862e-299 0)
(-1.10576e-298 -2.25536e-299 0)
(-5.68785e-299 -9.35047e-300 0)
(-2.83134e-299 -3.74629e-300 0)
(-1.34759e-299 -1.44048e-300 0)
(-6.0534e-300 -5.27346e-301 0)
(-2.44782e-300 -1.73422e-301 0)
(1.19344e-298 -1.02561e-297 0)
(3.8205e-298 -2.57688e-297 0)
(3.4189e-298 -3.75467e-297 0)
(9.64234e-299 -4.57803e-297 0)
(-2.95605e-298 -5.14657e-297 0)
(-8.15726e-298 -5.56367e-297 0)
(-1.48283e-297 -5.90561e-297 0)
(-2.34116e-297 -6.21186e-297 0)
(-3.44835e-297 -6.47928e-297 0)
(-4.863e-297 -6.66298e-297 0)
(-6.63426e-297 -6.68114e-297 0)
(-8.80215e-297 -6.43217e-297 0)
(-1.12942e-296 -5.87822e-297 0)
(-2.34695e-297 -1.36031e-297 0)
(-9.27951e-298 -4.30307e-298 0)
(-4.33281e-298 -1.64897e-298 0)
(-2.18869e-298 -6.8483e-299 0)
(-1.12627e-298 -2.92011e-299 0)
(-5.72344e-299 -1.23808e-299 0)
(-2.81854e-299 -5.12814e-300 0)
(-1.32899e-299 -2.05513e-300 0)
(-5.92239e-300 -7.88986e-301 0)
(-2.37908e-300 -2.74591e-301 0)
(8.42533e-298 -1.57145e-297 0)
(1.2791e-297 -3.72219e-297 0)
(1.09719e-297 -5.15538e-297 0)
(6.62694e-298 -6.08084e-297 0)
(1.25521e-298 -6.69282e-297 0)
(-4.8201e-298 -7.14635e-297 0)
(-1.19566e-297 -7.54821e-297 0)
(-2.08982e-297 -7.95257e-297 0)
(-3.25596e-297 -8.36142e-297 0)
(-4.7838e-297 -8.72295e-297 0)
(-6.73958e-297 -8.94004e-297 0)
(-9.15024e-297 -8.90327e-297 0)
(-1.1916e-296 -8.61784e-297 0)
(-2.43852e-297 -1.50981e-297 0)
(-9.29301e-298 -4.54451e-298 0)
(-4.23077e-298 -1.78254e-298 0)
(-2.10092e-298 -7.66237e-299 0)
(-1.06747e-298 -3.37787e-299 0)
(-5.3692e-299 -1.47793e-299 0)
(-2.62081e-299 -6.30948e-300 0)
(-1.22619e-299 -2.60366e-300 0)
(-5.42724e-300 -1.02833e-300 0)
(-2.1668e-300 -3.6879e-301 0)
(3.45958e-297 -2.63868e-297 0)
(3.01929e-297 -5.21784e-297 0)
(2.21681e-297 -6.84192e-297 0)
(1.37846e-297 -7.83368e-297 0)
(6.21866e-298 -8.47078e-297 0)
(-6.83453e-299 -8.95588e-297 0)
(-7.81053e-298 -9.42155e-297 0)
(-1.64415e-297 -9.93681e-297 0)
(-2.80462e-297 -1.05072e-296 0)
(-4.40537e-297 -1.10749e-296 0)
(-6.54676e-297 -1.15261e-296 0)
(-9.20773e-297 -1.17008e-296 0)
(-3.08145e-297 -2.99892e-297 0)
(-1.32909e-297 -9.64816e-298 0)
(-6.35569e-298 -3.7946e-298 0)
(-3.23559e-298 -1.6632e-298 0)
(-1.69207e-298 -7.60539e-299 0)
(-8.81674e-299 -3.49192e-299 0)
(-4.4861e-299 -1.57447e-299 0)
(-2.19944e-299 -6.88646e-300 0)
(-1.02974e-299 -2.90029e-300 0)
(-4.55175e-300 -1.16576e-300 0)
(-1.81155e-300 -4.25029e-301 0)
(4.57027e-298 -9.47702e-298 0)
(3.08867e-298 -1.61829e-297 0)
(2.42621e-298 -1.86012e-297 0)
(1.60515e-298 -2.01517e-297 0)
(6.18136e-299 -2.1209e-297 0)
(-5.2336e-299 -2.19917e-297 0)
(-1.92249e-298 -2.26718e-297 0)
(-3.80345e-298 -2.33363e-297 0)
(-6.46478e-298 -2.39569e-297 0)
(-1.01337e-297 -2.43695e-297 0)
(-1.44635e-297 -2.43049e-297 0)
(-1.57643e-297 -2.4428e-297 0)
(-9.83333e-298 -1.32595e-297 0)
(-6.15134e-298 -6.13819e-298 0)
(-3.63641e-298 -2.88605e-298 0)
(-2.09571e-298 -1.38804e-298 0)
(-1.17669e-298 -6.70237e-299 0)
(-6.38932e-299 -3.18917e-299 0)
(-3.32926e-299 -1.47579e-299 0)
(-1.65442e-299 -6.58425e-300 0)
(-7.80281e-300 -2.81662e-300 0)
(-3.46109e-300 -1.14631e-300 0)
(-1.3769e-300 -4.22034e-301 0)
(-5.46959e-299 -2.70644e-298 0)
(-4.85409e-299 -6.36942e-298 0)
(-3.10813e-299 -7.85232e-298 0)
(-1.8827e-299 -8.57813e-298 0)
(-2.18562e-299 -8.96405e-298 0)
(-4.0998e-299 -9.19848e-298 0)
(-7.77982e-299 -9.3706e-298 0)
(-1.36282e-298 -9.51216e-298 0)
(-2.2145e-298 -9.61964e-298 0)
(-3.32218e-298 -9.68322e-298 0)
(-4.44566e-298 -9.7254e-298 0)
(-4.65198e-298 -9.42523e-298 0)
(-3.83413e-298 -6.39997e-298 0)
(-2.88496e-298 -3.6566e-298 0)
(-1.95965e-298 -1.97142e-298 0)
(-1.23962e-298 -1.03039e-298 0)
(-7.39452e-299 -5.23699e-299 0)
(-4.17467e-299 -2.57688e-299 0)
(-2.22978e-299 -1.2204e-299 0)
(-1.12545e-299 -5.53688e-300 0)
(-5.35952e-300 -2.39865e-300 0)
(-2.39054e-300 -9.85486e-301 0)
(-9.51662e-301 -3.64875e-301 0)
(-4.50102e-299 -7.54536e-299 0)
(-5.42773e-299 -2.56533e-298 0)
(-5.01636e-299 -3.5783e-298 0)
(-3.79288e-299 -4.09639e-298 0)
(-2.96351e-299 -4.34896e-298 0)
(-2.95347e-299 -4.47157e-298 0)
(-3.92867e-299 -4.53559e-298 0)
(-5.98505e-299 -4.57245e-298 0)
(-9.14339e-299 -4.59301e-298 0)
(-1.31089e-298 -4.60221e-298 0)
(-1.6813e-298 -4.58574e-298 0)
(-1.80398e-298 -4.3365e-298 0)
(-1.66955e-298 -3.27991e-298 0)
(-1.38367e-298 -2.11664e-298 0)
(-1.02311e-298 -1.25069e-298 0)
(-6.89971e-299 -6.9619e-299 0)
(-4.3077e-299 -3.69064e-299 0)
(-2.50904e-299 -1.86776e-299 0)
(-1.3685e-299 -9.01649e-300 0)
(-7.00426e-300 -4.14643e-300 0)
(-3.36604e-300 -1.81398e-300 0)
(-1.50962e-300 -7.5043e-301 0)
(-6.01188e-301 -2.78516e-301 0)
(-1.9105e-299 -2.31862e-299 0)
(-2.93569e-299 -1.04435e-298 0)
(-3.20997e-299 -1.66161e-298 0)
(-2.74675e-299 -2.02696e-298 0)
(-2.18635e-299 -2.21877e-298 0)
(-1.91221e-299 -2.31051e-298 0)
(-2.10394e-299 -2.35115e-298 0)
(-2.82121e-299 -2.36759e-298 0)
(-4.03053e-299 -2.37233e-298 0)
(-5.55348e-299 -2.36793e-298 0)
(-6.98347e-299 -2.33345e-298 0)
(-7.73193e-299 -2.17058e-298 0)
(-7.61391e-299 -1.72372e-298 0)
(-6.67119e-299 -1.19166e-298 0)
(-5.19564e-299 -7.47064e-299 0)
(-3.6564e-299 -4.34861e-299 0)
(-2.35708e-299 -2.37927e-299 0)
(-1.40463e-299 -1.23043e-299 0)
(-7.78421e-300 -6.02838e-300 0)
(-4.02765e-300 -2.80076e-300 0)
(-1.94955e-300 -1.23396e-300 0)
(-8.78063e-301 -5.12788e-301 0)
(-3.49403e-301 -1.90246e-301 0)
(-7.25704e-300 -7.69945e-300 0)
(-1.33172e-299 -4.22848e-299 0)
(-1.63418e-299 -7.61187e-299 0)
(-1.54973e-299 -9.94148e-299 0)
(-1.30142e-299 -1.13061e-298 0)
(-1.10981e-299 -1.20097e-298 0)
(-1.1067e-299 -1.23289e-298 0)
(-1.3428e-299 -1.24485e-298 0)
(-1.80357e-299 -1.24647e-298 0)
(-2.40947e-299 -1.2386e-298 0)
(-3.01258e-299 -1.20684e-298 0)
(-3.4232e-299 -1.10907e-298 0)
(-3.5e-299 -9.01302e-299 0)
(-3.17504e-299 -6.48066e-299 0)
(-2.5562e-299 -4.21876e-299 0)
(-1.85001e-299 -2.53154e-299 0)
(-1.2187e-299 -1.41655e-299 0)
(-7.37876e-300 -7.44224e-300 0)
(-4.13522e-300 -3.68575e-300 0)
(-2.15596e-300 -1.72471e-300 0)
(-1.04869e-300 -7.6338e-301 0)
(-4.73524e-301 -3.17975e-301 0)
(-1.88001e-301 -1.17641e-301 0)
(-2.62627e-300 -2.66851e-300 0)
(-5.4982e-300 -1.68936e-299 0)
(-7.32359e-300 -3.39496e-299 0)
(-7.55947e-300 -4.74053e-299 0)
(-6.72074e-300 -5.61557e-299 0)
(-5.7849e-300 -6.10712e-299 0)
(-5.49934e-300 -6.34611e-299 0)
(-6.2223e-300 -6.4397e-299 0)
(-7.95649e-300 -6.44903e-299 0)
(-1.04093e-299 -6.37831e-299 0)
(-1.3043e-299 -6.15128e-299 0)
(-1.51264e-299 -5.59816e-299 0)
(-1.58503e-299 -4.59565e-299 0)
(-1.47194e-299 -3.37869e-299 0)
(-1.21131e-299 -2.25202e-299 0)
(-8.9303e-300 -1.37899e-299 0)
(-5.96863e-300 -7.83715e-300 0)
(-3.65235e-300 -4.16335e-300 0)
(-2.06194e-300 -2.07723e-300 0)
(-1.08012e-300 -9.76515e-301 0)