/*--------------------------------*- C++ -*----------------------------------*\
| =========                 |                                                 |
| \\      /  F ield         | OpenFOAM: The Open Source CFD Toolbox           |
|  \\    /   O peration     | Version:  2406                                  |
|   \\  /    A nd           | Website:  www.openfoam.com                      |
|    \\/     M anipulation  |                                                 |
\*---------------------------------------------------------------------------*/
FoamFile
{
    version     2.0;
    format      ascii;
    arch        "LSB;label=32;scalar=64";
    class       surfaceScalarField;
    location    "7";
    object      alphaPhi0.grout;
}
// * * * * * * * * * * * * * * * * * * * * * * * * * * * * * * * * * * * * * //

dimensions      [0 3 -1 0 0 0 0];

oriented        oriented;

internalField   nonuniform List<scalar> 
19800
(
-2.70807e-14
4.65401e-14
-5.31195e-14
6.03748e-14
-9.15047e-14
5.70654e-14
-9.35399e-14
8.72051e-14
-5.99147e-14
1.21198e-13
-6.44013e-15
1.31834e-13
4.99654e-14
1.22464e-13
1.13103e-13
1.00475e-13
1.78001e-13
6.73788e-14
2.33245e-13
2.76779e-14
2.72321e-13
-1.09682e-14
2.9422e-13
-4.48298e-14
2.98201e-13
-7.55742e-14
2.84353e-13
-1.06008e-13
2.54592e-13
-1.37579e-13
2.11403e-13
-1.70012e-13
1.57083e-13
-2.01386e-13
9.44381e-14
-2.28691e-13
2.72521e-14
-2.49195e-13
-4.03287e-14
-2.61629e-13
-1.04588e-13
-2.66152e-13
-1.62234e-13
-2.63522e-13
-2.09781e-13
-2.54449e-13
-2.43324e-13
-2.39639e-13
-2.5924e-13
-2.20036e-13
-2.55386e-13
-1.96785e-13
-2.31959e-13
-1.70886e-13
-1.91576e-13
-1.42941e-13
-1.38701e-13
-1.13203e-13
-7.8759e-14
-8.18978e-14
-1.72015e-14
-4.95831e-14
4.13307e-14
-1.74098e-14
9.36065e-14
1.28146e-14
1.38028e-13
3.87812e-14
1.74434e-13
5.80463e-14
2.03595e-13
6.84984e-14
2.26588e-13
6.87614e-14
2.4426e-13
5.83954e-14
2.56877e-13
3.78741e-14
2.64004e-13
8.434e-15
2.64593e-13
-2.8082e-14
2.57247e-13
-6.93227e-14
2.40595e-13
-1.12501e-13
2.13732e-13
-1.5452e-13
1.76621e-13
-1.92206e-13
1.30385e-13
-2.2263e-13
7.74279e-14
-2.43463e-13
2.1355e-14
-2.53309e-13
-3.33076e-14
-2.51963e-13
-8.16048e-14
-2.40585e-13
-1.18822e-13
-2.21739e-13
-1.41263e-13
-1.99211e-13
-1.46985e-13
-1.77566e-13
-1.36301e-13
-1.61449e-13
-1.11873e-13
-1.54781e-13
-7.83125e-14
-1.60034e-13
-4.13688e-14
-1.7778e-13
-6.87206e-15
-2.06602e-13
2.03112e-14
-2.43357e-13
3.71046e-14
-2.83688e-13
4.26912e-14
-3.22674e-13
3.85755e-14
-3.55512e-13
2.82482e-14
-3.7819e-13
1.65101e-14
-3.88066e-13
8.54642e-15
-3.84294e-13
8.88317e-15
-3.68006e-13
2.03998e-14
-3.42178e-13
4.35893e-14
-3.11177e-13
7.6235e-14
-2.80047e-13
1.13607e-13
-2.53666e-13
1.49175e-13
-2.35925e-13
1.75739e-13
-2.29078e-13
1.86761e-13
-2.33368e-13
1.77646e-13
-2.46979e-13
1.46717e-13
-2.66363e-13
9.5639e-14
-2.86843e-13
2.92275e-14
-3.03509e-13
-4.53491e-14
-3.12149e-13
-1.19758e-13
-3.10153e-13
-1.85786e-13
-2.9704e-13
-2.36442e-13
-2.746e-13
-2.66659e-13
-2.4641e-13
-2.73608e-13
-2.17055e-13
-2.56739e-13
-1.9103e-13
-2.17762e-13
-1.71902e-13
-1.60638e-13
-1.61679e-13
-9.15516e-14
-1.60823e-13
-1.85863e-14
-1.6862e-13
4.90878e-14
-1.84116e-13
1.02735e-13
-2.07007e-13
1.36067e-13
-2.38084e-13
1.47118e-13
-2.78337e-13
1.38229e-13
-3.26618e-13
1.12309e-13
-3.77339e-13
6.64716e-14
-4.20237e-13
-8.45608e-15
-4.44404e-13
-1.08189e-13
-4.40105e-13
-1.77755e-13
-3.86811e-13
-7.61204e-15
-2.62567e-13
-9.5886e-14
-4.78597e-14
2.54833e-14
-9.89377e-14
1.37717e-14
-1.29582e-13
-5.5154e-14
-1.41873e-13
-8.76852e-14
-1.18557e-13
-7.47139e-14
-5.757e-14
-5.05423e-14
1.75079e-14
-3.33712e-14
1.04874e-13
-2.4063e-14
2.00777e-13
-1.874e-14
2.90688e-13
-1.46878e-14
3.60782e-13
-1.03918e-14
4.04239e-13
-5.61232e-15
4.18758e-13
-1.66453e-15
4.05295e-13
-9.78566e-16
3.67712e-13
-6.01009e-15
3.10759e-13
-1.843e-14
2.38535e-13
-3.8657e-14
1.5478e-13
-6.59222e-14
6.37633e-14
-9.87518e-14
-2.95653e-14
-1.35409e-13
-1.20046e-13
-1.74111e-13
-2.02476e-13
-2.1297e-13
-2.71263e-13
-2.49974e-13
-3.20298e-13
-2.83034e-13
-3.43795e-13
-3.10136e-13
-3.37904e-13
-3.29438e-13
-3.02145e-13
-3.39363e-13
-2.39886e-13
-3.38701e-13
-1.57765e-13
-3.26791e-13
-6.44212e-14
-3.03688e-13
3.10329e-14
-2.70268e-13
1.2052e-13
-2.28231e-13
1.98199e-13
-1.80047e-13
2.61099e-13
-1.28858e-13
3.08993e-13
-7.82905e-14
3.43625e-13
-3.21183e-14
3.67577e-13
6.19017e-15
3.83202e-13
3.39604e-14
3.91899e-13
4.96779e-14
3.9385e-13
5.31252e-14
3.88139e-13
4.52693e-14
3.73142e-13
2.79682e-14
3.47073e-13
3.60147e-15
3.08578e-13
-2.52869e-14
2.57308e-13
-5.62881e-14
1.94356e-13
-8.73669e-14
1.22487e-13
-1.17045e-13
4.60879e-14
-1.44527e-13
-2.9189e-14
-1.69745e-13
-9.70385e-14
-1.93293e-13
-1.51337e-13
-2.16232e-13
-1.87091e-13
-2.39775e-13
-2.01357e-13
-2.64898e-13
-1.93926e-13
-2.91995e-13
-1.67558e-13
-3.20653e-13
-1.27637e-13
-3.49659e-13
-8.12499e-14
-3.7723e-13
-3.58774e-14
-4.01405e-13
2.00876e-15
-4.20468e-13
2.81183e-14
-4.33276e-13
4.1051e-14
-4.39385e-13
4.24268e-14
-4.38979e-13
3.6446e-14
-4.32672e-13
2.89793e-14
-4.21269e-13
2.63394e-14
-4.05581e-13
3.39284e-14
-3.86344e-13
5.49827e-14
-3.64224e-13
8.96517e-14
-3.39886e-13
1.34618e-13
-3.14083e-13
1.83393e-13
-2.87732e-13
2.27292e-13
-2.61954e-13
2.56948e-13
-2.38063e-13
2.64079e-13
-2.17493e-13
2.43156e-13
-2.01685e-13
1.92584e-13
-1.91921e-13
1.15148e-13
-1.89198e-13
1.76098e-14
-1.94104e-13
-9.03999e-14
-2.06798e-13
-1.97891e-13
-2.26981e-13
-2.94035e-13
-2.53971e-13
-3.69384e-13
-2.86689e-13
-4.16666e-13
-3.23777e-13
-4.31239e-13
-3.63626e-13
-4.11438e-13
-4.04603e-13
-3.58925e-13
-4.45129e-13
-2.79064e-13
-4.83833e-13
-1.81027e-13
-5.19388e-13
-7.73724e-14
-5.50482e-13
1.74431e-14
-5.75767e-13
8.97275e-14
-5.94153e-13
1.30422e-13
-6.04709e-13
1.38421e-13
-6.05891e-13
1.20513e-13
-5.94882e-13
8.48512e-14
-5.69884e-13
3.23603e-14
-5.37392e-13
-4.47079e-14
-5.19367e-13
-1.37659e-13
-5.42489e-13
-1.73077e-13
-5.95162e-13
5.12408e-14
-5.81714e-13
-3.54525e-13
-6.06029e-14
1.55183e-15
-1.77071e-13
-6.60693e-15
-2.12751e-13
-6.93126e-14
-2.30961e-13
-1.13115e-13
-2.32721e-13
-1.10049e-13
-2.04723e-13
-8.28581e-14
-1.60455e-13
-5.33412e-14
-9.66795e-14
-3.06586e-14
-1.61464e-14
-1.70736e-14
6.68051e-14
-1.05618e-14
1.38061e-13
-7.75295e-15
1.8996e-13
-6.50995e-15
2.18871e-13
-7.17547e-15
2.2472e-13
-1.18868e-14
2.10868e-13
-2.37361e-14
1.81871e-13
-4.56551e-14
1.41312e-13
-7.92516e-14
9.17328e-14
-1.24236e-13
3.56461e-14
-1.78615e-13
-2.39671e-14
-2.3932e-13
-8.37812e-14
-3.02703e-13
-1.4009e-13
-3.64911e-13
-1.88352e-13
-4.22186e-13
-2.2303e-13
-4.71257e-13
-2.38422e-13
-5.09575e-13
-2.30341e-13
-5.35345e-13
-1.97682e-13
-5.47335e-13
-1.43079e-13
-5.44738e-13
-7.24574e-14
-5.27158e-13
6.14598e-15
-4.94744e-13
8.40833e-14
-4.48347e-13
1.53609e-13
-3.89697e-13
2.09152e-13
-3.21552e-13
2.48093e-13
-2.478e-13
2.7083e-13
-1.73355e-13
2.80142e-13
-1.0375e-13
2.80063e-13
-4.44269e-14
2.74653e-13
1.1534e-16
2.67006e-13
2.70563e-14
2.58699e-13
3.56361e-14
2.49714e-13
2.70929e-14
2.38729e-13
4.21653e-15
2.23653e-13
-2.93151e-14
2.02253e-13
-6.96303e-14
1.72771e-13
-1.1325e-13
1.34433e-13
-1.57496e-13
8.77778e-14
-2.00702e-13
3.47733e-14
-2.42246e-13
-2.12852e-14
-2.82429e-13
-7.60885e-14
-3.22206e-13
-1.2483e-13
-3.62823e-13
-1.62906e-13
-4.05376e-13
-1.86716e-13
-4.50387e-13
-1.9442e-13
-4.97465e-13
-1.86433e-13
-5.45172e-13
-1.65463e-13
-5.91135e-13
-1.36015e-13
-6.32407e-13
-1.03439e-13
-6.66008e-13
-7.27783e-14
-6.89472e-13
-4.76884e-14
-7.01275e-13
-2.97248e-14
-7.01018e-13
-1.8122e-14
-6.89365e-13
-1.0088e-14
-6.6777e-13
-1.52135e-15
-6.3814e-13
1.2006e-14
-6.02506e-13
3.41723e-14
-5.62804e-13
6.69275e-14
-5.20764e-13
1.09786e-13
-4.77909e-13
1.59557e-13
-4.35611e-13
2.10611e-13
-3.95178e-13
2.55695e-13
-3.57919e-13
2.87168e-13
-3.25177e-13
2.98439e-13
-2.98309e-13
2.8527e-13
-2.78602e-13
2.46656e-13
-2.67192e-13
1.85043e-13
-2.64945e-13
1.05895e-13
-2.72405e-13
1.67448e-14
-2.89732e-13
-7.39419e-14
-3.16681e-13
-1.57807e-13
-3.52524e-13
-2.27339e-13
-3.96032e-13
-2.7637e-13
-4.45464e-13
-3.00463e-13
-4.98781e-13
-2.9739e-13
-5.53895e-13
-2.67724e-13
-6.09047e-13
-2.15378e-13
-6.6282e-13
-1.47867e-13
-7.13918e-13
-7.58779e-14
-7.60574e-13
-1.18199e-14
-8.00328e-13
3.33272e-14
-8.30112e-13
5.41012e-14
-8.46567e-13
5.31616e-14
-8.45409e-13
3.761e-14
-8.20715e-13
1.04606e-14
-7.67597e-13
-3.16458e-14
-6.93181e-13
-8.34506e-14
-6.34694e-13
-1.25327e-13
-6.58409e-13
-1.10787e-13
-7.86372e-13
6.10195e-14
-8.49722e-13
-5.49334e-13
-4.38095e-14
8.46449e-16
-2.15094e-13
-1.0622e-14
-2.77146e-13
-5.91649e-14
-3.10947e-13
-9.44885e-14
-3.3489e-13
-8.49508e-14
-3.35841e-13
-4.92658e-14
-3.24522e-13
-1.23456e-14
-2.93315e-13
1.36847e-14
-2.3994e-13
2.5844e-14
-1.75959e-13
2.57103e-14
-1.14385e-13
1.75503e-14
-6.3577e-14
4.94903e-15
-2.83006e-14
-1.07453e-14
-9.80841e-15
-3.03072e-14
-5.28728e-15
-5.62068e-14
-1.00755e-14
-9.1642e-14
-2.04271e-14
-1.38977e-13
-3.42733e-14
-1.98441e-13
-5.04707e-14
-2.67797e-13
-6.80928e-14
-3.42826e-13
-8.62139e-14
-4.18278e-13
-1.03627e-13
-4.8886e-13
-1.18205e-13
-5.50098e-13
-1.26471e-13
-5.98837e-13
-1.2411e-13
-6.33327e-13
-1.07444e-13
-6.52857e-13
-7.50401e-14
-6.57241e-13
-2.85891e-14
-6.46394e-13
2.72434e-14
-6.20243e-13
8.57459e-14
-5.78895e-13
1.39459e-13
-5.22978e-13
1.81554e-13
-4.53992e-13
2.07103e-13
-3.74627e-13
2.14012e-13
-2.88941e-13
2.03392e-13
-2.02315e-13
1.79209e-13
-1.21029e-13
1.47278e-13
-5.14802e-14
1.13908e-13
8.46405e-16
8.45606e-14
3.23601e-14
6.2864e-14
4.19952e-14
5.01565e-14
3.12865e-14
4.55547e-14
3.87496e-15
4.64244e-14
-3.53842e-14
4.90787e-14
-8.14415e-14
4.95417e-14
-1.29938e-13
4.42491e-14
-1.77785e-13
3.06101e-14
-2.23387e-13
7.40112e-15
-2.66553e-13
-2.50148e-14
-3.08188e-13
-6.46514e-14
-3.49862e-13
-1.0808e-13
-3.93321e-13
-1.50872e-13
-4.40007e-13
-1.88297e-13
-4.90624e-13
-2.16188e-13
-5.44824e-13
-2.31752e-13
-6.01051e-13
-2.341e-13
-6.56617e-13
-2.24288e-13
-7.08009e-13
-2.04864e-13
-7.51382e-13
-1.7906e-13
-7.83139e-13
-1.49888e-13
-8.00482e-13
-1.19426e-13
-8.0181e-13
-8.84631e-14
-7.869e-13
-5.65518e-14
-7.56874e-13
-2.23932e-14
-7.1399e-13
1.55716e-14
-6.61326e-13
5.85125e-14
-6.02442e-13
1.06622e-13
-5.41047e-13
1.58711e-13
-4.80714e-13
2.1206e-13
-4.24632e-13
2.62622e-13
-3.75413e-13
3.0556e-13
-3.34946e-13
3.36057e-13
-3.04314e-13
3.50217e-13
-2.83793e-13
3.4584e-13
-2.72946e-13
3.22831e-13
-2.70798e-13
2.83158e-13
-2.76113e-13
2.3039e-13
-2.87662e-13
1.6904e-13
-3.0449e-13
1.03937e-13
-3.26013e-13
3.98513e-14
-3.51995e-13
-1.86835e-14
-3.82353e-13
-6.74618e-14
-4.17015e-13
-1.02883e-13
-4.5584e-13
-1.22437e-13
-4.98801e-13
-1.25347e-13
-5.46076e-13
-1.13141e-13
-5.97983e-13
-8.99838e-14
-6.54288e-13
-6.26339e-14
-7.13364e-13
-3.92653e-14
-7.71452e-13
-2.64938e-14
-8.22994e-13
-2.468e-14
-8.61635e-13
-2.63635e-14
-8.81556e-13
-2.37916e-14
-8.77855e-13
-2.28313e-14
-8.46747e-13
-3.88727e-14
-7.89697e-13
-6.67549e-14
-7.32709e-13
-8.06808e-14
-7.46609e-13
-3.70757e-14
-8.85391e-13
4.87711e-14
-9.81869e-13
-6.54911e-13
-1.45367e-14
1.13738e-14
-1.94314e-13
-8.94787e-15
-2.76596e-13
-6.71379e-14
-3.2143e-13
-1.01555e-13
-3.54624e-13
-8.34283e-14
-3.66615e-13
-3.51901e-14
-3.70739e-13
1.16872e-14
-3.58234e-13
4.32864e-14
-3.24428e-13
5.64151e-14
-2.7765e-13
5.25445e-14
-2.29897e-13
3.61139e-14
-1.89621e-13
1.16627e-14
-1.62081e-13
-1.80859e-14
-1.49067e-13
-5.23823e-14
-1.47849e-13
-9.25176e-14
-1.5285e-13
-1.41093e-13
-1.58719e-13
-2.00185e-13
-1.61907e-13
-2.69684e-13
-1.6064e-13
-3.46731e-13
-1.54533e-13
-4.26342e-13
-1.44325e-13
-5.02602e-13
-1.31289e-13
-5.69943e-13
-1.16125e-13
-6.24123e-13
-9.79621e-14
-6.6275e-13
-7.43717e-14
-6.85227e-13
-4.25873e-14
-6.92224e-13
-1.2047e-15
-6.84935e-13
4.86244e-14
-6.64486e-13
1.02985e-13
-6.31689e-13
1.55858e-13
-5.8715e-13
2.00267e-13
-5.31569e-13
2.29593e-13
-4.66093e-13
2.38897e-13
-3.92646e-13
2.26048e-13
-3.14185e-13
1.92389e-13
-2.34787e-13
1.42707e-13
-1.59449e-13
8.44161e-14
-9.35346e-14
2.61106e-14
-4.19165e-14
-2.41307e-14
-8.05707e-15
-6.02661e-14
6.68429e-15
-7.92817e-14
3.26267e-15
-8.14869e-14
-1.54028e-14
-7.01486e-14
-4.52268e-14
-5.06437e-14
-8.19482e-14
-2.93758e-14
-1.22019e-13
-1.26895e-14
-1.63172e-13
-5.94245e-15
-2.04567e-13
-1.28092e-14
-2.46559e-13
-3.48246e-14
-2.90218e-13
-7.11631e-14
-3.36779e-13
-1.18682e-13
-3.87156e-13
-1.72289e-13
-4.41591e-13
-2.25665e-13
-4.99478e-13
-2.7228e-13
-5.59295e-13
-3.06497e-13
-6.18653e-13
-3.24495e-13
-6.74427e-13
-3.24747e-13
-7.23009e-13
-3.0794e-13
-7.60666e-13
-2.76427e-13
-7.84014e-13
-2.33421e-13
-7.90496e-13
-1.82214e-13
-7.78805e-13
-1.25633e-13
-7.49131e-13
-6.58061e-14
-7.03201e-13
-4.21826e-15
-6.44103e-13
5.80541e-14
-5.75944e-13
1.2003e-13
-5.03426e-13
1.80534e-13
-4.31375e-13
2.37981e-13
-3.64297e-13
2.90315e-13
-3.05965e-13
3.35106e-13
-2.59086e-13
3.69854e-13
-2.25074e-13
3.92411e-13
-2.03968e-13
4.01433e-13
-1.94534e-13
3.96673e-13
-1.94545e-13
3.79022e-13
-2.01224e-13
3.50228e-13
-2.1176e-13
3.12466e-13
-2.23822e-13
2.67914e-13
-2.35934e-13
2.18604e-13
-2.47647e-13
1.66519e-13
-2.59449e-13
1.13877e-13
-2.72511e-13
6.3229e-14
-2.88353e-13
1.72884e-14
-3.08677e-13
-2.15408e-14
-3.35306e-13
-5.16088e-14
-3.70217e-13
-7.23482e-14
-4.15199e-13
-8.45499e-14
-4.71091e-13
-9.06655e-14
-5.36479e-13
-9.46088e-14
-6.06722e-13
-9.94311e-14
-6.73681e-13
-1.03122e-13
-7.27306e-13
-9.64876e-14
-7.59062e-13
-7.14359e-14
-7.66579e-13
-3.58437e-14
-7.53904e-13
-1.0957e-14
-7.25613e-13
3.80967e-16
-6.94449e-13
1.08263e-15
-7.14728e-13
3.8198e-14
-8.4065e-13
1.72584e-14
-9.39871e-13
-6.35569e-13
7.12357e-15
1.68622e-14
-1.56182e-13
-1.55168e-14
-2.38041e-13
-9.0608e-14
-2.85647e-13
-1.31973e-13
-3.18015e-13
-1.08159e-13
-3.3029e-13
-4.79872e-14
-3.37624e-13
9.05356e-15
-3.33093e-13
4.6728e-14
-3.11724e-13
6.26033e-14
-2.79854e-13
5.85844e-14
-2.48034e-13
3.89505e-14
-2.24266e-13
7.81935e-15
-2.1341e-13
-3.20103e-14
-2.17292e-13
-7.86405e-14
-2.3292e-13
-1.31384e-13
-2.53291e-13
-1.90723e-13
-2.70562e-13
-2.57133e-13
-2.7861e-13
-3.2957e-13
-2.74007e-13
-4.04879e-13
-2.56181e-13
-4.78221e-13
-2.2714e-13
-5.44156e-13
-1.90533e-13
-5.97824e-13
-1.49967e-13
-6.35936e-13
-1.07355e-13
-6.57312e-13
-6.23684e-14
-6.62841e-13
-1.33986e-14
-6.54863e-13
4.06788e-14
-6.36275e-13
9.89928e-14
-6.09708e-13
1.58135e-13
-5.77087e-13
2.12575e-13
-5.39578e-13
2.5568e-13
-4.97775e-13
2.80977e-13
-4.51958e-13
2.83476e-13
-4.0237e-13
2.60889e-13
-3.49514e-13
2.14518e-13
-2.94479e-13
1.49507e-13
-2.39166e-13
7.42475e-14
-1.86292e-13
-1.03555e-15
-1.39057e-13
-6.62308e-14
-1.00551e-13
-1.1332e-13
-7.30819e-14
-1.37885e-13
-5.77179e-14
-1.39797e-13
-5.42021e-14
-1.22981e-13
-6.12806e-14
-9.44127e-14
-7.72887e-14
-6.26635e-14
-1.00758e-13
-3.63455e-14
-1.30812e-13
-2.27588e-14
-1.67232e-13
-2.69043e-14
-2.1019e-13
-5.09041e-14
-2.59809e-13
-9.38006e-14
-3.15699e-13
-1.51704e-13
-3.76663e-13
-2.18285e-13
-4.40624e-13
-2.85627e-13
-5.04778e-13
-3.45362e-13
-5.65854e-13
-3.89943e-13
-6.20416e-13
-4.13771e-13
-6.65122e-13
-4.13928e-13
-6.9694e-13
-3.90331e-13
-7.13354e-13
-3.45352e-13
-7.12599e-13
-2.83046e-13
-6.93898e-13
-2.08278e-13
-6.57671e-13
-1.25962e-13
-6.05642e-13
-4.05549e-14
-5.40792e-13
4.41741e-14
-4.6714e-13
1.25176e-13
-3.89391e-13
2.00036e-13
-3.12494e-13
2.66854e-13
-2.41178e-13
3.24134e-13
-1.79502e-13
3.70723e-13
-1.30468e-13
4.05818e-13
-9.5714e-14
4.2903e-13
-7.53442e-14
4.40497e-13
-6.79416e-14
4.40951e-13
-7.07943e-14
4.31666e-13
-8.03386e-14
4.14212e-13
-9.27545e-14
3.90084e-13
-1.04614e-13
3.60298e-13
-1.13435e-13
3.25251e-13
-1.1803e-13
2.84877e-13
-1.18572e-13
2.39157e-13
-1.1641e-13
1.88602e-13
-1.13701e-13
1.34512e-13
-1.1307e-13
7.87556e-14
-1.1735e-13
2.34354e-14
-1.29506e-13
-2.93197e-14
-1.52468e-13
-7.71958e-14
-1.88742e-13
-1.17689e-13
-2.39473e-13
-1.48701e-13
-3.03339e-13
-1.69235e-13
-3.75438e-13
-1.7892e-13
-4.47017e-13
-1.75572e-13
-5.06355e-13
-1.54309e-13
-5.42797e-13
-1.11736e-13
-5.53803e-13
-5.30981e-14
-5.49301e-13
9.85967e-15
-5.42204e-13
6.74277e-14
-5.42194e-13
9.08948e-14
-5.8222e-13
1.03068e-13
-6.94617e-13
-2.8717e-14
-7.8324e-13
-5.30076e-13
1.459e-14
1.9744e-14
-1.24279e-13
-2.77867e-14
-1.95393e-13
-1.18497e-13
-2.42115e-13
-1.69273e-13
-2.71804e-13
-1.41271e-13
-2.83471e-13
-6.79906e-14
-2.91756e-13
3.56363e-15
-2.9138e-13
5.41098e-14
-2.79026e-13
8.09261e-14
-2.60235e-13
8.65204e-14
-2.44872e-13
7.50656e-14
-2.39898e-13
4.988e-14
-2.48585e-13
1.31092e-14
-2.71686e-13
-3.29592e-14
-3.05564e-13
-8.59728e-14
-3.41997e-13
-1.44302e-13
-3.71088e-13
-2.06754e-13
-3.84494e-13
-2.71662e-13
-3.77326e-13
-3.36239e-13
-3.48841e-13
-3.96694e-13
-3.02274e-13
-4.48821e-13
-2.43619e-13
-4.88849e-13
-1.79437e-13
-5.14291e-13
-1.14538e-13
-5.24573e-13
-5.08268e-14
-5.21175e-13
1.21037e-14
-5.07177e-13
7.51725e-14
-4.86372e-13
1.38012e-13
-4.62339e-13
1.98061e-13
-4.37794e-13
2.50741e-13
-4.14329e-13
2.90333e-13
-3.92422e-13
3.11162e-13
-3.71537e-13
3.08805e-13
-3.50285e-13
2.81216e-13
-3.26697e-13
2.29633e-13
-2.98698e-13
1.58993e-13
-2.64754e-13
7.76023e-14
-2.24471e-13
-4.04865e-15
-1.78934e-13
-7.51898e-14
-1.30599e-13
-1.26931e-13
-8.27996e-14
-1.54112e-13
-3.9053e-14
-1.56331e-13
-2.45622e-15
-1.37903e-13
2.46444e-14
-1.06805e-13
4.06658e-14
-7.2957e-14
4.46017e-14
-4.62811e-14
3.58254e-14
-3.4993e-14
1.40428e-14
-4.43948e-14
-2.05524e-14
-7.62671e-14
-6.69907e-14
-1.28805e-13
-1.23258e-13
-1.96987e-13
-1.86199e-13
-2.73285e-13
-2.51682e-13
-3.48652e-13
-3.15e-13
-4.1373e-13
-3.71403e-13
-4.60138e-13
-4.1662e-13
-4.81636e-13
-4.47244e-13
-4.74925e-13
-4.60961e-13
-4.39924e-13
-4.56621e-13
-3.79463e-13
-4.34236e-13
-2.98557e-13
-3.94939e-13
-2.03459e-13
-3.40936e-13
-1.00749e-13
-2.75412e-13
3.37675e-15
-2.02369e-13
1.03556e-13
-1.26366e-13
1.95486e-13
-5.21672e-14
2.7599e-13
1.56673e-14
3.43008e-13
7.32042e-14
3.95533e-13
1.17523e-13
4.33532e-13
1.4703e-13
4.57831e-13
1.61654e-13
4.69975e-13
1.62897e-13
4.72026e-13
1.53673e-13
4.66318e-13
1.37942e-13
4.55098e-13
1.20133e-13
4.40124e-13
1.04458e-13
4.2224e-13
9.4249e-14
4.01161e-13
9.1456e-14
3.75544e-13
9.64372e-14
3.43505e-13
1.0805e-13
3.03324e-13
1.2399e-13
2.54143e-13
1.41194e-13
1.96182e-13
1.56194e-13
1.30612e-13
1.65276e-13
5.9268e-14
1.64579e-13
-1.51563e-14
1.50259e-13
-8.85915e-14
1.19099e-13
-1.55309e-13
6.95014e-14
-2.08718e-13
2.82191e-15
-2.42912e-13
-7.56937e-14
-2.53596e-13
-1.56603e-13
-2.38693e-13
-2.27602e-13
-2.00048e-13
-2.77082e-13
-1.45e-13
-3.01067e-13
-7.87028e-14
-3.08416e-13
4.5027e-15
-3.1564e-13
9.93271e-14
-3.37278e-13
1.53948e-13
-3.95144e-13
1.45052e-13
-4.9601e-13
-7.1748e-14
-5.72277e-13
-3.83287e-13
6.07128e-15
7.64448e-15
-1.02048e-13
-5.19174e-14
-1.61334e-13
-1.53479e-13
-2.05119e-13
-2.11875e-13
-2.3145e-13
-1.80235e-13
-2.43214e-13
-9.60008e-14
-2.52454e-13
-1.0882e-14
-2.54962e-13
5.25532e-14
-2.48957e-13
9.07814e-14
-2.40586e-13
1.07196e-13
-2.39941e-13
1.06672e-13
-2.53082e-13
9.24719e-14
-2.80752e-13
6.60826e-14
-3.21533e-13
2.9621e-14
-3.70738e-13
-1.37227e-14
-4.19417e-13
-6.07436e-14
-4.56606e-13
-1.08913e-13
-4.72706e-13
-1.56157e-13
-4.61916e-13
-2.0049e-13
-4.23383e-13
-2.3981e-13
-3.61234e-13
-2.71942e-13
-2.83348e-13
-2.94899e-13
-1.98854e-13
-3.07394e-13
-1.15285e-13
-3.09435e-13
-3.6773e-14
-3.02676e-13
3.58088e-14
-2.90229e-13
1.03169e-13
-2.75965e-13
1.65569e-13
-2.6358e-13
2.21591e-13
-2.55806e-13
2.68041e-13
-2.53988e-13
3.00698e-13
-2.57955e-13
3.15373e-13
-2.66053e-13
3.08918e-13
-2.75268e-13
2.80088e-13
-2.81486e-13
2.30215e-13
-2.80056e-13
1.63603e-13
-2.66664e-13
8.74297e-14
-2.38364e-13
1.09487e-14
-1.94453e-13
-5.60323e-14
-1.36856e-13
-1.05117e-13
-6.98559e-14
-1.31219e-13
7.23524e-16
-1.33814e-13
6.86183e-14
-1.17153e-13
1.28133e-13
-8.93428e-14
1.74816e-13
-6.05766e-14
2.05733e-13
-4.10077e-14
2.19429e-13
-3.88042e-14
2.15773e-13
-5.87893e-14
1.95832e-13
-1.01837e-13
1.61821e-13
-1.64969e-13
1.17083e-13
-2.41974e-13
6.59675e-14
-3.24356e-13
1.35367e-14
-4.02476e-13
-3.49224e-14
-4.66768e-13
-7.44869e-14
-5.08957e-13
-1.01151e-13
-5.23106e-13
-1.12212e-13
-5.06348e-13
-1.06431e-13
-4.59133e-13
-8.39774e-14
-3.84961e-13
-4.62438e-14
-2.89683e-13
4.38571e-15
-1.80547e-13
6.47502e-14
-6.52202e-14
1.31099e-13
4.90421e-14
1.99279e-13
1.55995e-13
2.64962e-13
2.50762e-13
3.23933e-13
3.30019e-13
3.72439e-13
3.92036e-13
4.07566e-13
4.36643e-13
4.27579e-13
4.65076e-13
4.32198e-13
4.79744e-13
4.22724e-13
4.83857e-13
4.01989e-13
4.8097e-13
3.74088e-13
4.74429e-13
3.43881e-13
4.66826e-13
3.1633e-13
4.59481e-13
2.95756e-13
4.52138e-13
2.85186e-13
4.4292e-13
2.85938e-13
4.28748e-13
2.97538e-13
4.0605e-13
3.17967e-13
3.71694e-13
3.4411e-13
3.23634e-13
3.72241e-13
2.61188e-13
3.98362e-13
1.84842e-13
4.18332e-13
9.62623e-14
4.27873e-13
-1.19427e-15
4.22679e-13
-1.01438e-13
3.9886e-13
-1.95243e-13
3.53936e-13
-2.71355e-13
2.88197e-13
-3.18916e-13
2.06191e-13
-3.30073e-13
1.17287e-13
-3.02816e-13
3.42894e-14
-2.45676e-13
-3.11631e-14
-1.77353e-13
-7.4395e-14
-1.08189e-13
-1.01127e-13
-2.09369e-14
-1.24273e-13
8.9427e-14
-1.60092e-13
1.70727e-13
-2.24181e-13
1.5095e-13
-3.06912e-13
-1.03446e-13
-3.65081e-13
-2.36193e-13
-7.0902e-15
-2.18452e-14
-8.58415e-14
-8.9682e-14
-1.35471e-13
-1.97072e-13
-1.74728e-13
-2.59832e-13
-1.97832e-13
-2.25967e-13
-2.10071e-13
-1.35419e-13
-2.21019e-13
-4.17822e-14
-2.26175e-13
3.00002e-14
-2.24327e-13
7.54158e-14
-2.22682e-13
9.86357e-14
-2.32728e-13
1.05853e-13
-2.60431e-13
1.01038e-13
-3.03899e-13
8.55373e-14
-3.58834e-13
6.0975e-14
-4.1905e-13
3.0732e-14
-4.75201e-13
-1.07498e-15
-5.16235e-13
-3.0849e-14
-5.3244e-13
-5.61263e-14
-5.17909e-13
-7.56231e-14
-4.71854e-13
-8.90014e-14
-3.98875e-13
-9.64228e-14
-3.07922e-13
-9.81862e-14
-2.09851e-13
-9.47245e-14
-1.1427e-13
-8.69958e-14
-2.7204e-14
-7.69325e-14
4.93202e-14
-6.75288e-14
1.15838e-13
-6.23711e-14
1.73342e-13
-6.47895e-14
2.21737e-13
-7.70073e-14
2.59478e-13
-9.95924e-14
2.84129e-13
-1.31276e-13
2.93297e-13
-1.69025e-13
2.85424e-13
-2.08248e-13
2.60311e-13
-2.43144e-13
2.19428e-13
-2.67296e-13
1.66111e-13
-2.74607e-13
1.0559e-13
-2.6049e-13
4.46512e-14
-2.23022e-13
-9.26553e-15
-1.63677e-13
-4.94756e-14
-8.73105e-14
-7.167e-14
-1.34076e-15
-7.52195e-14
8.56436e-14
-6.3672e-14
1.65443e-13
-4.41909e-14
2.31531e-13
-2.60395e-14
2.79794e-13
-1.85368e-14
3.08669e-13
-2.90524e-14
3.18842e-13
-6.15472e-14
3.12735e-13
-1.1593e-13
2.93994e-13
-1.88234e-13
2.6705e-13
-2.71407e-13
2.36754e-13
-3.56452e-13
2.08008e-13
-4.33671e-13
1.8535e-13
-4.93882e-13
1.72519e-13
-5.295e-13
1.72082e-13
-5.35415e-13
1.85218e-13
-5.09558e-13
2.11713e-13
-4.53071e-13
2.50146e-13
-3.70044e-13
2.9819e-13
-2.66867e-13
3.52928e-13
-1.51327e-13
4.11103e-13
-3.16427e-14
4.69286e-13
8.44267e-14
5.23985e-13
1.90276e-13
5.71766e-13
2.80934e-13
6.09425e-13
3.53334e-13
6.3425e-13
4.06415e-13
6.44342e-13
4.41059e-13
6.38946e-13
4.59864e-13
6.18717e-13
4.66728e-13
5.85832e-13
4.66271e-13
5.43911e-13
4.63093e-13
4.97688e-13
4.6102e-13
4.52455e-13
4.62381e-13
4.13344e-13
4.6754e-13
3.84578e-13
4.74714e-13
3.6884e-13
4.8027e-13
3.66942e-13
4.79376e-13
3.77832e-13
4.67013e-13
3.98948e-13
4.38899e-13
4.26748e-13
3.92169e-13
4.57264e-13
3.25435e-13
4.86499e-13
2.38666e-13
5.10605e-13
1.33269e-13
5.25889e-13
1.31026e-14
5.2874e-13
-1.14063e-13
5.15668e-13
-2.35682e-13
4.83647e-13
-3.35669e-13
4.31122e-13
-3.97804e-13
3.59764e-13
-4.10436e-13
2.76343e-13
-3.72318e-13
1.92218e-13
-2.98311e-13
1.18852e-13
-2.16483e-13
6.14611e-14
-1.42774e-13
1.76234e-14
-5.8749e-14
-2.01858e-14
4.83099e-14
-6.39735e-14
1.4344e-13
-1.20652e-13
1.20899e-13
-1.73099e-13
-1.20458e-13
-2.02133e-13
-1.16701e-13
-1.1636e-14
-6.03436e-14
-7.11482e-14
-1.36662e-13
-1.13695e-13
-2.46674e-13
-1.47812e-13
-3.11406e-13
-1.68991e-13
-2.76636e-13
-1.82529e-13
-1.83297e-13
-1.96647e-13
-8.48147e-14
-2.05509e-13
-7.49279e-15
-2.06829e-13
4.29064e-14
-2.08691e-13
7.0678e-14
-2.24736e-13
8.3063e-14
-2.62026e-13
8.5323e-14
-3.16668e-13
7.91026e-14
-3.81235e-13
6.55678e-14
-4.4761e-13
4.76958e-14
-5.06102e-13
2.9877e-14
-5.46284e-13
1.63514e-14
-5.59415e-13
1.00279e-14
-5.40457e-13
1.18881e-14
-4.89162e-13
2.10823e-14
-4.10387e-13
3.5617e-14
-3.13425e-13
5.32386e-14
-2.09875e-13
7.19434e-14
-1.10538e-13
8.98674e-14
-2.27049e-14
1.04807e-13
5.0788e-14
1.13893e-13
1.10514e-13
1.13804e-13
1.58377e-13
1.01492e-13
1.95826e-13
7.50891e-14
2.23156e-13
3.45796e-14
2.39822e-13
-1.79424e-14
2.4521e-13
-7.84022e-14
2.39259e-13
-1.411e-13
2.22688e-13
-1.99195e-13
1.96946e-13
-2.45349e-13
1.64136e-13
-2.726e-13
1.27055e-13
-2.75497e-13
8.92596e-14
-2.51274e-13
5.48821e-14
-2.00752e-13
2.80011e-14
-1.28563e-13
1.15938e-14
-4.25213e-14
6.40002e-15
4.7794e-14
1.01794e-14
1.32853e-13
1.77603e-14
2.0489e-13
2.19989e-14
2.59071e-13
1.54163e-14
2.93887e-13
-7.97604e-15
3.10833e-13
-5.12006e-14
3.13601e-13
-1.13571e-13
3.07125e-13
-1.90785e-13
2.96704e-13
-2.75708e-13
2.87344e-13
-3.59546e-13
2.83299e-13
-4.33117e-13
2.87768e-13
-4.88022e-13
3.027e-13
-5.17599e-13
3.28706e-13
-5.17631e-13
3.65102e-13
-4.86761e-13
4.10111e-13
-4.26597e-13
4.6117e-13
-3.41468e-13
5.15312e-13
-2.3787e-13
5.69487e-13
-1.23669e-13
6.20789e-13
-7.18907e-15
6.66546e-13
1.03683e-13
7.04314e-13
2.02283e-13
7.31866e-13
2.83763e-13
7.47235e-13
3.45481e-13
7.48859e-13
3.87155e-13
7.35837e-13
4.10783e-13
7.08215e-13
4.20301e-13
6.67245e-13
4.2099e-13
6.155e-13
4.18632e-13
5.56782e-13
4.18551e-13
4.95807e-13
4.24623e-13
4.37657e-13
4.38515e-13
3.87104e-13
4.59253e-13
3.47919e-13
4.8332e-13
3.22332e-13
5.05218e-13
3.10775e-13
5.18501e-13
3.11965e-13
5.16906e-13
3.23282e-13
4.95412e-13
3.4131e-13
4.5072e-13
3.62393e-13
3.81255e-13
3.83096e-13
2.86801e-13
4.00499e-13
1.68673e-13
4.12338e-13
3.07738e-14
4.16859e-13
-1.18448e-13
4.12398e-13
-2.64584e-13
3.96786e-13
-3.87778e-13
3.67272e-13
-4.66364e-13
3.21922e-13
-4.83943e-13
2.62389e-13
-4.39071e-13
1.9572e-13
-3.52567e-13
1.31518e-13
-2.59657e-13
7.60622e-14
-1.80621e-13
2.9507e-14
-1.01728e-13
-1.21605e-14
-7.34579e-15
-5.56016e-14
8.95636e-14
-9.45746e-14
6.8901e-14
-1.08099e-13
-1.22452e-13
-9.80525e-14
-3.60922e-14
-3.27777e-15
-9.86402e-14
-5.54776e-14
-1.83956e-13
-9.14079e-14
-2.96469e-13
-1.19381e-13
-3.64483e-13
-1.39553e-13
-3.32265e-13
-1.54993e-13
-2.39988e-13
-1.73982e-13
-1.40008e-13
-1.88598e-13
-5.89846e-14
-1.93955e-13
-3.93643e-15
-1.98065e-13
2.82547e-14
-2.1675e-13
4.52682e-14
-2.59302e-13
5.37148e-14
-3.20906e-13
5.61254e-14
-3.91269e-13
5.33246e-14
-4.60021e-13
4.75176e-14
-5.16928e-13
4.25741e-14
-5.52476e-13
4.27022e-14
-5.59616e-13
5.09519e-14
-5.3503e-13
6.82395e-14
-4.79563e-13
9.31654e-14
-3.98382e-13
1.2274e-13
-3.00622e-13
1.53568e-13
-1.97855e-13
1.82757e-13
-1.01292e-13
2.08061e-13
-1.89403e-14
2.27385e-13
4.58533e-14
2.38221e-13
9.38355e-14
2.37564e-13
1.27957e-13
2.2248e-13
1.51396e-13
1.91046e-13
1.6648e-13
1.43202e-13
1.74644e-13
8.11558e-14
1.7697e-13
9.28208e-15
1.74659e-13
-6.63559e-14
1.69083e-13
-1.38648e-13
1.61477e-13
-2.00144e-13
1.52609e-13
-2.43845e-13
1.42757e-13
-2.64125e-13
1.32047e-13
-2.57737e-13
1.20914e-13
-2.24679e-13
1.10307e-13
-1.68597e-13
1.01399e-13
-9.64362e-14
9.48471e-14
-1.72929e-14
8.99543e-14
5.93209e-14
8.41932e-14
1.25329e-13
7.34256e-14
1.7555e-13
5.28477e-14
2.08396e-13
1.83679e-14
2.25702e-13
-3.20569e-14
2.31859e-13
-9.75723e-14
2.32594e-13
-1.74299e-13
2.33753e-13
-2.55891e-13
2.40348e-13
-3.34548e-13
2.55962e-13
-4.02174e-13
2.82496e-13
-4.51447e-13
3.20172e-13
-4.76665e-13
3.67716e-13
-4.74331e-13
4.22671e-13
-4.43483e-13
4.818e-13
-3.85783e-13
5.41521e-13
-3.05339e-13
5.98344e-13
-2.08287e-13
6.49196e-13
-1.02135e-13
6.91599e-13
5.05034e-15
7.23699e-13
1.05527e-13
7.44163e-13
1.92734e-13
7.52046e-13
2.62023e-13
7.46708e-13
3.11163e-13
7.2783e-13
3.40584e-13
6.95552e-13
3.53277e-13
6.5068e-13
3.54354e-13
5.9487e-13
3.5025e-13
5.30714e-13
3.47663e-13
4.61661e-13
3.52343e-13
3.91738e-13
3.67975e-13
3.25112e-13
3.95343e-13
2.6555e-13
4.32062e-13
2.15917e-13
4.72876e-13
1.77792e-13
5.10594e-13
1.51347e-13
5.37344e-13
1.35455e-13
5.45951e-13
1.28034e-13
5.30952e-13
1.26454e-13
4.89096e-13
1.27988e-13
4.19109e-13
1.30228e-13
3.21252e-13
1.31526e-13
1.9713e-13
1.31343e-13
5.06115e-14
1.30289e-13
-1.10365e-13
1.29444e-13
-2.71674e-13
1.28938e-13
-4.12221e-13
1.26505e-13
-5.06385e-13
1.17557e-13
-5.32344e-13
9.78369e-14
-4.8621e-13
6.70923e-14
-3.92349e-13
3.01769e-14
-2.92156e-13
-6.51356e-15
-2.10226e-13
-3.97625e-14
-1.39628e-13
-7.20916e-14
-6.11878e-14
-1.06035e-13
2.95662e-14
-1.21961e-13
1.37035e-14
-9.47959e-14
-1.11671e-13
-4.21821e-14
1.07442e-14
1.55716e-14
-1.2679e-13
-3.88244e-14
-2.19211e-13
-6.62877e-14
-3.36371e-13
-8.57641e-14
-4.13025e-13
-1.04137e-13
-3.90274e-13
-1.21166e-13
-3.05624e-13
-1.45974e-13
-2.10224e-13
-1.68416e-13
-1.29486e-13
-1.80049e-13
-7.16106e-14
-1.87175e-13
-3.57278e-14
-2.06978e-13
-1.4797e-14
-2.51675e-13
-8.60643e-16
-3.16919e-13
9.9475e-15
-3.90314e-13
1.85969e-14
-4.59259e-13
2.63353e-14
-5.12704e-13
3.58208e-14
-5.41927e-13
5.028e-14
-5.41792e-13
7.21784e-14
-5.11131e-13
1.02087e-13
-4.52285e-13
1.38283e-13
-3.70803e-13
1.77362e-13
-2.75383e-13
2.15524e-13
-1.77007e-13
2.49728e-13
-8.67543e-14
2.78028e-13
-1.30126e-14
2.99058e-13
4.04035e-14
3.11195e-13
7.43018e-14
3.12114e-13
9.25647e-14
2.99098e-13
1.00114e-13
2.69962e-13
1.01426e-13
2.24082e-13
1.00017e-13
1.63061e-13
9.86309e-14
9.0765e-14
9.95409e-14
1.28426e-14
1.04522e-13
-6.4042e-14
1.1445e-13
-1.33005e-13
1.28831e-13
-1.87671e-13
1.45694e-13
-2.22858e-13
1.62058e-13
-2.35281e-13
1.74842e-13
-2.24213e-13
1.8179e-13
-1.91912e-13
1.81962e-13
-1.43549e-13
1.75554e-13
-8.64809e-14
1.63177e-13
-2.88895e-14
1.45004e-13
2.18758e-14
1.20247e-13
6.08144e-14
8.72655e-14
8.62023e-14
4.42747e-14
9.96905e-14
-9.6562e-15
1.05606e-13
-7.37358e-14
1.09732e-13
-1.45051e-13
1.17942e-13
-2.18756e-13
1.35046e-13
-2.88727e-13
1.64047e-13
-3.48466e-13
2.05856e-13
-3.91982e-13
2.59387e-13
-4.14531e-13
3.21927e-13
-4.13123e-13
3.89639e-13
-3.86845e-13
4.58128e-13
-3.36989e-13
5.23002e-13
-2.67e-13
5.80326e-13
-1.82215e-13
6.26973e-13
-8.93863e-14
6.60778e-13
4.01025e-15
6.80523e-13
9.06237e-14
6.85797e-13
1.64137e-13
6.76783e-13
2.20112e-13
6.54074e-13
2.56635e-13
6.18574e-13
2.74638e-13
5.71495e-13
2.77816e-13
5.14418e-13