/*--------------------------------*- C++ -*----------------------------------*\
| =========                 |                                                 |
| \\      /  F ield         | OpenFOAM: The Open Source CFD Toolbox           |
|  \\    /   O peration     | Version:  2406                                  |
|   \\  /    A nd           | Website:  www.openfoam.com                      |
|    \\/     M anipulation  |                                                 |
\*---------------------------------------------------------------------------*/
FoamFile
{
    version     2.0;
    format      ascii;
    arch        "LSB;label=32;scalar=64";
    class       volScalarField;
    location    "7";
    object      p;
}
// * * * * * * * * * * * * * * * * * * * * * * * * * * * * * * * * * * * * * //

dimensions      [1 -1 -2 0 0 0 0];

internalField   nonuniform List<scalar> 
10000
(
1636.48
1645.73
1658.76
1683.74
1712.92
1738.11
1756.17
1768.03
1771.94
1766.86
1754.41
1737.03
1716.63
1695.11
1674.38
1656.13
1641.81
1632.79
1630.22
1634.76
1646.52
1665.23
1690.33
1720.91
1755.51
1792.12
1828.37
1861.94
1890.91
1914.02
1930.77
1941.33
1946.36
1946.8
1943.54
1937.3
1928.51
1917.33
1903.75
1887.74
1869.41
1849.15
1827.68
1806.14
1785.95
1768.74
1756.11
1749.41
1749.58
1756.91
1770.96
1790.51
1813.7
1838.27
1861.91
1882.63
1899.1
1910.84
1918.22
1922.3
1924.56
1926.54
1929.5
1934.09
1940.2
1946.83
1952.25
1954.28
1950.63
1939.37
1919.37
1890.59
1854.21
1812.56
1768.82
1726.57
1689.22
1659.5
1639.1
1628.42
1626.64
1631.95
1641.84
1653.52
1664.14
1671.09
1672.23
1666.1
1652.2
1631.13
1604.59
1575.08
1545.23
1517.13
1492.15
1472.31
1463.55
1477.4
1517.37
1518.26
1488.82
1495.56
1504.67
1519.25
1541.46
1566.43
1588.06
1605.47
1617.12
1621.22
1617.81
1608.56
1595.64
1581.32
1567.64
1556.08
1547.63
1543.05
1542.95
1547.81
1557.89
1573.18
1593.42
1618.01
1645.88
1675.43
1704.71
1731.64
1754.46
1771.97
1783.71
1789.97
1791.61
1789.83
1785.83
1780.54
1774.48
1767.76
1760.14
1751.3
1740.94
1729
1715.7
1701.63
1687.65
1674.87
1664.51
1657.71
1655.4
1658.14
1666.02
1678.65
1695.12
1714.2
1734.47
1754.54
1773.32
1790.11
1804.64
1817.08
1827.83
1837.37
1846.02
1853.82
1860.39
1864.94
1866.37
1863.39
1854.75
1839.55
1817.42
1788.73
1754.64
1716.97
1678.05
1640.34
1606.13
1577.24
1554.77
1539.09
1529.88
1526.2
1526.68
1529.6
1532.99
1534.81
1533.13
1526.56
1514.57
1497.87
1478.36
1458.67
1441.16
1426.69
1414.26
1402.25
1391.37
1387.71
1395.71
1374.41
1346.01
1349.27
1364.97
1381.18
1401.07
1423.99
1445.1
1463.08
1475.65
1480.77
1478.61
1470.87
1459.68
1447.32
1435.9
1426.94
1421.37
1419.75
1422.53
1429.99
1442.22
1459.11
1480.33
1505.26
1532.82
1561.41
1589.07
1613.78
1633.82
1648.09
1656.27
1658.77
1656.67
1651.34
1644.25
1636.58
1629.08
1621.99
1615.13
1608.08
1600.35
1591.61
1581.78
1571.13
1560.24
1550.01
1541.47
1535.73
1533.74
1536.25
1543.62
1555.74
1572.05
1591.57
1613.03
1635.07
1656.47
1676.32
1694.09
1709.65
1723.16
1734.89
1745.01
1753.49
1759.94
1763.63
1763.58
1758.67
1747.89
1730.55
1706.5
1676.29
1641.16
1602.99
1564.05
1526.71
1493.11
1464.92
1443.13
1428.07
1419.41
1416.29
1417.42
1421.18
1425.65
1428.85
1428.89
1424.43
1415.01
1401.38
1385.42
1369.46
1355.18
1343.01
1332.86
1324.94
1318.22
1311.88
1307.56
1284.94
1209.49
1204.81
1221.36
1239.17
1258.64
1280.43
1300.5
1318.23
1331.69
1338.7
1339.12
1334.38
1326.5
1317.81
1310.58
1306.48
1306.4
1310.67
1319.38
1332.39
1349.41
1370.02
1393.66
1419.59
1446.73
1473.6
1498.41
1519.34
1534.83
1543.96
1546.53
1543.14
1535.04
1523.93
1511.66
1499.85
1489.67
1481.69
1475.84
1471.6
1468.16
1464.72
1460.67
1455.74
1450.07
1444.2
1438.98
1435.49
1434.82
1437.99
1445.74
1458.39
1475.76
1497.18
1521.51
1547.36
1573.28
1598
1620.55
1640.37
1657.21
1671.04
1681.86
1689.58
1693.89
1694.28
1690.07
1680.54
1665.09
1643.44
1615.8
1582.93
1546.19
1507.43
1468.72
1432.2
1399.69
1372.59
1351.71
1337.27
1329
1326.16
1327.62
1331.94
1337.42
1342.24
1344.66
1343.4
1337.96
1328.96
1317.99
1306.77
1295.74
1283.98
1271.63
1261.95
1256.88
1254.68
1247.51
1231.79
1073.89
1063.48
1075.73
1091.94
1110.27
1131.01
1150.27
1167.96
1182.49
1191.78
1195.41
1194.5
1190.96
1187.07
1185.23
1187.22
1194
1205.74
1222.11
1242.44
1265.85
1291.39
1318.15
1345.29
1371.83
1396.51
1417.82
1434.2
1444.27
1447.22
1442.98
1432.29
1416.68
1398.2
1379.19
1361.85
1347.91
1338.34
1333.28
1332.08
1333.52
1336.18
1338.7
1340.1
1339.92
1338.33
1336.02
1334.13
1334.04
1337.19
1344.82
1357.78
1376.39
1400.29
1428.53
1459.61
1491.8
1523.31
1552.57
1578.35
1599.82
1616.45
1627.99
1634.28
1635.19
1630.58
1620.31
1604.3
1582.61
1555.54
1523.73
1488.21
1450.34
1411.73
1374.08
1339
1307.81
1281.49
1260.61
1245.36
1235.6
1230.91
1230.56
1233.54
1238.61
1244.37
1249.43
1252.65
1253.39
1251.82
1248.91
1245.67
1241.76
1235.21
1225.17
1214.6
1207
1205.39
1198.02
1195.08
936.498
924.015
932.897
946.365
962.865
981.974
1000.04
1017.16
1032.14
1043.19
1049.79
1052.84
1054.04
1055.58
1059.84
1068.78
1083.36
1103.57
1128.59
1157.07
1187.44
1218.17
1248.03
1276.08
1301.49
1323.34
1340.49
1351.71
1355.88
1352.41
1341.37
1323.68
1301.07
1275.88
1250.83
1228.54
1211.17
1200.04
1195.41
1196.53
1201.83
1209.28
1216.91
1223.1
1226.95
1228.37
1228.08
1227.39
1228.03
1231.84
1240.47
1255.12
1276.37
1304.01
1337.04
1373.81
1412.2
1449.96
1484.93
1515.32
1539.77
1557.44
1567.9
1571.06
1567.1
1556.34
1539.26
1516.42
1488.53
1456.42
1421.09
1383.66
1345.38
1307.52
1271.26
1237.63
1207.45
1181.26
1159.45
1142.23
1129.7
1121.81
1118.34
1118.81
1122.55
1128.75
1136.49
1144.83
1152.91
1160.13
1166.24
1171.08
1173.92
1173.45
1168.9
1160.92
1151.46
1147.08
1139.34
1151.55
798.971
787.047
793.903
804.594
819.016
836.185
853.008
869.646
885.033
897.694
907.183
914.387
920.96
928.909
940.44
957.367
980.507
1009.5
1043
1079.02
1115.34
1149.94
1181.34
1208.64
1231.35
1249.04
1261.11
1266.8
1265.41
1256.58
1240.55
1218.31
1191.6
1162.76
1134.52
1109.58
1090.21
1077.89
1073.01
1074.83
1081.68
1091.32
1101.47
1110.23
1116.5
1120.13
1121.87
1123.2
1126.06
1132.43
1144.1
1162.3
1187.54
1219.5
1257
1298.14
1340.56
1381.65
1418.97
1450.4
1474.39
1489.97
1496.79
1494.97
1485.01
1467.73
1444.11
1415.26
1382.35
1346.56
1309.05
1270.9
1233.1
1196.48
1161.7
1129.26
1099.47
1072.62
1048.95
1028.79
1012.53
1000.54
993.059
990.182
991.801
997.647
1007.25
1019.88
1034.45
1049.65
1063.93
1075.58
1083.26
1087.15
1088.27
1085.61
1077.92
1070.96
1062.78
1087.6
661.035
652.373
657.692
665.903
677.947
692.371
707.007
722.108
736.709
749.58
760.45
770.411
781.273
794.906
813.18
837.57
868.566
905.433
946.362
988.842
1030.14
1067.83
1100.21
1126.42
1146.28
1159.85
1167.14
1167.95
1162.04
1149.37
1130.33
1105.95
1077.83
1048.09
1019.13
993.35
972.829
958.96
952.202
951.981
956.812
964.626
973.243
980.865
986.461
989.969
992.272
994.978
1000.08
1009.57
1025.08
1047.63
1077.42
1113.79
1155.24
1199.61
1244.28
1286.52
1323.75
1353.84
1375.24
1387.13
1389.33
1382.26
1366.81
1344.17
1315.73
1282.97
1247.31
1210.06
1172.34
1135.01
1098.69
1063.74
1030.31
998.417
968.074
939.38
912.633
888.369
867.319
850.301
838.098
831.372
830.637
836.211
848.055
865.535
887.249
911.034
934.057
953.1
965.941
973.562
979.086
981.895
978.971
972.072
965.303
997.854
525.98
521.084
524.87
530.758
539.886
550.752
562.183
574.729
587.554
599.502
610.386
621.549
635.097
652.853
676.316
706.495
743.447
786.056
832.175
878.983
923.469
962.968
995.639
1020.67
1038.11
1048.49
1052.34
1050
1041.66
1027.55
1008.18
984.483
957.794
929.794
902.338
877.273
856.216
840.331
830.114
825.282
824.809
827.144
830.585
833.71
835.753
836.818
837.872
840.538
846.744
858.326
876.669
902.449
935.492
974.762
1018.45
1064.17
1109.19
1150.74
1186.3
1213.83
1231.96
1240.03
1238.13
1226.96
1207.7
1181.87
1151.14
1117.17
1081.51
1045.39
1009.75
975.099
941.593
909.078
877.219
845.654
814.166
782.825
752.082
722.775
696.044
673.185
655.513
644.284
640.663
645.617
659.63
682.261
711.751
744.937
777.514
804.87
824.072
836.38
845.902
853.468
856.497
852.252
849.234
884.14
397.987
394.809
396.823
400.191
405.767
412.581
420.254
429.818
440.616
451.356
461.719
473.186
488.194
508.618
535.621
569.687
610.364
656.142
704.637
752.936
798.021
837.25
868.828
892.062
907.254
915.304
917.22
913.795
905.549
892.874
876.235
856.311
834.017
810.437
786.73
764.039
743.403
725.665
711.35
700.558
692.918
687.658
683.819
680.563
677.48
674.806
673.464
674.911
680.837
692.796
711.875
738.441
772.038
811.395
854.551
899.055
942.21
981.348
1014.09
1038.54
1053.51
1058.52
1053.81
1040.29
1019.37
992.766
962.32
929.805
896.734
864.216
832.867
802.781
773.599
744.637
715.098
684.291
651.855
617.915
583.154
548.765
516.318
487.569
464.303
448.267
441.154
444.505
459.372
485.728
521.789
563.624
605.455
641.196
667.326
685.148
698.822
710.496
719.023
718.5
720.397
752.983
279.155
274.955
274.914
275.132
276.286
278.461
281.785
287.927
296.502
305.959
315.632
326.936
342.583
364.582
393.836
430.324
473.04
520.046
568.757
616.298
659.838
696.968
726.103
746.752
759.478
765.529
766.334
763.086
756.584
747.298
735.549
721.65
705.971
688.913
670.872
652.233
633.405
614.85
597.074
580.546
565.598
552.349
540.726
530.6
521.984
515.221
511.076
510.681
515.329
526.194
544.04
569.002
600.483
637.17
677.151
718.1
757.504
792.9
822.105
843.412
855.74
858.716
852.686
838.644
818.099
792.882
764.921
736.01
707.583
680.551
655.196
631.175
607.623
583.367
557.192
528.14
495.765
460.29
422.655
384.409
347.524
314.148
286.417
266.382
256.013
257.165
271.311
298.935
338.656
386.363
435.222
477.715
509.525
531.848
548.745
563.586
576.194
579.087
585.418
612.511
169.793
162.327
160.135
156.57
152.474
149.321
147.567
149.605
155.461
163.371
172.178
182.98
198.62
221.275
251.712
289.486
333.071
380.092
427.758
473.266
514.059
548.063
573.981
591.551
601.569
605.587
605.416
602.639
598.346
593.095
587.046
580.122
572.113
562.723
551.596
538.385
522.87
505.1
485.479
464.741
443.822
423.677
405.123
388.782
375.137
364.655
357.908
355.619
358.586
367.524
382.857
404.539
431.956
463.915
498.734
534.384
568.671
599.437
624.748
643.076
653.438
655.497
649.594
636.708
618.337
596.309
572.54
548.772
526.323
505.897
487.475
470.343
453.227
434.564
412.824
386.857
356.167
321.071
282.716
242.937
204.012
168.373
138.366
116.141
103.653
102.713
114.875
141.01
180.387
229.408
281.057
326.87
361.51
385.63
403.463
419.894
434.792
440.095
449.183
469.369
68.3922
56.6458
52.5007
45.0186
35.4441
26.667
19.4749
16.8889
19.5021
25.5634
33.3743
43.4422
58.5048
80.8728
111.29
149.054
192.257
238.164
283.809
326.476
363.906
394.381
416.892
431.359
438.722
440.736
439.519
437.029
434.675
433.175
432.598
432.528
432.223
430.739
427.04
420.128
409.227
393.984
374.632
352.021
327.498
302.663
279.085
258.073
240.578
227.225
218.425
214.498
215.735
222.368
234.475
251.863
273.974
299.853
328.177
357.344
385.594
411.155
432.395
447.98
457.012
459.139
454.625
444.332
429.632
412.233
393.931
376.339
360.618
347.277
336.064
326.007
315.577
302.981
286.519
264.94
237.723
205.232
168.709
130.123
91.9065
56.6353
26.7377
4.30468
-8.94097
-11.553
-2.26066
19.8843
54.7675
99.7828
148.731
193.198
226.975
249.645
265.666
281.733
297.082
303.566
313.21
326.507
-29.4056
-44.7322
-50.4053
-61.358
-75.8655
-89.872
-102.162
-109.397
-110.289
-106.199
-99.3074
-89.9531
-75.8178
-54.5956
-25.4963
10.7168
51.9772
95.3776
137.885
176.916
210.517
237.315
256.537
268.188
273.206
273.386
271.021
268.383
267.238
268.553
272.438
278.263
284.859
290.733
294.266
293.917
288.451
277.167
260.098
238.075
212.64
185.781
159.582
135.88
116.028
100.829
90.6057
85.3649
84.9554
89.171
97.7712
110.437
126.701
145.892
167.109
189.241
211.023
231.122
248.248
261.283
269.42
272.283
270.018
263.31
253.326
241.552
229.569
218.777
210.131
203.943
199.788
196.545
192.586
186.065
175.271
158.967
136.649
108.675
76.2562
41.3181
6.26016
-26.3523
-54.1216
-75.0947
-87.8951
-91.6267
-85.596
-69.1221
-41.9578
-5.61045
35.2746
73.4817
102.618
120.959
132.921
146.783
160.923
167.324
175.398
182.519
-129.166
-145.794
-152.44
-165.958
-184.137
-202.255
-218.537
-229.864
-234.162
-231.941
-225.69
-216.773
-203.626
-184.178
-157.604
-124.553
-86.9798
-47.7043
-9.64348
24.8426
54.1251
77.1469
93.306
102.568
105.689
104.294
100.67
97.2972
96.299
99.0041
105.734
115.831
127.863
139.914
149.886
155.788
156.008
149.557
136.263
116.856
92.8846
66.4809
39.9847
15.5469
-5.19105
-21.2606
-32.3483
-38.638
-40.5926
-38.7552
-33.6258
-25.6266
-15.1356
-2.55414
11.6259
26.7782
42.1316
56.7997
69.8484
80.4001
87.7609
91.5509
91.8082
89.0346
84.1564
78.3918
73.0382
69.2167
67.6253
68.358
70.8337
73.858
75.8117
74.9351
69.6491
58.8476
42.1048
19.7637
-7.08435
-36.7078
-66.9112
-95.288
-119.553
-137.912
-149.332
-153.52
-150.524
-140.23
-122.389
-97.614
-68.7072
-40.7862
-19.4574
-7.46304
-0.838298
9.4831
21.0864
26.2166
31.0955
32.6588
-235.761
-250.394
-257.413
-272.247
-292.255
-312.706
-331.194
-345.472
-352.68
-352.025
-346.038
-337.15
-324.837
-307.541
-284.494
-256.108
-223.969
-190.517
-158.323
-129.395
-104.997
-85.8924
-72.5783
-65.2451
-63.4968
-66.0996
-70.9978
-75.6628
-77.6576
-75.2091
-67.6008
-55.2895
-39.7559
-23.176
-8.01929
3.34098
8.96401
7.60579
-1.10176
-16.5831
-37.3934
-61.446
-86.3654
-109.892
-130.24
-146.322
-157.785
-164.888
-168.262
-168.665
-166.775
-163.091
-157.92
-151.445
-143.812
-135.223
-126.004
-116.623
-107.665
-99.7535
-93.437
-89.0596
-86.6484
-85.8543
-85.9731
-86.0598
-85.1217
-82.3509
-77.3439
-70.2515
-61.8174
-53.2927
-46.2368
-42.2488
-42.6855
-48.4303
-59.7582
-76.3083
-97.1336
-120.781
-145.383
-168.813
-188.959
-204.165
-213.647
-217.627
-216.91
-212.143
-203.441
-190.915
-175.654
-160.252
-148.637
-143.902
-142.851
-136.752
-128.589
-125.713
-124.884
-128.89
-352.512
-361.527
-368.369
-383.095
-402.761
-423.34
-441.811
-457.452
-466.71
-467.179
-461.11
-451.882
-440.173
-425.198
-406.396
-383.9
-358.725
-332.665
-307.704
-285.353
-266.464
-251.509
-240.923
-235.129
-234.221
-237.557
-243.543
-249.812
-253.73
-253.066
-246.565
-234.256
-217.423
-198.298
-179.59
-163.988
-153.742
-150.35
-154.381
-165.436
-182.232
-202.831
-224.966
-246.426
-265.414
-280.791
-292.161
-299.782
-304.346
-306.712
-307.664
-307.753
-307.247
-306.175
-304.424
-301.864
-298.444
-294.263
-289.571
-284.726
-280.095
-275.936
-272.285
-268.894
-265.24
-260.626
-254.352
-245.926
-235.252
-222.74
-209.312
-196.283
-185.153
-177.345
-173.962
-175.615
-182.367
-193.778
-209.007
-226.885
-245.935
-264.393
-280.392
-292.383
-299.708
-302.906
-303.397
-302.622
-301.334
-299.602
-297.225
-294.347
-292.687
-294.935
-298.83
-297.025
-292.781
-292.798
-296.023
-306.321
-480.656
-480.818
-487.071
-500.312
-517.524
-536.014
-552.234
-567.475
-577.72
-578.858
-572.549
-562.828
-551.569
-538.948
-524.775
-508.945
-491.793
-474.275
-457.596
-442.647
-429.817
-419.295
-411.46
-406.983
-406.5
-410.072
-416.763
-424.593
-430.922
-433.147
-429.426
-419.19
-403.295
-383.796
-363.469
-345.23
-331.61
-324.376
-324.322
-331.242
-344.036
-360.949
-379.885
-398.766
-415.869
-430.067
-440.94
-448.716
-454.086
-457.944
-461.129
-464.24
-467.547
-471.004
-474.343
-477.198
-479.229
-480.214
-480.089
-478.928
-476.874
-474.04
-470.409
-465.775
-459.752
-451.853
-441.651
-428.954
-413.961
-397.34
-380.191
-363.904
-349.933
-339.543
-333.593
-332.417
-335.828
-343.241
-353.839
-366.672
-380.639
-394.391
-406.373
-415.179
-420.183
-422.033
-422.505
-423.684
-427.064
-433.055
-440.75
-448.311
-455.181
-463.095
-470.758
-472.892
-472.696
-475.809
-482.352
-500.023
-618.865
-608.056
-613.448
-624.069
-637.163
-651.77
-663.925
-677.167
-687.344
-688.825
-682.422
-672.405
-661.656
-651.377
-641.891
-632.953
-624.224
-615.735
-607.805
-600.631
-594.136
-588.241
-583.271
-580.098
-579.843
-583.274
-590.205
-599.227
-607.928
-613.52
-613.651
-607.099
-594.118
-576.37
-556.492
-537.489
-522.112
-512.397
-509.391
-513.105
-522.635
-536.407
-552.497
-568.975
-584.217
-597.137
-607.305
-614.914
-620.626
-625.34
-629.94
-635.088
-641.112
-647.986
-655.397
-662.855
-669.826
-675.829
-680.507
-683.634
-685.079
-684.746
-682.496
-678.106
-671.276
-661.701
-649.202
-633.868
-616.173
-597.021
-577.671
-559.577
-544.149
-532.512
-525.31
-522.62
-524.003
-528.681
-535.768
-544.427
-553.85
-563.094
-570.986
-576.349
-578.604
-578.371
-577.514
-578.484
-583.402
-593.239
-606.939
-621.391
-634.129
-645.742
-655.828
-661.368
-665.118
-671.104
-679.754
-705.592
-763.298
-741.104
-745.442
-752.655
-760.688
-770.333
-777.325
-787.372
-796.599
-798.291
-792.254
-782.508
-772.606
-764.692
-759.688
-757.332
-756.713
-756.972
-757.525
-757.879
-757.531
-756.194
-754.149
-752.404
-752.431
-755.57
-762.342
-772.003
-782.574
-791.331
-795.615
-793.629
-784.973
-770.753
-753.265
-735.418
-720.072
-709.485
-704.966
-706.773
-714.213
-725.893
-740.039
-754.839
-768.747
-780.704
-790.257
-797.55
-803.204
-808.112
-813.204
-819.24
-826.673
-835.594
-845.761
-856.687
-867.749
-878.29
-887.696
-895.437
-901.072
-904.23
-904.577
-901.809
-895.664
-885.986
-872.821
-856.521
-837.812
-817.798
-797.861
-779.48
-764
-752.405
-745.144
-742.075
-742.533
-745.54
-750.078
-755.309
-760.594
-765.333
-768.759
-770.035
-768.737
-765.453
-761.956
-760.759
-764.34
-774.218
-789.6
-806.849
-822.274
-835.484
-846.862
-855.322
-862.813
-871.125
-880.558
-914.369
-908.421
-876.409
-879.518
-882.924
-885.759
-890.177
-891.709
-897.872
-905.507
-907.44
-902.435
-893.794
-885.303
-879.846
-878.929
-882.409
-888.962
-896.965
-905.013
-911.983
-917.033
-919.765
-920.475
-920.254
-920.761
-923.689
-930.088
-939.838
-951.507
-962.683
-970.67
-973.31
-969.627
-960.108
-946.549
-931.569
-917.968
-908.126
-903.58
-904.844
-911.464
-922.24
-935.54
-949.641
-963.032
-974.635
-983.937
-991
-996.376
-1000.93
-1005.65
-1011.42
-1018.86
-1028.29
-1039.64
-1052.55
-1066.44
-1080.57
-1094.13
-1106.32
-1116.37
-1123.59
-1127.39
-1127.32
-1123.09
-1114.66
-1102.27
-1086.52
-1068.35
-1049.03
-1030.01
-1012.74
-998.461
-987.983
-981.571
-978.894
-979.12
-981.108
-983.704
-985.988
-987.377
-987.49
-985.944
-982.312
-976.474
-969.089
-961.805
-956.963
-957.082
-964.024
-977.438
-993.8
-1008.98
-1022.07
-1034.07
-1045.17
-1056.17
-1066.13
-1075.25
-1115.34
-1048.32
-1009.88
-1011.6
-1011.2
-1009.43
-1009.08
-1005.56
-1007.63
-1013.27
-1015.55
-1012.28
-1005.65
-999.245
-996.373
-999.038
-1007.3
-1019.62
-1033.8
-1047.77
-1059.86
-1069.02
-1074.85
-1077.75
-1078.9
-1080.03
-1082.93
-1088.94
-1098.39
-1110.37
-1122.97
-1133.71
-1140.35
-1141.54
-1137.2
-1128.53
-1117.71
-1107.28
-1099.59
-1096.32
-1098.22
-1105.09
-1115.97
-1129.37
-1143.66
-1157.33
-1169.25
-1178.8
-1185.89
-1190.96
-1194.82
-1198.48
-1202.96
-1209.1
-1217.48
-1228.33
-1241.52
-1256.62
-1272.93
-1289.54
-1305.43
-1319.54
-1330.84
-1338.44
-1341.68
-1340.2
-1334.01
-1323.51
-1309.5
-1293.12
-1275.75
-1258.85
-1243.8
-1231.65
-1223.02
-1217.97
-1216.02
-1216.22
-1217.37
-1218.21
-1217.76
-1215.38
-1210.81
-1203.95
-1194.8
-1183.64
-1171.35
-1159.53
-1150.26
-1145.84
-1148.17
-1157.31
-1170.25
-1183.16
-1195.14
-1207.65
-1221.34
-1235.65
-1246.61
-1254.8
-1297.84
-1178.03
-1137.81
-1138.08
-1134.24
-1128.97
-1124.8
-1117.11
-1115.27
-1118.71
-1121.42
-1120.42
-1116.6
-1112.92
-1112.76
-1118.45
-1130.27
-1146.67
-1165.12
-1183.03
-1198.37
-1209.93
-1217.44
-1221.52
-1223.49
-1225.08
-1228.05
-1233.73
-1242.68
-1254.41
-1267.51
-1279.93
-1289.61
-1295.06
-1295.76
-1292.37
-1286.47
-1280.2
-1275.7
-1274.67
-1278.02
-1285.82
-1297.36
-1311.39
-1326.38
-1340.85
-1353.57
-1363.77
-1371.17
-1376.04
-1379.06
-1381.22
-1383.64
-1387.39
-1393.35
-1402.11
-1413.85
-1428.41
-1445.22
-1463.38
-1481.76
-1499.03
-1513.87
-1525.08
-1531.74
-1533.37
-1529.97
-1522.04
-1510.55
-1496.77
-1482.16
-1468.16
-1455.99
-1446.5
-1440.04
-1436.46
-1435.16
-1435.15
-1435.24
-1434.2
-1431
-1425
-1415.93
-1403.87
-1389.16
-1372.51
-1355.13
-1338.69
-1325.05
-1316.13
-1313.64
-1317.84
-1326.41
-1336.28
-1347.06
-1360.44
-1376.85
-1394.22
-1405.77
-1412.98
-1454.33
-1294.64
-1257.71
-1256.59
-1249.92
-1242.41
-1235.53
-1224.76
-1219.41
-1220.59
-1223.72
-1225.29
-1224.82
-1224.35
-1227
-1235.15
-1249.31
-1268.02
-1288.68
-1308.42
-1324.96
-1337.05
-1344.57
-1348.46
-1350.25
-1351.73
-1354.52
-1359.83
-1368.19
-1379.37
-1392.36
-1405.62
-1417.43
-1426.36
-1431.64
-1433.43
-1432.71
-1431.09
-1430.33
-1432
-1437.12
-1446
-1458.23
-1472.84
-1488.5
-1503.77
-1517.39
-1528.38
-1536.26
-1541.04
-1543.21
-1543.68
-1543.61
-1544.26
-1546.81
-1552.22
-1561.06
-1573.48
-1589.15
-1607.28
-1626.69
-1645.9
-1663.33
-1677.5
-1687.24
-1691.88
-1691.35
-1686.22
-1677.53
-1666.67
-1655.14
-1644.31
-1635.21
-1628.45
-1624.11
-1621.81
-1620.83
-1620.18
-1618.8
-1615.6
-1609.64
-1600.28
-1587.26
-1570.71
-1551.21
-1529.81
-1508.05
-1487.75
-1470.66
-1458.36
-1452.15
-1452.32
-1457.16
-1464.6
-1474.92
-1489.83
-1509.09
-1529.26
-1541.26
-1547.94
-1582.43
-1397.93
-1368.74
-1366.43
-1357.67
-1349
-1340.32
-1327.43
-1319.06
-1317.98
-1321.38
-1325.49
-1328.54
-1331.57
-1337.09
-1347.27
-1362.68
-1382.09
-1403
-1422.51
-1438.29
-1449.09
-1455
-1457.23
-1457.6
-1457.99
-1459.98
-1464.58
-1472.22
-1482.72
-1495.36
-1509.02
-1522.36
-1534.13
-1543.45
-1550.05
-1554.34
-1557.32
-1560.28
-1564.57
-1571.2
-1580.7
-1593.01
-1607.51
-1623.15
-1638.66
-1652.75
-1664.31
-1672.61
-1677.35
-1678.78
-1677.62
-1675.01
-1672.34
-1671.05
-1672.44
-1677.48
-1686.68
-1699.99
-1716.78
-1735.92
-1755.83
-1774.77
-1791
-1803.13
-1810.28
-1812.31
-1809.73
-1803.67
-1795.56
-1786.92
-1779.02
-1772.74
-1768.4
-1765.83
-1764.43
-1763.35
-1761.67
-1758.47
-1752.93
-1744.32
-1732.13
-1716.11
-1696.43
-1673.73
-1649.25
-1624.76
-1602.26
-1583.47
-1569.71
-1561.89
-1560.16
-1563.24
-1569.96
-1581.2
-1598.4
-1620.58
-1643.15
-1655.74
-1662.62
-1685.63
-1490.45
-1471.93
-1468.73
-1458.54
-1449.28
-1439.24
-1424.86
-1413.89
-1410.57
-1413.92
-1420.18
-1426.58
-1433.15
-1441.58
-1453.53
-1469.46
-1488.29
-1507.81
-1525.36
-1538.71
-1546.76
-1549.75
-1549.11
-1546.88
-1545.11
-1545.39
-1548.66
-1555.21
-1564.89
-1577.13
-1591.08
-1605.73
-1619.97
-1632.86
-1643.78
-1652.58
-1659.64
-1665.77
-1671.96
-1679.2
-1688.24
-1699.37
-1712.41
-1726.72
-1741.28
-1754.89
-1766.38
-1774.75
-1779.41
-1780.28
-1777.84
-1773.11
-1767.5
-1762.63
-1760.12
-1761.28
-1766.97
-1777.42
-1792.21
-1810.26
-1829.99
-1849.51
-1866.93
-1880.63
-1889.59
-1893.53
-1892.92
-1888.91
-1882.96
-1876.57
-1870.95
-1866.83
-1864.31
-1862.98
-1862.03
-1860.52
-1857.57
-1852.47
-1844.7
-1833.86
-1819.65
-1801.98
-1781
-1757.35
-1732.24
-1707.5
-1685.17
-1667.02
-1654.23
-1647.43
-1646.57
-1650.66
-1659.1
-1672.95
-1693.13
-1718.08
-1742.58
-1756.1
-1763.93
-1772.37
-1576.83
-1569.83
-1566.07
-1554.9
-1545.04
-1533.53
-1517.8
-1504.5
-1498.93
-1501.76
-1509.49
-1518.73
-1528.63
-1539.99
-1553.69
-1569.81
-1587.35
-1604.41
-1618.76
-1628.54
-1632.9
-1632.23
-1628.06
-1622.53
-1617.78
-1615.5
-1616.65
-1621.57
-1630.11
-1641.85
-1656.1
-1671.99
-1688.51
-1704.57
-1719.21
-1731.75
-1741.99
-1750.18
-1757
-1763.4
-1770.29
-1778.41
-1788.1
-1799.21
-1811.13
-1822.87
-1833.24
-1841.08
-1845.51
-1846.09
-1842.99
-1836.99
-1829.44
-1822.05
-1816.62
-1814.75
-1817.59
-1825.62
-1838.59
-1855.49
-1874.73
-1894.36
-1912.35
-1926.95
-1936.98
-1942.06
-1942.64
-1939.84
-1935.16
-1930.1
-1925.83
-1922.97
-1921.47
-1920.72
-1919.79
-1917.65
-1913.48
-1906.74
-1897.21
-1884.87
-1869.78
-1852.02
-1831.85
-1809.78
-1786.9
-1764.8
-1745.42
-1730.5
-1721.2
-1718.06
-1720.9
-1728.9
-1741.64
-1759.79
-1783.42
-1810.84
-1836.67
-1851.54
-1860.79
-1853.89
-1662.74
-1665.91
-1661.86
-1649.93
-1638.93
-1625.39
-1608.11
-1592.58
-1584.74
-1586.5
-1594.83
-1606.11
-1618.89
-1633.11
-1648.72
-1665.19
-1681.37
-1695.63
-1706.27
-1712.01
-1712.38
-1707.98
-1700.33
-1691.48
-1683.55
-1678.26
-1676.7
-1679.38
-1686.32
-1697.24
-1711.58
-1728.54
-1747.04
-1765.76
-1783.36
-1798.63
-1810.77
-1819.55
-1825.34
-1829.01
-1831.72
-1834.65
-1838.75
-1844.48
-1851.74
-1859.87
-1867.83
-1874.37
-1878.33
-1878.94
-1875.99
-1869.97
-1862.04
-1853.85
-1847.28
-1844.09
-1845.63
-1852.56
-1864.73
-1881.2
-1900.37
-1920.21
-1938.62
-1953.73
-1964.3
-1969.87
-1970.86
-1968.41
-1964.03
-1959.27
-1955.31
-1952.7
-1951.34
-1950.53
-1949.23
-1946.4
-1941.23
-1933.37
-1922.84
-1909.99
-1895.25
-1879.02
-1861.66
-1843.65
-1825.72
-1809.1
-1795.35
-1786.09
-1782.5
-1785.15
-1793.97
-1808.28
-1827.51
-1851.27
-1878.59
-1908.02
-1934.58
-1951.05
-1961.83
-1941.17
-1753.45
-1763.66
-1759.55
-1746.88
-1733.97
-1717.72
-1698.51
-1680.85
-1670.77
-1670.94
-1678.95
-1691.33
-1706.35
-1723.21
-1740.95
-1758.27
-1773.64
-1785.55
-1792.8
-1794.77
-1791.56
-1784.02
-1773.61
-1762.18
-1751.59
-1743.49
-1739.1
-1739.15
-1743.98
-1753.55
-1767.46
-1784.92
-1804.72
-1825.25
-1844.73
-1861.4
-1873.93
-1881.61
-1884.5
-1883.46
-1879.89
-1875.46
-1871.76
-1869.93
-1870.51
-1873.31
-1877.52
-1881.9
-1885.14
-1886.13
-1884.27
-1879.7
-1873.26
-1866.42
-1860.98
-1858.74
-1861.13
-1868.87
-1881.89
-1899.24
-1919.3
-1939.99
-1959.14
-1974.83
-1985.77
-1991.48
-1992.37
-1989.59
-1984.73
-1979.39
-1974.79
-1971.53
-1969.5
-1967.99
-1965.99
-1962.44
-1956.61
-1948.23
-1937.55
-1925.19
-1911.96
-1898.59
-1885.66
-1873.57
-1862.75
-1853.83
-1847.86
-1846.09
-1849.71
-1859.45
-1875.52
-1897.54
-1924.51
-1954.6
-1985.55
-2016.44
-2043.09
-2061.21
-2073.06
-2042.31
-1852.79
-1865.93
-1861.82
-1848.41
-1832.95
-1813.58
-1792.27
-1772.69
-1760.54
-1758.81
-1765.74
-1778.33
-1794.82
-1813.93
-1833.93
-1852.72
-1868.26
-1878.95
-1883.94
-1883.21
-1877.47
-1867.91
-1855.99
-1843.23
-1831.13
-1821.09
-1814.33
-1811.8
-1814.19
-1821.79
-1834.43
-1851.38
-1871.31
-1892.31
-1912.16
-1928.61
-1939.8
-1944.61
-1942.85
-1935.34
-1923.74
-1910.19
-1896.94
-1885.86
-1878.17
-1874.24
-1873.6
-1875.16
-1877.49
-1879.23
-1879.41
-1877.74
-1874.69
-1871.39
-1869.44
-1870.52
-1876
-1886.62
-1902.28
-1922.03
-1944.19
-1966.66
-1987.22
-2003.93
-2015.49
-2021.4
-2022.08
-2018.73
-2012.98
-2006.5
-2000.63
-1996.04
-1992.72
-1990.04
-1987.03
-1982.75
-1976.49
-1968.1
-1957.94
-1946.85
-1935.92
-1926.23
-1918.6
-1913.45
-1910.85
-1910.86
-1913.8
-1920.45
-1931.83
-1948.89
-1972.29
-2002.07
-2036.87
-2073.15
-2107.39
-2139.1
-2165.29
-2184.69
-2196.82
-2160.67
-1962.57
-1974.36
-1970.31
-1956.24
-1938.03
-1915.77
-1892.66
-1871.67
-1857.89
-1854.27
-1859.72
-1871.88
-1889.13
-1909.96
-1932.12
-1952.89
-1969.71
-1980.71
-1985.16
-1983.45
-1976.81
-1966.78
-1954.85
-1942.26
-1930.09
-1919.37
-1911.17
-1906.56
-1906.5
-1911.62
-1922.04
-1937.17
-1955.63
-1975.31
-1993.64
-2007.97
-2016.02
-2016.3
-2008.43
-1993.22
-1972.52
-1948.93
-1925.28
-1904.14
-1887.42
-1876.09
-1870.09
-1868.55
-1870.02
-1872.95
-1876.02
-1878.5
-1880.41
-1882.49
-1885.99
-1892.34
-1902.77
-1917.93
-1937.67
-1961.04
-1986.34
-2011.44
-2034.15
-2052.53
-2065.25
-2071.82
-2072.66
-2068.94
-2062.36
-2054.66
-2047.27
-2041.02
-2036.05
-2031.86
-2027.64
-2022.52
-2015.94
-2007.76
-1998.46
-1988.98
-1980.62
-1974.73
-1972.4
-1974.08
-1979.64
-1988.53
-2000.36
-2015.26
-2033.95
-2057.49
-2087.07
-2123.38
-2164.78
-2206.3
-2243.14
-2275.09
-2300.21
-2320.26
-2331.58
-2295.02
-2082.52
-2089.42
-2085.45
-2071.06
-2050.58
-2026.43
-2002.5
-1981.06
-1966.39
-1961.31
-1965.35
-1976.85
-1994.41
-2016.41
-2040.39
-2063.32
-2082.26
-2095.07
-2100.91
-2100.31
-2094.77
-2086.05
-2075.68
-2064.72
-2053.88
-2043.8
-2035.29
-2029.37
-2027.15
-2029.52
-2036.89
-2048.85
-2064.09
-2080.45
-2095.2
-2105.44
-2108.61
-2102.99
-2088.06
-2064.6
-2034.64
-2001.11
-1967.34
-1936.5
-1911.11
-1892.7
-1881.66
-1877.33
-1878.34
-1882.98
-1889.62
-1897.12
-1905.03
-1913.62
-1923.72
-1936.46
-1952.83
-1973.36
-1997.87
-2025.39
-2054.28
-2082.48
-2107.81
-2128.38
-2142.89
-2150.8
-2152.46
-2148.99
-2142.06
-2133.44
-2124.68
-2116.78
-2110.04
-2104.19
-2098.58
-2092.53
-2085.52
-2077.53
-2069.03
-2061.03
-2054.93
-2052.28
-2054.35
-2061.77
-2074.23
-2090.77
-2110.3
-2132.26
-2156.91
-2185.25
-2218.99
-2259.48
-2305.22
-2350.22
-2388.76
-2420.24
-2443.9
-2463.65
-2473.29
-2440.57
-2210.82
-2210.61
-2206.8
-2192.73
-2171.23
-2146.93
-2123.86
-2103.36
-2088.9
-2083.19
-2086.41
-2097.53
-2115.3
-2138.06
-2163.34
-2188.13
-2209.46
-2225.06
-2233.91
-2236.39
-2233.92
-2228.29
-2220.98
-2212.9
-2204.52
-2196.15
-2188.33
-2181.92
-2178
-2177.6
-2181.33
-2188.98
-2199.44
-2210.65
-2219.92
-2224.32
-2221.22
-2208.79
-2186.45
-2154.98
-2116.52
-2074.22
-2031.74
-1992.72
-1960.16
-1936.02
-1921.08
-1914.92
-1916.22
-1923.14
-1933.81
-1946.7
-1960.9
-1976.2
-1993.03
-2012.15
-2034.33
-2059.99
-2088.94
-2120.28
-2152.46
-2183.54
-2211.49
-2234.48
-2251.2
-2261.06
-2264.28
-2261.83
-2255.25
-2246.28
-2236.55
-2227.19
-2218.76
-2211.22
-2204.16
-2197.01
-2189.44
-2181.41
-2173.42
-2166.44
-2161.91
-2161.41
-2166.42
-2177.68
-2194.94
-2216.94
-2242.09
-2269.15
-2297.79
-2328.82
-2364.21
-2406.02
-2453.13
-2499.42
-2538.45
-2568.9
-2590.65
-2609.35
-2616.69
-2591.06
-2344.79
-2336.99
-2333.47
-2320.73
-2300.09
-2277.91
-2257.84
-2240.11
-2227.28
-2222.15
-2225.56
-2237
-2255.27
-2278.58
-2304.54
-2330.46
-2353.68
-2372.12
-2384.67
-2391.45
-2393.54
-2392.43
-2389.39
-2385.17
-2380.06
-2374.15
-2367.75
-2361.49
-2356.33
-2353.29
-2353.07
-2355.66
-2360.21
-2364.92
-2367.34
-2364.71
-2354.55
-2335.07
-2305.71
-2267.25
-2221.88
-2172.84
-2124.01
-2079.24
-2041.85
-2014.12
-1997.06
-1990.43
-1992.94
-2002.66
-2017.46
-2035.48
-2055.39
-2076.59
-2099.12
-2123.45
-2150.18
-2179.66
-2211.75
-2245.69
-2280.11
-2313.28
-2343.3
-2368.47
-2387.47
-2399.62
-2404.94
-2404.16
-2398.59
-2389.86
-2379.58
-2369.06
-2359.08
-2349.91
-2341.34
-2333.07
-2324.79
-2316.55
-2308.77
-2302.35
-2298.59
-2299.1
-2305.37
-2318.35
-2337.85
-2362.65
-2390.82
-2420.61
-2451.1
-2482.64
-2517.26
-2557.5
-2603
-2648.14
-2686.49
-2715.25
-2735.01
-2751.96
-2757.2
-2740.26
-2481.85
-2467.65
-2464.7
-2454.48
-2437.05
-2419.39
-2404.66
-2391.73
-2382.25
-2379.19
-2384.1
-2396.87
-2416.2
-2440.06
-2466.09
-2492.04
-2515.9
-2536.11
-2551.76
-2562.79
-2569.83
-2573.87
-2575.76
-2576
-2574.66
-2571.69
-2567.17
-2561.53
-2555.52
-2550.05
-2545.81
-2543
-2541.05
-2538.56
-2533.49
-2523.47