/*--------------------------------*- C++ -*----------------------------------*\
| =========                 |                                                 |
| \\      /  F ield         | OpenFOAM: The Open Source CFD Toolbox           |
|  \\    /   O peration     | Version:  2406                                  |
|   \\  /    A nd           | Website:  www.openfoam.com                      |
|    \\/     M anipulation  |                                                 |
\*---------------------------------------------------------------------------*/
FoamFile
{
    version     2.0;
    format      ascii;
    arch        "LSB;label=32;scalar=64";
    class       volScalarField;
    location    "7";
    object      p_rgh;
}
// * * * * * * * * * * * * * * * * * * * * * * * * * * * * * * * * * * * * * //

dimensions      [1 -1 -2 0 0 0 0];

internalField   nonuniform List<scalar> 
10000
(
1705.15
1714.4
1727.43
1752.41
1781.59
1806.78
1824.84
1836.7
1840.61
1835.53
1823.08
1805.7
1785.3
1763.78
1743.05
1724.8
1710.48
1701.46
1698.89
1703.43
1715.19
1733.9
1759
1789.58
1824.18
1860.79
1897.04
1930.61
1959.58
1982.69
1999.44
2010
2015.03
2015.47
2012.21
2005.97
1997.18
1986
1972.42
1956.41
1938.08
1917.82
1896.35
1874.81
1854.62
1837.41
1824.78
1818.08
1818.25
1825.58
1839.63
1859.18
1882.37
1906.94
1930.58
1951.3
1967.77
1979.51
1986.89
1990.97
1993.23
1995.21
1998.17
2002.76
2008.87
2015.5
2020.92
2022.95
2019.3
2008.04
1988.04
1959.26
1922.88
1881.23
1837.49
1795.24
1757.89
1728.17
1707.77
1697.09
1695.31
1700.62
1710.51
1722.19
1732.81
1739.76
1740.9
1734.77
1720.87
1699.8
1673.26
1643.75
1613.9
1585.8
1560.82
1540.98
1532.22
1546.07
1586.04
1586.93
1694.83
1701.57
1710.68
1725.26
1747.47
1772.44
1794.07
1811.48
1823.13
1827.23
1823.82
1814.57
1801.65
1787.33
1773.65
1762.09
1753.65
1749.06
1748.96
1753.82
1763.9
1779.19
1799.43
1824.02
1851.89
1881.44
1910.72
1937.65
1960.47
1977.98
1989.72
1995.98
1997.62
1995.84
1991.84
1986.55
1980.49
1973.77
1966.15
1957.31
1946.95
1935.01
1921.71
1907.64
1893.66
1880.88
1870.52
1863.72
1861.41
1864.15
1872.03
1884.66
1901.13
1920.21
1940.48
1960.55
1979.34
1996.12
2010.65
2023.09
2033.84
2043.38
2052.03
2059.83
2066.4
2070.95
2072.38
2069.4
2060.76
2045.56
2023.43
1994.74
1960.65
1922.98
1884.06
1846.35
1812.14
1783.25
1760.78
1745.1
1735.89
1732.21
1732.69
1735.61
1739
1740.82
1739.14
1732.57
1720.58
1703.88
1684.37
1664.68
1647.17
1632.7
1620.27
1608.26
1597.38
1593.72
1601.72
1580.42
1689.36
1692.62
1708.32
1724.53
1744.42
1767.34
1788.45
1806.43
1819
1824.12
1821.96
1814.22
1803.03
1790.67
1779.25
1770.29
1764.72
1763.1
1765.88
1773.34
1785.57
1802.46
1823.68
1848.61
1876.17
1904.76
1932.42
1957.13
1977.17
1991.44
1999.62
2002.12
2000.02
1994.69
1987.6
1979.93
1972.43
1965.34
1958.48
1951.43
1943.7
1934.96
1925.13
1914.48
1903.59
1893.36
1884.82
1879.08
1877.09
1879.6
1886.97
1899.09
1915.4
1934.92
1956.38
1978.42
1999.82
2019.67
2037.44
2053
2066.51
2078.24
2088.36
2096.84
2103.29
2106.98
2106.93
2102.02
2091.24
2073.9
2049.85
2019.64
1984.51
1946.34
1907.4
1870.06
1836.46
1808.27
1786.48
1771.42
1762.76
1759.64
1760.77
1764.53
1769
1772.2
1772.24
1767.78
1758.36
1744.73
1728.77
1712.81
1698.53
1686.36
1676.21
1668.29
1661.57
1655.23
1650.92
1628.29
1690.18
1685.5
1702.05
1719.86
1739.33
1761.12
1781.19
1798.92
1812.38
1819.39
1819.81
1815.07
1807.19
1798.5
1791.27
1787.17
1787.09
1791.36
1800.07
1813.08
1830.1
1850.71
1874.35
1900.28
1927.42
1954.29
1979.1
2000.03
2015.52
2024.65
2027.22
2023.83
2015.73
2004.62
1992.35
1980.54
1970.36
1962.38
1956.53
1952.29
1948.85
1945.41
1941.36
1936.43
1930.76
1924.89
1919.67
1916.18
1915.51
1918.68
1926.43
1939.08
1956.45
1977.87
2002.2
2028.05
2053.97
2078.69
2101.24
2121.06
2137.9
2151.73
2162.55
2170.27
2174.58
2174.97
2170.76
2161.23
2145.78
2124.13
2096.49
2063.62
2026.88
1988.12
1949.41
1912.89
1880.38
1853.28
1832.4
1817.96
1809.69
1806.85
1808.31
1812.63
1818.11
1822.93
1825.35
1824.09
1818.65
1809.65
1798.69
1787.46
1776.43
1764.67
1752.32
1742.64
1737.58
1735.37
1728.2
1712.48
1691.92
1681.51
1693.76
1709.97
1728.3
1749.04
1768.3
1785.99
1800.52
1809.81
1813.44
1812.53
1808.99
1805.1
1803.26
1805.25
1812.03
1823.77
1840.14
1860.47
1883.88
1909.42
1936.18
1963.32
1989.86
2014.54
2035.85
2052.23
2062.3
2065.25
2061.01
2050.32
2034.71
2016.23
1997.22
1979.88
1965.94
1956.37
1951.31
1950.11
1951.55
1954.21
1956.73
1958.13
1957.95
1956.36
1954.05
1952.16
1952.07
1955.22
1962.85
1975.81
1994.42
2018.32
2046.56
2077.64
2109.83
2141.34
2170.6
2196.38
2217.85
2234.48
2246.02
2252.31
2253.22
2248.61
2238.34
2222.33
2200.64
2173.57
2141.76
2106.24
2068.37
2029.76
1992.11
1957.03
1925.84
1899.52
1878.64
1863.39
1853.63
1848.94
1848.59
1851.57
1856.64
1862.4
1867.46
1870.68
1871.42
1869.85
1866.94
1863.7
1859.79
1853.24
1843.2
1832.63
1825.03
1823.42
1816.05
1813.11
1691.87
1679.38
1688.27
1701.73
1718.23
1737.34
1755.41
1772.53
1787.51
1798.56
1805.16
1808.21
1809.41
1810.95
1815.21
1824.15
1838.73
1858.94
1883.96
1912.44
1942.81
1973.54
2003.4
2031.45
2056.86
2078.71
2095.86
2107.08
2111.25
2107.78
2096.74
2079.05
2056.44
2031.25
2006.2
1983.91
1966.54
1955.41
1950.78
1951.9
1957.2
1964.65
1972.28
1978.46
1982.32
1983.74
1983.45
1982.76
1983.4
1987.21
1995.84
2010.49
2031.74
2059.38
2092.41
2129.18
2167.57
2205.33
2240.3
2270.69
2295.14
2312.81
2323.27
2326.43
2322.47
2311.71
2294.63
2271.79
2243.9
2211.79
2176.46
2139.03
2100.75
2062.89
2026.63
1993
1962.82
1936.63
1914.82
1897.6
1885.07
1877.18
1873.71
1874.18
1877.92
1884.12
1891.86
1900.2
1908.28
1915.5
1921.61
1926.45
1929.29
1928.82
1924.27
1916.29
1906.83
1902.44
1894.71
1906.92
1691.68
1679.76
1686.61
1697.3
1711.73
1728.9
1745.72
1762.36
1777.74
1790.4
1799.89
1807.1
1813.67
1821.62
1833.15
1850.08
1873.22
1902.21
1935.71
1971.73
2008.05
2042.65
2074.05
2101.35
2124.06
2141.75
2153.82
2159.51
2158.12
2149.29
2133.26
2111.02
2084.31
2055.47
2027.23
2002.29
1982.92
1970.6
1965.72
1967.54
1974.39
1984.03
1994.18
2002.94
2009.21
2012.84
2014.58
2015.91
2018.77
2025.14
2036.81
2055.01
2080.25
2112.21
2149.71
2190.85
2233.27
2274.37
2311.68
2343.11
2367.1
2382.68
2389.5
2387.68
2377.72
2360.44
2336.82
2307.97
2275.06
2239.27
2201.76
2163.61
2125.81
2089.19
2054.41
2021.97
1992.18
1965.33
1941.66
1921.5
1905.24
1893.25
1885.77
1882.89
1884.51
1890.36
1899.96
1912.59
1927.16
1942.36
1956.64
1968.29
1975.97
1979.86
1980.98
1978.32
1970.63
1963.67
1955.49
1980.31
1691.09
1682.42
1687.74
1695.95
1708
1722.42
1737.06
1752.16
1766.76
1779.63
1790.5
1800.46
1811.32
1824.96
1843.23
1867.62
1898.62
1935.48
1976.41
2018.89
2060.19
2097.88
2130.26
2156.47
2176.33
2189.9
2197.19
2198
2192.09
2179.42
2160.38
2136
2107.88
2078.14
2049.18
2023.4
2002.88
1989.01
1982.25
1982.03
1986.86
1994.68
2003.29
2010.91
2016.51
2020.02
2022.32
2025.03
2030.13
2039.61
2055.13
2077.68
2107.47
2143.84
2185.29
2229.66
2274.33
2316.57
2353.8
2383.89
2405.29
2417.18
2419.38
2412.31
2396.86
2374.22
2345.78
2313.02
2277.36
2240.11
2202.39
2165.06
2128.74
2093.79
2060.36
2028.47
1998.12
1969.43
1942.68
1918.42
1897.37
1880.35
1868.15
1861.42
1860.69
1866.26
1878.1
1895.58
1917.3
1941.08
1964.11
1983.15
1995.99
2003.61
2009.14
2011.94
2009.02
2002.12
1995.35
2027.9
1693.37
1688.47
1692.26
1698.15
1707.28
1718.14
1729.57
1742.12
1754.94
1766.89
1777.78
1788.94
1802.49
1820.24
1843.71
1873.88
1910.84
1953.45
1999.56
2046.37
2090.86
2130.36
2163.03
2188.06
2205.5
2215.88
2219.73
2217.39
2209.05
2194.94
2175.57
2151.87
2125.18
2097.18
2069.73
2044.66
2023.61
2007.72
1997.5
1992.67
1992.2
1994.53
1997.97
2001.1
2003.14
2004.21
2005.26
2007.93
2014.13
2025.72
2044.06
2069.84
2102.88
2142.15
2185.84
2231.56
2276.58
2318.13
2353.69
2381.22
2399.35
2407.42
2405.52
2394.35
2375.09
2349.26
2318.53
2284.56
2248.9
2212.78
2177.14
2142.49
2108.98
2076.47
2044.61
2013.04
1981.56
1950.21
1919.47
1890.17
1863.43
1840.57
1822.9
1811.67
1808.05
1813.01
1827.02
1849.65
1879.14
1912.33
1944.9
1972.26
1991.46
2003.77
2013.29
2020.86
2023.89
2019.64
2016.62
2051.53
1702.72
1699.54
1701.55
1704.92
1710.5
1717.31
1724.98
1734.55
1745.35
1756.09
1766.45
1777.92
1792.92
1813.35
1840.35
1874.42
1915.09
1960.87
2009.37
2057.67
2102.75
2141.98
2173.56
2196.79
2211.98
2220.03
2221.95
2218.53
2210.28
2197.6
2180.97
2161.04
2138.75
2115.17
2091.46
2068.77
2048.13
2030.39
2016.08
2005.29
1997.65
1992.39
1988.55
1985.29
1982.21
1979.54
1978.19
1979.64
1985.57
1997.53
2016.6
2043.17
2076.77
2116.12
2159.28
2203.78
2246.94
2286.08
2318.81
2343.27
2358.24
2363.25
2358.54
2345.02
2324.1
2297.5
2267.05
2234.53
2201.46
2168.95
2137.6
2107.51
2078.33
2049.37
2019.83
1989.02
1956.58
1922.65
1887.88
1853.5
1821.05
1792.3
1769.03
1753
1745.88
1749.23
1764.1
1790.46
1826.52
1868.35
1910.18
1945.93
1972.06
1989.88
2003.55
2015.22
2023.75
2023.23
2025.13
2057.71
1721.23
1717.02
1716.98
1717.2
1718.36
1720.53
1723.86
1730
1738.57
1748.03
1757.7
1769.01
1784.65
1806.65
1835.91
1872.39
1915.11
1962.12
2010.83
2058.37
2101.91
2139.04
2168.17
2188.82
2201.55
2207.6
2208.4
2205.16
2198.65
2189.37
2177.62
2163.72
2148.04
2130.98
2112.94
2094.3
2075.48
2056.92
2039.14
2022.62
2007.67
1994.42
1982.8
1972.67
1964.05
1957.29
1953.15
1952.75
1957.4
1968.26
1986.11
2011.07
2042.55
2079.24
2119.22
2160.17
2199.57
2234.97
2264.17
2285.48
2297.81
2300.79
2294.76
2280.71
2260.17
2234.95
2206.99
2178.08
2149.65
2122.62
2097.27
2073.24
2049.69
2025.44
1999.26
1970.21
1937.83
1902.36
1864.72
1826.48
1789.59
1756.22
1728.49
1708.45
1698.08
1699.23
1713.38
1741
1780.73
1828.43
1877.29
1919.78
1951.59
1973.92
1990.81
2005.65
2018.26
2021.16
2027.49
2054.58
1749.2
1741.74
1739.54
1735.98
1731.88
1728.73
1726.98
1729.02
1734.87
1742.78
1751.59
1762.39
1778.03
1800.69
1831.12
1868.9
1912.48
1959.5
2007.17
2052.67
2093.47
2127.47
2153.39
2170.96
2180.98
2185
2184.83
2182.05
2177.76
2172.5
2166.46
2159.53
2151.52
2142.13
2131.01
2117.79
2102.28
2084.51
2064.89
2044.15
2023.23
2003.09
1984.53
1968.19
1954.55
1944.06
1937.32
1935.03
1938
1946.93
1962.27
1983.95
2011.37
2043.32
2078.14
2113.79
2148.08
2178.85
2204.16
2222.49
2232.85
2234.91
2229
2216.12
2197.75
2175.72
2151.95
2128.18
2105.73
2085.31
2066.89
2049.75
2032.64
2013.97
1992.23
1966.27
1935.58
1900.48
1862.13
1822.35
1783.42
1747.78
1717.78
1695.55
1683.06
1682.12
1694.28
1720.42
1759.8
1808.82
1860.47
1906.28
1940.92
1965.04
1982.87
1999.3
2014.2
2019.5
2028.59
2048.78
1785.14
1773.4
1769.25
1761.77
1752.19
1743.42
1736.23
1733.64
1736.25
1742.31
1750.12
1760.19
1775.25
1797.62
1828.04
1865.8
1909.01
1954.91
2000.56
2043.23
2080.66
2111.13
2133.64
2148.11
2155.47
2157.49
2156.27
2153.78
2151.43
2149.92
2149.35
2149.28
2148.97
2147.49
2143.79
2136.88
2125.98
2110.73
2091.38
2068.77
2044.25
2019.41
1995.84
1974.82
1957.33
1943.98
1935.17
1931.25
1932.49
1939.12
1951.23
1968.61
1990.72
2016.6
2044.93
2074.09
2102.34
2127.9
2149.14
2164.73
2173.76
2175.89
2171.37
2161.08
2146.38
2128.98
2110.68
2093.09
2077.37
2064.03
2052.81
2042.76
2032.33
2019.73
2003.27
1981.69
1954.47
1921.98
1885.46
1846.87
1808.66
1773.38
1743.49
1721.05
1707.81
1705.2
1714.49
1736.63
1771.52
1816.53
1865.48
1909.95
1943.73
1966.39
1982.42
1998.48
2013.83
2020.32
2029.96
2043.26
1824.68
1809.36
1803.68
1792.73
1778.22
1764.22
1751.93
1744.69
1743.8
1747.89
1754.78
1764.14
1778.27
1799.49
1828.59
1864.81
1906.07
1949.47
1991.97
2031.01
2064.61
2091.4
2110.63
2122.28
2127.3
2127.48
2125.11
2122.47
2121.33
2122.64
2126.53
2132.35
2138.95
2144.82
2148.36
2148.01
2142.54
2131.26
2114.19
2092.17
2066.73
2039.87
2013.67
1989.97
1970.12
1954.92
1944.7
1939.46
1939.05
1943.26
1951.86
1964.53
1980.79
1999.98
2021.2
2043.33
2065.11
2085.21
2102.34
2115.37
2123.51
2126.37
2124.11
2117.4
2107.42
2095.64
2083.66
2072.87
2064.22
2058.03
2053.88
2050.64
2046.68
2040.16
2029.36
2013.06
1990.74
1962.77
1930.35
1895.41
1860.35
1827.74
1799.97
1778.99
1766.19
1762.46
1768.49
1784.97
1812.13
1848.48
1889.36
1927.57
1956.71
1975.05
1987.01
2000.87
2015.01
2021.41
2029.49
2036.61
1862.26
1845.64
1838.99
1825.47
1807.29
1789.18
1772.89
1761.57
1757.27
1759.49
1765.74
1774.66
1787.8
1807.25
1833.83
1866.88
1904.45
1943.73
1981.79
2016.27
2045.55
2068.58
2084.74
2094
2097.12
2095.72
2092.1
2088.73
2087.73
2090.43
2097.16
2107.26
2119.29
2131.34
2141.32
2147.22
2147.44
2140.99
2127.69
2108.29
2084.32
2057.91
2031.42
2006.98
1986.24
1970.17
1959.08
1952.79
1950.84
1952.68
1957.8
1965.8
1976.29
1988.88
2003.06
2018.21
2033.56
2048.23
2061.28
2071.83
2079.19
2082.98
2083.24
2080.46
2075.59
2069.82
2064.47
2060.65
2059.06
2059.79
2062.26
2065.29
2067.24
2066.37
2061.08
2050.28
2033.54
2011.19
1984.35
1954.72
1924.52
1896.14
1871.88
1853.52
1842.1
1837.91
1840.91
1851.2
1869.04
1893.82
1922.72
1950.64
1971.97
1983.97
1990.59
2000.91
2012.52
2017.65
2022.53
2024.09
1893.01
1878.38
1871.36
1856.52
1836.52
1816.06
1797.58
1783.3
1776.09
1776.75
1782.73
1791.62
1803.93
1821.23
1844.28
1872.66
1904.8
1938.25
1970.45
1999.38
2023.77
2042.88
2056.19
2063.52
2065.27
2062.67
2057.77
2053.11
2051.11
2053.56
2061.17
2073.48
2089.01
2105.59
2120.75
2132.11
2137.73
2136.38
2127.67
2112.19
2091.38
2067.32
2042.41
2018.88
1998.53
1982.45
1970.99
1963.88
1960.51
1960.11
1962
1965.68
1970.85
1977.33
1984.96
1993.55
2002.77
2012.15
2021.11
2029.02
2035.33
2039.71
2042.12
2042.92
2042.8
2042.71
2043.65
2046.42
2051.43
2058.52
2066.95
2075.48
2082.53
2086.52
2086.09
2080.34
2069.01
2052.46
2031.64
2007.99
1983.39
1959.96
1939.81
1924.61
1915.12
1911.14
1911.86
1916.63
1925.33
1937.86
1953.12
1968.52
1980.13
1984.87
1985.92
1992.02
2000.18
2003.06
2003.89
1999.88
1913.6
1904.58
1897.74
1883.02
1863.35
1842.77
1824.3
1808.66
1799.4
1798.93
1805
1814.23
1825.94
1840.91
1859.71
1882.21
1907.39
1933.45
1958.41
1980.76
1999.65
2014.6
2025.19
2030.98
2031.89
2028.55
2022.57
2016.3
2012.38
2013.04
2019.54
2031.85
2048.69
2067.81
2086.52
2102.12
2112.37
2115.76
2111.73
2100.67
2083.88
2063.28
2041.15
2019.68
2000.7
1985.32
1973.95
1966.33
1961.77
1959.4
1958.45
1958.36
1958.86
1959.94
1961.69
1964.25
1967.67
1971.85
1976.54
1981.38
1986.02
1990.17
1993.83
1997.22
2000.87
2005.49
2011.76
2020.18
2030.86
2043.37
2056.8
2069.83
2080.96
2088.77
2092.15
2090.5
2083.74
2072.33
2057.1
2039.23
2020.18
2001.72
1985.72
1973.73
1966.4
1963.21
1962.71
1963.49
1964.78
1966.51
1968.89
1971.76
1973.42
1971.18
1967.28
1969.09
1973.33
1973.31
1970.09
1959.79
1922.79
1922.63
1916.38
1903.14
1885.93
1867.44
1851.22
1835.97
1825.73
1824.59
1830.9
1840.62
1851.88
1864.5
1878.68
1894.51
1911.66
1929.18
1945.85
1960.8
1973.63
1984.16
1991.99
1996.47
1996.95
1993.38
1986.69
1978.86
1972.53
1970.3
1974.02
1984.26
2000.16
2019.65
2039.98
2058.22
2071.84
2079.08
2079.13
2072.21
2059.41
2042.5
2023.57
2004.68
1987.58
1973.38
1962.51
1954.73
1949.36
1945.51
1942.32
1939.21
1935.9
1932.45
1929.11
1926.25
1924.22
1923.24
1923.36
1924.52
1926.58
1929.41
1933.04
1937.68
1943.7
1951.6
1961.8
1974.5
1989.49
2006.11
2023.26
2039.55
2053.52
2063.91
2069.86
2071.03
2067.62
2060.21
2049.61
2036.78
2022.81
2009.06
1997.08
1988.27
1983.27
1981.42
1980.95
1979.77
1976.39
1970.4
1962.7
1955.14
1948.27
1940.36
1932.69
1930.56
1930.76
1927.64
1921.1
1903.43
1921.93
1932.74
1927.34
1916.72
1903.63
1889.02
1876.86
1863.62
1853.45
1851.96
1858.37
1868.39
1879.13
1889.41
1898.9
1907.84
1916.57
1925.06
1932.99
1940.16
1946.65
1952.55
1957.52
1960.69
1960.95
1957.52
1950.59
1941.56
1932.86
1927.27
1927.14
1933.69
1946.67
1964.42
1984.3
2003.3
2018.68
2028.39
2031.4
2027.69
2018.16
2004.38
1988.29
1971.82
1956.57
1943.65
1933.49
1925.88
1920.16
1915.45
1910.85
1905.7
1899.68
1892.8
1885.39
1877.94
1870.97
1864.96
1860.28
1857.16
1855.71
1856.04
1858.29
1862.69
1869.52
1879.09
1891.59
1906.92
1924.62
1943.77
1963.12
1981.21
1996.64
2008.28
2015.48
2018.17
2016.79
2012.11
2005.02
1996.36
1986.94
1977.7
1969.8
1964.44
1962.19
1962.42
1963.28
1962.31
1957.39
1947.55
1933.85
1919.4
1906.66
1895.05
1884.96
1879.42
1875.67
1869.69
1861.04
1835.2
1914.83
1937.03
1932.69
1925.47
1917.44
1907.8
1900.8
1890.76
1881.53
1879.84
1885.88
1895.62
1905.52
1913.44
1918.44
1920.8
1921.42
1921.16
1920.61
1920.25
1920.6
1921.94
1923.98
1925.73
1925.7
1922.56
1915.79
1906.13
1895.56
1886.8
1882.51
1884.5
1893.16
1907.38
1924.87
1942.71
1958.06
1968.65
1973.16
1971.36
1963.92
1952.24
1938.09
1923.29
1909.38
1897.43
1887.87
1880.58
1874.93
1870.02
1864.93
1858.89
1851.46
1842.54
1832.37
1821.44
1810.38
1799.84
1790.44
1782.69
1777.06
1773.9
1773.55
1776.32
1782.47
1792.15
1805.31
1821.61
1840.32
1860.33
1880.27
1898.65
1914.13
1925.73
1932.99
1936.06
1935.6
1932.59
1928.05
1922.82
1917.54
1912.8
1909.37
1908.1
1909.39
1912.68
1916.17
1917.37
1913.79
1903.91
1888.53
1871.28
1855.86
1842.65
1831.27
1822.81
1815.32
1807.01
1797.57
1763.76
1907.05
1939.06
1935.95
1932.55
1929.71
1925.29
1923.76
1917.6
1909.96
1908.03
1913.04
1921.68
1930.17
1935.62
1936.54
1933.06
1926.51
1918.51
1910.46
1903.49
1898.44
1895.71
1895
1895.22
1894.71
1891.78
1885.38
1875.63
1863.96
1852.79
1844.8
1842.16
1845.84
1855.36
1868.92
1883.9
1897.5
1907.34
1911.89
1910.63
1904.01
1893.23
1879.93
1865.83
1852.44
1840.83
1831.53
1824.47
1819.09
1814.54
1809.82
1804.05
1796.61
1787.18
1775.83
1762.92
1749.03
1734.9
1721.34
1709.15
1699.1
1691.88
1688.08
1688.15
1692.38
1700.81
1713.2
1728.95
1747.12
1766.44
1785.46
1802.73
1817.01
1827.49
1833.9
1836.58
1836.35
1834.36
1831.77
1829.48
1828.09
1827.98
1829.53
1833.16
1839
1846.38
1853.67
1858.51
1858.39
1851.45
1838.03
1821.67
1806.49
1793.4
1781.4
1770.3
1759.3
1749.34
1740.23
1700.13
1904.49
1942.93
1941.21
1941.61
1943.37
1943.73
1947.25
1945.18
1939.54
1937.26
1940.53
1947.16
1953.57
1956.44
1953.77
1945.51
1933.19
1919.01
1905.04
1892.95
1883.79
1877.97
1875.06
1873.91
1872.78
1869.88
1863.87
1854.42
1842.44
1829.84
1819.1
1812.46
1811.27
1815.61
1824.28
1835.1
1845.53
1853.22
1856.49
1854.59
1847.72
1836.84
1823.44
1809.15
1795.48
1783.56
1774.01
1766.92
1761.85
1757.99
1754.32
1749.85
1743.71
1735.33
1724.48
1711.29
1696.19
1679.88
1663.27
1647.38
1633.27
1621.97
1614.37
1611.13
1612.61
1618.8
1629.3
1643.31
1659.69
1677.06
1693.96
1709.01
1721.16
1729.79
1734.84
1736.79
1736.59
1735.44
1734.6
1735.05
1737.43
1742
1748.86
1758.01
1769.17
1781.46
1793.28
1802.55
1806.97
1804.64
1795.5
1782.55
1769.65
1757.67
1745.16
1731.47
1717.16
1706.2
1698.01
1654.97
1912.12
1952.34
1952.06
1955.91
1961.18
1965.35
1973.04
1974.88
1971.44
1968.73
1969.73
1973.55
1977.23
1977.39
1971.7
1959.88
1943.48
1925.03
1907.12
1891.78
1880.22
1872.71
1868.63
1866.66
1865.07
1862.1
1856.42
1847.47
1835.74
1822.64
1810.22
1800.54
1795.09
1794.39
1797.78
1803.68
1809.95
1814.45
1815.48
1812.13
1804.33
1792.79
1778.76
1763.77
1749.3
1736.58
1726.38
1718.98
1714.11
1711.09
1708.93
1706.51
1702.76
1696.79
1688.04
1676.3
1661.74
1644.93
1626.77
1608.39
1591.12
1576.28
1565.07
1558.41
1556.78
1560.18
1568.11
1579.6
1593.38
1607.99
1621.99
1634.16
1643.65
1650.11
1653.69
1654.99
1655
1654.91
1655.95
1659.15
1665.15
1674.22
1686.28
1700.99
1717.64
1735.01
1751.46
1765.1
1774.02
1776.51
1772.31
1763.74
1753.86
1743.09
1729.71
1713.3
1695.93
1684.38
1677.17
1635.82
1932.85
1969.78
1970.9
1977.57
1985.08
1991.96
2002.73
2008.08
2006.9
2003.77
2002.2
2002.67
2003.14
2000.49
1992.34
1978.18
1959.47
1938.81
1919.07
1902.53
1890.45
1882.92
1879.03
1877.24
1875.77
1872.97
1867.66
1859.3
1848.12
1835.13
1821.87
1810.06
1801.13
1795.85
1794.06
1794.78
1796.4
1797.16
1795.49
1790.37
1781.49
1769.26
1754.65
1738.99
1723.72
1710.1
1699.11
1691.22
1686.45
1684.28
1683.81
1683.88
1683.23
1680.68
1675.27
1666.43
1654.01
1638.34
1620.2
1600.8
1581.59
1564.15
1549.99
1540.25
1535.61
1536.14
1541.27
1549.96
1560.82
1572.35
1583.18
1592.28
1599.04
1603.38
1605.68
1606.66
1607.3
1608.68
1611.89
1617.85
1627.2
1640.23
1656.77
1676.27
1697.68
1719.44
1739.74
1756.82
1769.13
1775.34
1775.16
1770.32
1762.89
1752.57
1737.66
1718.39
1698.23
1686.23
1679.55
1645.06
1966.9
1996.09
1998.4
2007.16
2015.83
2024.51
2037.4
2045.77
2046.85
2043.45
2039.34
2036.29
2033.26
2027.74
2017.56
2002.15
1982.73
1961.83
1942.32
1926.54
1915.74
1909.83
1907.6
1907.23
1906.84
1904.85
1900.25
1892.61
1882.12
1869.47
1855.81
1842.47
1830.7
1821.38
1814.78
1810.49
1807.51
1804.54
1800.26
1793.63
1784.13
1771.81
1757.32
1741.68
1726.17
1712.08
1700.52
1692.22
1687.48
1686.05
1687.21
1689.82
1692.49
1693.78
1692.39
1687.35
1678.15
1664.84
1648.05
1628.91
1608.99
1590.06
1573.82
1561.7
1554.55
1552.52
1555.1
1561.16
1569.26
1577.91
1585.81
1592.09
1596.43
1599
1600.4
1601.48
1603.16
1606.36
1611.9
1620.51
1632.7
1648.72
1668.4
1691.1
1715.58
1740.07
1762.57
1781.36
1795.12
1802.94
1804.67
1801.59
1794.87
1783.63
1766.43
1744.25
1721.68
1709.09
1702.21
1679.2
2011.72
2030.24
2033.44
2043.63
2052.89
2062.93
2077.31
2088.28
2091.6
2088.25
2081.99
2075.59
2069.02
2060.59
2048.64
2032.71
2013.87
1994.36
1976.81
1963.46
1955.41
1952.42
1953.06
1955.29
1957.06
1956.78
1953.51
1946.96
1937.28
1925.05
1911.09
1896.44
1882.19
1869.31
1858.39
1849.59
1842.53
1836.4
1830.21
1822.97
1813.93
1802.8
1789.76
1775.45
1760.89
1747.28
1735.79
1727.42
1722.76
1721.89
1724.33
1729.06
1734.67
1739.54
1742.05
1740.89
1735.2
1724.75
1709.96
1691.91
1672.18
1652.66
1635.24
1621.54
1612.58
1608.64
1609.25
1613.26
1619.21
1625.6
1631.21
1635.34
1637.85
1639.19
1640.14
1641.65
1644.6
1649.69
1657.47
1668.31
1682.51
1700.18
1721.17
1744.82
1769.93
1794.67
1817
1835.15
1847.94
1854.74
1855.6
1851.51
1843.06
1829.22
1809.04
1784.09
1759.59
1746.07
1738.24
1729.8
2062.68
2069.68
2073.44
2084.61
2094.47
2105.98
2121.71
2135.01
2140.58
2137.75
2130.02
2120.78
2110.88
2099.52
2085.82
2069.7
2052.16
2035.1
2020.75
2010.97
2006.61
2007.28
2011.45
2016.98
2021.73
2024.01
2022.86
2017.94
2009.4
1997.66
1983.41
1967.52
1951
1934.94
1920.3
1907.76
1897.52
1889.33
1882.5
1876.11
1869.22
1861.1
1851.41
1840.29
1828.38
1816.64
1806.27
1798.43
1794
1793.42
1796.52
1802.52
1810.07
1817.46
1822.89
1824.76
1821.92
1813.88
1800.92
1784.02
1764.78
1745.14
1727.15
1712.56
1702.53
1697.45
1696.86
1699.67
1704.35
1709.41
1713.68
1716.54
1718.04
1718.79
1719.72
1721.85
1726.03
1732.77
1742.3
1754.64
1769.73
1787.49
1807.66
1829.73
1852.61
1874.71
1894.09
1909.01
1918.31
1921.45
1918.62
1910.61
1897.87
1879.72
1856.09
1828.67
1802.84
1787.97
1778.71
1785.62
2114.11
2110.94
2114.98
2126.92
2137.92
2151.46
2168.74
2184.27
2192.11
2190.35
2182.02
2170.74
2157.96
2143.74
2128.13
2111.66
2095.48
2081.22
2070.57
2064.84
2064.47
2068.87
2076.52
2085.37
2093.3
2098.59
2100.15
2097.47
2090.53
2079.61
2065.27
2048.3
2029.81
2011.09
1993.49
1978.22
1966.08
1957.3
1951.51
1947.84
1945.13
1942.2
1938.1
1932.37
1925.11
1916.98
1909.02
1902.48
1898.52
1897.91
1900.86
1906.88
1914.81
1923
1929.57
1932.76
1931.22
1924.29
1912.12
1895.65
1876.48
1856.64
1838.23
1823.12
1812.55
1806.98
1805.99
1808.44
1812.82
1817.58
1821.54
1824.15
1825.51
1826.32
1827.62
1830.45
1835.62
1843.48
1854.01
1866.86
1881.6
1897.83
1915.19
1933.2
1951.13
1967.75
1981.5
1990.76
1994.35
1991.7
1982.88
1968.57
1949.34
1925.58
1898.26
1868.83
1842.27
1825.8
1815.01
1835.68
2160.74
2150.53
2154.64
2167.32
2180.22
2196.47
2215.68
2233.34
2243.42
2243.25
2235.24
2222.86
2207.84
2190.98
2173.24
2155.92
2140.55
2128.64
2121.39
2119.42
2122.63
2130.17
2140.58
2152.01
2162.6
2170.7
2175.09
2175.04
2170.21
2160.64
2146.73
2129.27
2109.47
2088.94
2069.46
2052.78
2040.25
2032.58
2029.69
2030.73
2034.3
2038.73
2042.43
2044.26
2043.68
2040.88
2036.67
2032.29
2029.05
2028.06
2029.92
2034.49
2040.93
2047.77
2053.21
2055.44
2053.06
2045.32
2032.3
2014.95
1994.89
1974.2
1955.05
1939.36
1928.42
1922.71
1921.82
1924.6
1929.46
1934.8
1939.4
1942.66
1944.69
1946.2
1948.2
1951.75
1957.58
1965.96
1976.64
1989
2002.23
2015.6
2028.53
2040.62
2051.44
2060.36
2066.33
2068.1
2064.49
2054.74
2038.67
2016.65
1989.68
1959.59
1928.64
1897.75
1871.1
1852.98
1841.13
1871.88
2198.74
2185.6
2189.71
2203.12
2218.58
2237.95
2259.26
2278.84
2290.99
2292.72
2285.79
2273.2
2256.71
2237.6
2217.6
2198.81
2183.27
2172.58
2167.59
2168.32
2174.06
2183.62
2195.53
2208.3
2220.39
2230.43
2237.2
2239.73
2237.34
2229.74
2217.1
2200.15
2180.22
2159.22
2139.37
2122.92
2111.73
2106.92
2108.68
2116.19
2127.79
2141.34
2154.59
2165.67
2173.36
2177.29
2177.93
2176.37
2174.04
2172.3
2172.12
2173.79
2176.85
2180.14
2182.09
2181.01
2175.53
2164.91
2149.25
2129.5
2107.34
2084.87
2064.31
2047.59
2036.04
2030.13
2029.45
2032.8
2038.55
2045.03
2050.9
2055.49
2058.81
2061.49
2064.5
2068.78
2075.04
2083.43
2093.59
2104.68
2115.61
2125.3
2132.93
2138.08
2140.68
2140.67
2137.74
2131.09
2119.7
2102.65
2079.25
2049.46
2014.66
1978.38
1944.14
1912.43
1886.24
1866.84
1854.71
1890.86
2226.3
2214.52
2218.56
2232.63
2250.84
2273.1
2296.21
2317.19
2330.98
2334.6
2329.15
2316.99
2299.74
2278.91
2256.75
2235.98
2219.16
2208.16
2203.71
2205.42
2212.06
2222.09
2234.02
2246.61
2258.78
2269.5
2277.69
2282.3
2282.37
2277.25
2266.83
2251.7
2233.24
2213.56
2195.23
2180.9
2172.85
2172.57
2180.44
2195.65
2216.35
2239.94
2263.59
2284.73
2301.45
2312.78
2318.78
2320.32
2318.85
2315.92
2312.85
2310.37
2308.46
2306.38
2302.88
2296.53
2286.1
2270.94
2251.2
2227.83
2202.53
2177.43
2154.72
2136.34
2123.62
2117.05
2116.21
2119.93
2126.51
2134.21
2141.6
2147.85
2152.82
2157.01
2161.23
2166.35
2172.93
2181.11
2190.41
2199.9
2208.25
2214.14
2216.48
2214.8
2209.23
2200.34
2188.51
2173.61
2154.92
2131.38
2101.8
2065.49
2024.1
1982.57
1945.73
1913.78
1888.66
1868.61
1857.29
1893.85
2243.69
2236.79
2240.76
2255.15
2275.63
2299.78
2323.71
2345.15
2359.82
2364.9
2360.86
2349.36
2331.8
2309.8
2285.82
2262.89
2243.95
2231.14
2225.3
2225.9
2231.44
2240.16
2250.53
2261.49
2272.33
2282.41
2290.92
2296.84
2299.06
2296.69
2289.32
2277.36
2262.12
2245.76
2231.01
2220.77
2217.6
2223.22
2238.15
2261.61
2291.57
2325.1
2358.87
2389.71
2415.1
2433.51
2444.56
2448.88
2447.87
2443.24
2436.59
2429.09
2421.18
2412.59
2402.49
2389.75
2373.38
2352.85
2328.34
2300.82
2271.93
2243.73
2218.4
2197.83
2183.32
2175.41
2173.75
2177.22
2184.15
2192.77
2201.53
2209.43
2216.17
2222.02
2227.63
2233.68
2240.69
2248.68
2257.18
2265.18
2271.28
2273.93
2271.86
2264.44
2251.98
2235.44
2215.91
2193.95
2169.3
2140.96
2107.22
2066.73
2020.99
1975.99
1937.45
1905.97
1882.31
1862.56
1852.92
1885.64
2252.73
2252.94
2256.76
2270.82
2292.32
2316.62
2339.69
2360.18
2374.65
2380.36
2377.14
2366.02
2348.25
2325.49
2300.21
2275.42
2254.09
2238.49
2229.65
2227.17
2229.63
2235.26
2242.57
2250.65
2259.03
2267.39
2275.21
2281.63
2285.55
2285.94
2282.22
2274.57
2264.11
2252.9
2243.63
2239.23
2242.33
2254.76
2277.1
2308.57
2347.03
2389.34
2431.81
2470.83
2503.39
2527.53
2542.47
2548.63
2547.34
2540.41
2529.74
2516.85
2502.65
2487.35
2470.53
2451.41
2429.22
2403.56
2374.61
2343.27
2311.09
2280.01
2252.06
2229.07
2212.35
2202.49
2199.27
2201.72
2208.3
2217.27
2227
2236.36
2244.79
2252.33
2259.39
2266.54
2274.11
2282.15
2290.13
2297.11
2301.64
2302.14
2297.13
2285.87
2268.61
2246.61
2221.46
2194.4
2165.76
2134.73
2099.34
2057.53
2010.42
1964.13
1925.1
1894.65
1872.9
1854.2
1846.86
1872.49
2256.1
2263.9
2267.42
2280.16
2300.8
2322.98
2343.05
2360.78
2373.61
2378.74
2375.33
2363.89
2345.62
2322.31
2296.35
2270.44
2247.21
2228.77
2216.22
2209.44
2207.35
2208.46
2211.5
2215.72
2220.83
2226.74
2233.14
2239.4
2244.56
2247.6
2247.82
2245.23
2240.68
2235.97
2233.56
2236.18
2246.34
2265.82
2295.19
2333.64
2379.01
2428.05
2476.89
2521.65
2559.04
2586.77
2603.83
2610.46
2607.95
2598.23
2583.43
2565.41
2545.5
2524.3
2501.77
2477.44
2450.71
2421.23
2389.14
2355.2
2320.78
2287.61
2257.59
2232.42
2213.42
2201.27
2195.95
2196.73
2202.3
2211.03
2221.31
2231.83
2241.8
2250.98
2259.55
2267.82
2276.1
2284.34
2292.12
2298.54
2302.3
2301.79
2295.52
2282.54
2263.04
2238.24
2210.07
2180.27
2149.79
2118.25
2083.63
2043.39
1997.89
1952.75
1914.4
1885.64
1865.88
1848.93
1843.69
1860.63
2256.39
2270.58
2273.53
2283.75
2301.18
2318.84
2333.57
2346.5
2355.98
2359.04
2354.13
2341.36
2322.03
2298.17
2272.14
2246.19
2222.33
2202.12
2186.47
2175.45
2168.4
2164.36
2162.47
2162.23
2163.57
2166.54
2171.05
2176.7
2182.71
2188.18
2192.42
2195.23
2197.18
2199.67
2204.74
2214.77
2231.97
2257.94
2293.16
2336.84
2386.83
2439.91
2492.19
2539.75
2579.16
2608.02
2625.18
2630.84
2626.3
2613.62
2595.11
2572.94
2548.75
2523.46
2497.3
2469.97
2440.97
2409.88
2376.7
2342
2306.89
2272.9
2241.73
2215.01
2194.03
2179.64
2172.04
2170.82
2174.98
2183.1
2193.6
2205.08
2216.47
2227.24
2237.23
2246.6
2255.48
2263.9
2271.47
2277.51
2280.87
2280.19
2273.95
2261.19
2241.78
2216.84
2188.26
2158.11
2127.85
2097.63
2065.73
2029.35
1988.09
1946.18
1909.85
1883.14
1865.45
1850.31
1846.62
1854.57
2255.35
2273.34
2275.4
2281.79
2293.68
2304.62
2311.94
2318.05
2322.31
2321.59
2313.72
2298.49
2277.4
2252.84
2227.25
2202.49
2179.76
2159.83
2143.01
2129.31
2118.37
2109.77
2103.14
2098.44
2095.83
2095.61
2097.91
2102.58
2109.1
2116.76
2124.85
2133.04
2141.54
2151.25
2163.66
2180.66
2204.03
2235.11
2274.28
2320.78
2372.57
2426.6
2479.14
2526.38
2564.97
2592.54
2607.98
2611.51
2604.52
2589.2
2568.04
2543.42
2517.17
2490.41
2463.5
2436.16
2407.82
2377.89
2346.13
2312.83
2278.84
2245.46
2214.27
2186.81
2164.46
2148.21
2138.55
2135.39
2138.09
2145.48
2156.09
2168.4
2181.14
2193.38
2204.68
2214.9
2224.1
2232.26
2239.21
2244.43
2247.19
2246.36
2240.76
2229.32
2211.77
2188.79
2162.05
2133.61
2105.28
2077.73
2049.73
2018.7
1983.4
1946.48
1913.15
1888.99
1873.05
1859.72
1856.43
1856.44
2253.27
2271.72
2272.51
2274
2278.48
2281.12
2279.61
2277.31
2274.51
2268.26
2255.94
2237.15
2213.62
2188.15
2163.39
2140.9
2121.18
2104.01
2088.89
2075.33
2062.99
2051.75
2041.74
2033.35
2027.15
2023.76
2023.67
2027.04
2033.69
2043.12
2054.7
2067.87
2082.47
2098.82
2117.77
2140.58
2168.56
2202.74
2243.41
2289.89
2340.39
2392.13
2441.72
2485.64
2520.78
2544.96
2557.23
2557.93
2548.58
2531.48
2509.27
2484.42
2458.86
2433.74
2409.37
2385.35
2360.88
2335.07
2307.34
2277.64
2246.57
2215.23
2185.12
2157.83
2134.82
2117.31
2106.05
2101.31
2102.75
2109.49
2120.16
2133.21
2147.11
2160.64
2172.94
2183.64
2192.59
2199.81
2205.23
2208.72
2209.9
2208.23
2202.84
2192.96
2178.02
2158.35
2135.05
2109.92
2084.8
2060.72
2037.17
2012