/*--------------------------------*- C++ -*----------------------------------*\
| =========                 |                                                 |
| \\      /  F ield         | OpenFOAM: The Open Source CFD Toolbox           |
|  \\    /   O peration     | Version:  2406                                  |
|   \\  /    A nd           | Website:  www.openfoam.com                      |
|    \\/     M anipulation  |                                                 |
\*---------------------------------------------------------------------------*/
FoamFile
{
    version     2.0;
    format      ascii;
    arch        "LSB;label=32;scalar=64";
    class       surfaceScalarField;
    location    "7";
    object      phi;
}
// * * * * * * * * * * * * * * * * * * * * * * * * * * * * * * * * * * * * * //

dimensions      [0 3 -1 0 0 0 0];

oriented        oriented;

internalField   nonuniform List<scalar> 
19800
(
-6.82117e-14
3.81641e-14
-1.16763e-13
6.36181e-14
-1.78311e-13
8.23015e-14
-2.02634e-13
1.24927e-13
-1.8299e-13
1.64289e-13
-1.35243e-13
1.8026e-13
-7.72662e-14
1.74397e-13
-7.04734e-15
1.51622e-13
6.82736e-14
1.12824e-13
1.35105e-13
6.24275e-14
1.85439e-13
8.36303e-15
2.1736e-13
-4.42955e-14
2.29856e-13
-9.54538e-14
2.23129e-13
-1.46871e-13
1.99256e-13
-1.99607e-13
1.60737e-13
-2.53262e-13
1.09819e-13
-3.05657e-13
4.93079e-14
-3.5318e-13
-1.69441e-14
-3.92125e-13
-8.4702e-14
-4.20015e-13
-1.50125e-13
-4.3588e-13
-2.09658e-13
-4.39627e-13
-2.59333e-13
-4.31496e-13
-2.94583e-13
-4.12113e-13
-3.11119e-13
-3.82783e-13
-3.06365e-13
-3.45456e-13
-2.80503e-13
-3.02276e-13
-2.36621e-13
-2.55085e-13
-1.8004e-13
-2.05234e-13
-1.17196e-13
-1.53752e-13
-5.44004e-14
-1.01722e-13
3.2421e-15
-5.06581e-14
5.25615e-14
-2.75369e-15
9.25316e-14
3.91163e-14
1.23946e-13
7.16736e-14
1.48711e-13
9.17494e-14
1.69001e-13
9.68661e-14
1.86504e-13
8.57081e-14
2.01914e-13
5.83634e-14
2.14718e-13
1.63393e-14
2.23291e-13
-3.75763e-14
2.25253e-13
-9.95405e-14
2.18021e-13
-1.64946e-13
1.99436e-13
-2.28793e-13
1.68351e-13
-2.86149e-13
1.25066e-13
-3.3266e-13
7.15481e-14
-3.6505e-13
1.14109e-14
-3.81554e-13
-5.03613e-14
-3.82225e-13
-1.07948e-13
-3.69102e-13
-1.55482e-13
-3.46158e-13
-1.8801e-13
-3.1895e-13
-2.02457e-13
-2.93926e-13
-1.9833e-13
-2.77448e-13
-1.77943e-13
-2.74691e-13
-1.46036e-13
-2.88688e-13
-1.08848e-13
-3.1976e-13
-7.28794e-14
-3.65449e-13
-4.36185e-14
-4.20945e-13
-2.45212e-14
-4.79859e-13
-1.64142e-14
-5.35182e-13
-1.73986e-14
-5.80274e-13
-2.32445e-14
-6.09771e-13
-2.82098e-14
-6.20348e-13
-2.61649e-14
-6.11231e-13
-1.18587e-14
-5.84367e-13
1.78877e-14
-5.44204e-13
6.32949e-14
-4.97039e-13
1.21246e-13
-4.5004e-13
1.85543e-13
-4.10097e-13
2.47786e-13
-3.82683e-13
2.98762e-13
-3.70961e-13
3.30072e-13
-3.7525e-13
3.357e-13
-3.92991e-13
3.13197e-13
-4.19191e-13
2.64212e-13
-4.47352e-13
1.94256e-13
-4.70687e-13
1.11753e-13
-4.83475e-13
2.6588e-14
-4.82196e-13
-5.14466e-14
-4.66252e-13
-1.14003e-13
-4.37992e-13
-1.55024e-13
-4.02114e-13
-1.71108e-13
-3.64537e-13
-1.61502e-13
-3.31191e-13
-1.28022e-13
-3.06953e-13
-7.49981e-14
-2.95126e-13
-9.22941e-15
-2.9737e-13
6.04235e-14
-3.14109e-13
1.24105e-13
-3.45074e-13
1.72853e-13
-3.89668e-13
2.00851e-13
-4.46712e-13
2.0685e-13
-5.13444e-13
1.93266e-13
-5.84743e-13
1.62001e-13
-6.53747e-13
1.09636e-13
-7.1325e-13
2.8253e-14
-7.51578e-13
-7.73558e-14
-7.40254e-13
-1.61609e-13
-6.3183e-13
-2.2905e-14
-4.07654e-13
-1.30129e-13
-1.10959e-13
3.07718e-14
-1.99566e-13
6.13205e-14
-2.81274e-13
3.87978e-14
-3.39525e-13
3.42881e-14
-3.43498e-13
5.63534e-14
-2.90574e-13
8.2422e-14
-2.06517e-13
9.62806e-14
-9.69672e-14
9.3992e-14
2.8654e-14
7.79518e-14
1.50502e-13
5.15908e-14
2.49882e-13
1.82584e-14
3.16257e-13
-1.92659e-14
3.45426e-13
-6.01417e-14
3.38533e-13
-1.05504e-13
3.00856e-13
-1.57209e-13
2.38901e-13
-2.16317e-13
1.58328e-13
-2.82089e-13
6.40758e-14
-3.51872e-13
-3.8765e-14
-4.21758e-13
-1.44656e-13
-4.87514e-13
-2.47815e-13
-5.45268e-13
-3.42092e-13
-5.9184e-13
-4.20492e-13
-6.24847e-13
-4.75171e-13
-6.42788e-13
-4.98679e-13
-6.45053e-13
-4.86106e-13
-6.31808e-13
-4.37019e-13
-6.03728e-13
-3.56182e-13
-5.61768e-13
-2.52806e-13
-5.07077e-13
-1.38743e-13
-4.41113e-13
-2.61983e-14
-3.65871e-13
7.4501e-14
-2.84138e-13
1.56596e-13
-1.99685e-13
2.17677e-13
-1.17314e-13
2.59374e-13
-4.26269e-14
2.86109e-13
1.85229e-14
3.03351e-13
6.0866e-14
3.15919e-13
8.06147e-14
3.26768e-13
7.61728e-14
3.36441e-13
4.84478e-14
3.43177e-13
7.04045e-16
3.43513e-13
-6.19644e-14
3.3319e-13
-1.33381e-13
3.08179e-13
-2.07095e-13
2.65666e-13
-2.77128e-13
2.04845e-13
-3.38618e-13
1.27397e-13
-3.88305e-13
3.75878e-14
-4.24865e-13
-5.80399e-14
-4.49031e-13
-1.5138e-13
-4.63488e-13
-2.33826e-13
-4.72486e-13
-2.97575e-13
-4.81178e-13
-3.36981e-13
-4.94743e-13
-3.49666e-13
-5.17435e-13
-3.37062e-13
-5.51744e-13
-3.04188e-13
-5.9788e-13
-2.58612e-13
-6.53702e-13
-2.08845e-13
-7.15091e-13
-1.62537e-13
-7.76669e-13
-1.24909e-13
-8.32642e-13
-9.7771e-14
-8.77619e-13
-7.92869e-14
-9.07259e-13
-6.44917e-14
-9.18721e-13
-4.64422e-14
-9.10932e-13
-1.77819e-14
-8.8469e-13
2.75328e-14
-8.42601e-13
9.2647e-14
-7.8884e-13
1.76657e-13
-7.28709e-13
2.74171e-13
-6.68028e-13
3.75732e-13
-6.12416e-13
4.69127e-13
-5.66592e-13
5.41379e-13
-5.33769e-13
5.81072e-13
-5.15287e-13
5.8051e-13
-5.10515e-13
5.37251e-13
-5.17085e-13
4.54638e-13
-5.3141e-13
3.41236e-13
-5.49458e-13
2.09333e-13
-5.6757e-13
7.2974e-14
-5.83224e-13
-5.40106e-14
-5.95455e-13
-1.59484e-13
-6.04929e-13
-2.33936e-13
-6.13577e-13
-2.70921e-13
-6.24045e-13
-2.67471e-13
-6.39052e-13
-2.24622e-13
-6.60931e-13
-1.4818e-13
-6.9127e-13
-4.91613e-14
-7.3076e-13
5.67441e-14
-7.79101e-13
1.51564e-13
-8.35063e-13
2.19418e-13
-8.96434e-13
2.51644e-13
-9.59471e-13
2.49729e-13
-1.01801e-12
2.22601e-13
-1.06404e-12
1.78992e-13
-1.09324e-12
1.21125e-13
-1.11284e-12
4.95471e-14
-1.13679e-12
-2.3729e-14
-1.1531e-12
-6.31584e-14
-1.09884e-12
8.01058e-14
-8.89802e-13
-4.57033e-13
-1.18026e-13
5.43241e-15
-2.61994e-13
3.96734e-14
-3.47862e-13
2.87349e-14
-4.10971e-13
1.70055e-14
-4.30157e-13
2.95139e-14
-3.94089e-13
5.68235e-14
-3.21457e-13
8.28225e-14
-2.15402e-13
9.53141e-14
-8.62311e-14
8.94808e-14
4.378e-14
6.69255e-14
1.53492e-13
3.21428e-14
2.29593e-13
-1.09246e-14
2.65813e-13
-6.09143e-14
2.62692e-13
-1.18932e-13
2.26455e-13
-1.87437e-13
1.65436e-13
-2.68527e-13
8.7035e-14
-3.62233e-13
-2.83133e-15
-4.65724e-13
-9.89344e-14
-5.73724e-13
-1.96189e-13
-6.79625e-13
-2.89487e-13
-7.76633e-13
-3.73295e-13
-8.58624e-13
-4.40958e-13
-9.20802e-13
-4.8461e-13
-9.60142e-13
-4.96453e-13
-9.7552e-13
-4.71148e-13
-9.6737e-13
-4.08077e-13
-9.37076e-13
-3.12358e-13
-8.86369e-13
-1.94198e-13
-8.17056e-13
-6.69923e-14
-7.31084e-13
5.52254e-14
-6.30861e-13
1.60342e-13
-5.19704e-13
2.40227e-13
-4.02258e-13
2.91873e-13
-2.84726e-13
3.17338e-13
-1.747e-13
3.22577e-13
-8.04619e-14
3.15502e-13
-9.82464e-15
3.03862e-13
3.12273e-14
2.9347e-13
3.96841e-14
2.87157e-13
1.61085e-14
2.8453e-13
-3.54781e-14
2.82454e-13
-1.08353e-13
2.76026e-13
-1.94266e-13
2.59796e-13
-2.84738e-13
2.28997e-13
-3.72237e-13
1.80593e-13
-4.51075e-13
1.1401e-13
-5.17944e-13
3.14751e-14
-5.72089e-13
-6.20462e-14
-6.15157e-13
-1.59334e-13
-6.50755e-13
-2.51794e-13
-6.83769e-13
-3.3069e-13
-7.19491e-13
-3.88578e-13
-7.62634e-13
-4.20676e-13
-8.16396e-13
-4.25806e-13
-8.81718e-13
-4.06608e-13
-9.56944e-13
-3.68878e-13
-1.03796e-12
-3.20164e-13
-1.11882e-12
-2.67974e-13
-1.19264e-12
-2.18081e-13
-1.25269e-12
-1.73324e-13
-1.29327e-12
-1.33176e-13
-1.31044e-12
-9.41276e-14
-1.30237e-12
-5.07331e-14
-1.26948e-12
2.88837e-15
-1.21437e-12
7.14092e-14
-1.14155e-12
1.56796e-13
-1.05698e-12
2.57257e-13
-9.67531e-13
3.66868e-13
-8.80263e-13
4.76041e-13
-8.01662e-13
5.72821e-13
-7.3693e-13
6.44842e-13
-6.89432e-13
6.81547e-13
-6.60359e-13
6.76221e-13
-6.48735e-13
6.2732e-13
-6.51727e-13
5.38816e-13
-6.65295e-13
4.19468e-13
-6.85018e-13
2.81309e-13
-7.07002e-13
1.37789e-13
-7.28588e-13
2.11175e-15
-7.48759e-13
-1.13971e-13
-7.68095e-13
-2.00823e-13
-7.88442e-13
-2.51403e-13
-8.12374e-13
-2.61801e-13
-8.4275e-13
-2.32154e-13
-8.82267e-13
-1.67659e-13
-9.33059e-13
-7.92789e-14
-9.96078e-13
1.68884e-14
-1.07047e-12
1.02445e-13
-1.15317e-12
1.62041e-13
-1.23882e-12
1.89317e-13
-1.31992e-12
1.88739e-13
-1.38661e-12
1.69489e-13
-1.4279e-12
1.35276e-13
-1.4378e-12
8.59173e-14
-1.42685e-12
3.52409e-14
-1.42354e-12
9.77427e-15
-1.44396e-12
1.8224e-14
-1.44069e-12
1.14274e-13
-1.25856e-12
-7.03616e-13
-9.2235e-14
-5.18564e-15
-2.77907e-13
1.30658e-14
-3.835e-13
1.4884e-14
-4.5591e-13
1.33047e-14
-4.89838e-13
3.09859e-14
-4.73895e-13
6.57179e-14
-4.25621e-13
1.01846e-13
-3.44291e-13
1.24554e-13
-2.36172e-13
1.26351e-13
-1.21297e-13
1.06642e-13
-2.07904e-14
6.91904e-14
5.06225e-14
1.81665e-14
8.49993e-14
-4.41561e-14
8.1843e-14
-1.17713e-13
4.76176e-14
-2.04163e-13
-7.83856e-15
-3.05529e-13
-7.52046e-14
-4.22225e-13
-1.47244e-13
-5.51562e-13
-2.18598e-13
-6.87494e-13
-2.85231e-13
-8.21552e-13
-3.43977e-13
-9.44408e-13
-3.91776e-13
-1.04755e-12
-4.24612e-13
-1.12463e-12
-4.36983e-13
-1.17221e-12
-4.22772e-13
-1.18976e-12
-3.77429e-13
-1.1789e-12
-3.00362e-13
-1.14231e-12
-1.96266e-13
-1.08287e-12
-7.48712e-14
-1.00308e-12
5.06912e-14
-9.05238e-13
1.66279e-13
-7.91785e-13
2.59308e-13
-6.65979e-13
3.20999e-13
-5.32439e-13
3.47902e-13
-3.97505e-13
3.42323e-13
-2.69159e-13
3.11551e-13
-1.56398e-13
2.66028e-13
-6.80306e-14
2.16962e-13
-1.11726e-14
1.73965e-13
1.01821e-14
1.43286e-13
-3.95207e-15
1.26939e-13
-4.94932e-14
1.22793e-13
-1.19096e-13
1.25451e-13
-2.03585e-13
1.27627e-13
-2.93634e-13
1.21693e-13
-3.8128e-13
1.01123e-13
-4.6098e-13
6.16448e-14
-5.301e-13
1.98911e-15
-5.88855e-13
-7.57938e-14
-6.39828e-13
-1.66462e-13
-6.87228e-13
-2.62175e-13
-7.36003e-13
-3.53564e-13
-7.90906e-13
-4.31175e-13
-8.55589e-13
-4.87078e-13
-9.31831e-13
-5.1628e-13
-1.01899e-12
-5.17526e-13
-1.11383e-12
-4.93258e-13
-1.21078e-12
-4.48692e-13
-1.3026e-12
-3.90309e-13
-1.38141e-12
-3.24192e-13
-1.43977e-12
-2.54681e-13
-1.47173e-12
-1.83684e-13
-1.47362e-12
-1.10715e-13
-1.44451e-12
-3.36004e-14
-1.3863e-12
5.03987e-14
-1.30349e-12
1.43312e-13
-1.20271e-12
2.45301e-13
-1.09208e-12
3.53861e-13
-9.80274e-13
4.63555e-13
-8.75702e-13
5.66418e-13
-7.85526e-13
6.53013e-13
-7.14902e-13
7.13969e-13
-6.6642e-13
7.41718e-13
-6.39908e-13
7.31976e-13
-6.32637e-13
6.84619e-13
-6.3994e-13
6.03702e-13
-6.5614e-13
4.96687e-13
-6.75669e-13
3.73151e-13
-6.94088e-13
2.43456e-13
-7.0885e-13
1.17677e-13
-7.19576e-13
5.01772e-15
-7.27903e-13
-8.65487e-14
-7.36971e-13
-1.50592e-13
-7.50901e-13
-1.82877e-13
-7.7429e-13
-1.82277e-13
-8.11807e-13
-1.51865e-13
-8.67484e-13
-9.96156e-14
-9.43644e-13
-3.80491e-14
-1.03947e-12
1.83277e-14
-1.14995e-12
5.82502e-14
-1.26586e-12
7.95759e-14
-1.37508e-12
9.00685e-14
-1.46504e-12
9.76161e-14
-1.52583e-12
9.67898e-14
-1.55429e-12
7.39391e-14
-1.55893e-12
3.96417e-14
-1.56113e-12
2.26877e-14
-1.57907e-12
5.18738e-14
-1.58669e-12
9.09764e-14
-1.42499e-12
-8.24943e-13
-5.97342e-14
-4.63816e-15
-2.49981e-13
-8.23493e-15
-3.74258e-13
-1.4161e-14
-4.60178e-13
-1.06585e-14
-5.08153e-13
1.53367e-14
-5.10113e-13
6.16089e-14
-4.84861e-13
1.10125e-13
-4.30052e-13
1.44113e-13
-3.4862e-13
1.54277e-13
-2.57265e-13
1.38331e-13
-1.75816e-13
9.9017e-14
-1.19409e-13
4.04783e-14
-9.68087e-14
-3.41857e-14
-1.09317e-13
-1.23416e-13
-1.50363e-13
-2.27302e-13
-2.08586e-13
-3.46667e-13
-2.72148e-13
-4.81089e-13
-3.31422e-13
-6.27089e-13
-3.79806e-13
-7.77645e-13
-4.13749e-13
-9.23111e-13
-4.32292e-13
-1.05304e-12
-4.35894e-13
-1.15817e-12
-4.24623e-13
-1.23208e-12
-3.96774e-13
-1.27199e-12
-3.48982e-13
-1.27872e-12
-2.78058e-13
-1.25566e-12
-1.83479e-13
-1.20744e-12
-6.9206e-14
-1.13868e-12
5.60161e-14
-1.0533e-12
1.79826e-13
-9.54372e-13
2.88381e-13
-8.44506e-13
3.68876e-13
-7.26381e-13
4.11963e-13
-6.03332e-13
4.13652e-13
-4.79817e-13
3.76266e-13
-3.61601e-13
3.08165e-13
-2.55503e-13
2.22181e-13
-1.68612e-13
1.33084e-13
-1.07088e-13
5.46741e-14
-7.48725e-14
-2.82683e-15
-7.27209e-14
-3.44803e-14
-9.7922e-14
-4.11482e-14
-1.44841e-13
-2.88301e-14
-2.06144e-13
-7.10505e-15
-2.7435e-13
1.28942e-14
-3.43273e-13
2.05381e-14
-4.09012e-13
7.4497e-15
-4.70285e-13
-3.12421e-14
-5.28157e-13
-9.62083e-14
-5.85318e-13
-1.83785e-13
-6.45168e-13
-2.864e-13
-7.10933e-13
-3.93576e-13
-7.84935e-13
-4.93452e-13
-8.68074e-13
-5.74646e-13
-9.59498e-13
-6.28094e-13
-1.05646e-12
-6.48441e-13
-1.15439e-12
-6.34609e-13
-1.24717e-12
-5.89422e-13
-1.32778e-12
-5.18439e-13
-1.38908e-12
-4.28406e-13
-1.42475e-12
-3.25782e-13
-1.43028e-12
-2.15724e-13
-1.40362e-12
-1.01696e-13
-1.3456e-12
1.43379e-14
-1.25994e-12
1.31299e-13
-1.15291e-12
2.4821e-13
-1.03269e-12
3.63436e-13
-9.08526e-13
4.74155e-13
-7.89747e-13
5.7617e-13
-6.8473e-13
6.6416e-13
-5.99947e-13
7.32348e-13
-5.39202e-13
7.75477e-13
-5.03211e-13
7.89846e-13
-4.89606e-13
7.74127e-13
-4.93436e-13
7.29665e-13
-5.08067e-13
6.60214e-13
-5.26406e-13
5.71182e-13
-5.42142e-13
4.68765e-13
-5.50845e-13
3.59236e-13
-5.50611e-13
2.48671e-13
-5.42236e-13
1.42926e-13
-5.28862e-13
4.76884e-14
-5.15397e-13
-3.17896e-14
-5.0787e-13
-9.12371e-14
-5.12953e-13
-1.28175e-13
-5.3741e-13
-1.42664e-13
-5.8726e-13
-1.37954e-13
-6.66219e-13
-1.20508e-13
-7.73728e-13
-9.856e-14
-9.03163e-13
-7.82871e-14
-1.04149e-12
-5.90662e-14
-1.17142e-12
-3.30512e-14
-1.27686e-12
5.70374e-15
-1.3503e-12
4.77403e-14
-1.39666e-12
7.17598e-14
-1.42857e-12
7.25076e-14
-1.45797e-12
5.25004e-14
-1.49158e-12
6.51632e-14
-1.50285e-12
3.04795e-14
-1.36036e-12
-7.9502e-13
-3.42401e-14
-9.6857e-15
-2.09224e-13
-3.84542e-14
-3.33966e-13
-5.83195e-14
-4.26636e-13
-5.62945e-14
-4.82399e-13
-2.38996e-14
-4.96207e-13
3.4078e-14
-4.87437e-13
9.50956e-14
-4.53962e-13
1.40091e-13
-3.97534e-13
1.59103e-13
-3.31822e-13
1.49283e-13
-2.74885e-13
1.1249e-13
-2.41235e-13
5.18272e-14
-2.39448e-13
-2.98936e-14
-2.7094e-13
-1.29982e-13
-3.28763e-13
-2.46136e-13
-3.99735e-13
-3.76434e-13
-4.68982e-13
-5.18186e-13
-5.23758e-13
-6.66544e-13
-5.55569e-13
-8.14005e-13
-5.60969e-13
-9.51129e-13
-5.41251e-13
-1.06811e-12
-5.00776e-13
-1.15665e-12
-4.44312e-13
-1.21153e-12
-3.74588e-13
-1.23154e-12
-2.91537e-13
-1.21937e-12
-1.93662e-13
-1.18058e-12
-8.06363e-14
-1.12204e-12
4.44e-14
-1.05038e-12
1.73925e-13
-9.70975e-13
2.96723e-13
-8.87631e-13
3.9972e-13
-8.02646e-13
4.70403e-13
-7.17229e-13
4.99291e-13
-6.31999e-13
4.82066e-13
-5.47564e-13
4.20921e-13
-4.65085e-13
3.24742e-13
-3.86683e-13
2.07893e-13
-3.15494e-13
8.77237e-14
-2.55249e-13
-1.87009e-14
-2.09467e-13
-9.78844e-14
-1.80548e-13
-1.42402e-13
-1.69123e-13
-1.52052e-13
-1.73938e-13
-1.33472e-13
-1.92339e-13
-9.84322e-14
-2.21166e-13
-6.12987e-14
-2.57717e-13
-3.62985e-14
-3.00448e-13
-3.50986e-14
-3.49168e-13
-6.5054e-14
-4.04732e-13
-1.28246e-13
-4.68374e-13
-2.21295e-13
-5.40956e-13
-3.35876e-13
-6.2236e-13
-4.59867e-13
-7.11174e-13
-5.7905e-13
-8.04679e-13
-6.79177e-13
-8.99043e-13
-7.48093e-13
-9.89599e-13
-7.77483e-13
-1.07115e-12
-7.63876e-13
-1.13829e-12
-7.08672e-13
-1.18579e-12
-6.17275e-13
-1.20907e-12
-4.9764e-13
-1.20477e-12
-3.58682e-13
-1.17133e-12
-2.08943e-13
-1.1094e-12
-5.57501e-14
-1.02206e-12
9.50823e-14
-9.14725e-13
2.39138e-13
-7.94694e-13
3.73042e-13
-6.70498e-13
4.94042e-13
-5.51038e-13
5.99665e-13
-4.4462e-13
6.87541e-13
-3.57998e-13
7.55436e-13
-2.95538e-13
8.01496e-13
-2.58617e-13
8.24608e-13
-2.45418e-13
8.24763e-13
-2.51189e-13
8.03207e-13
-2.68989e-13
7.62296e-13
-2.90842e-13
7.05014e-13
-3.09063e-13
6.34391e-13
-3.17548e-13
5.5306e-13
-3.12706e-13
4.63242e-13
-2.93934e-13
3.67104e-13
-2.63515e-13
2.67297e-13
-2.26158e-13
1.67206e-13
-1.88295e-13
7.08272e-14
-1.57491e-13
-1.77421e-14
-1.41895e-13
-9.47018e-14
-1.49691e-13
-1.56847e-13
-1.88031e-13
-2.01836e-13
-2.61354e-13
-2.28685e-13
-3.69154e-13
-2.37781e-13
-5.04094e-13
-2.29655e-13
-6.51455e-13
-2.03193e-13
-7.91372e-13
-1.56283e-13
-9.05233e-13
-9.03801e-14
-9.85609e-13
-1.47427e-14
-1.04267e-12
5.49677e-14
-1.09587e-12
1.01063e-13
-1.15563e-12
9.02405e-14
-1.21709e-12
7.26549e-14
-1.24256e-12
-3.96987e-14
-1.13122e-12
-6.56965e-13
-2.12917e-14
-1.976e-14
-1.71549e-13
-7.92079e-14
-2.82904e-13
-1.13366e-13
-3.73758e-13
-1.1585e-13
-4.30901e-13
-7.75066e-14
-4.52325e-13
-5.4652e-15
-4.55327e-13
7.30705e-14
-4.3832e-13
1.35879e-13
-4.03287e-13
1.71871e-13
-3.62365e-13
1.78215e-13
-3.32292e-13
1.56286e-13
-3.26362e-13
1.08096e-13
-3.51358e-13
3.55236e-14
-4.07327e-13
-5.83377e-14
-4.86183e-13
-1.69242e-13
-5.72989e-13
-2.9257e-13
-6.50286e-13
-4.23398e-13
-7.0271e-13
-5.55914e-13
-7.2017e-13
-6.8312e-13
-6.99426e-13
-7.97159e-13
-6.43974e-13
-8.90275e-13
-5.62069e-13
-9.56091e-13
-4.63251e-13
-9.90936e-13
-3.54884e-13
-9.94761e-13
-2.40409e-13
-9.71275e-13
-1.20152e-13
-9.27116e-13
6.08267e-15
-8.7035e-13
1.36261e-13
-8.08802e-13
2.64608e-13
-7.48774e-13
3.81787e-13
-6.94357e-13
4.76429e-13
-6.47259e-13
5.37343e-13
-6.06958e-13
5.55864e-13
-5.71078e-13
5.27925e-13
-5.36e-13
4.55513e-13
-4.9775e-13
3.47149e-13
-4.53071e-13
2.17076e-13
-4.0039e-13
8.31013e-14
-3.40366e-13
-3.66047e-14
-2.75805e-13
-1.2705e-13
-2.10971e-13
-1.79424e-13
-1.50596e-13
-1.9279e-13
-9.89591e-14
-1.74038e-13
-5.93391e-14
-1.36185e-13
-3.39414e-14
-9.55226e-14
-2.41548e-14
-6.83333e-14
-3.08812e-14
-6.79325e-14
-5.46884e-14
-1.0253e-13
-9.56731e-14
-1.74142e-13
-1.53093e-13
-2.78524e-13
-2.24963e-13
-4.05946e-13
-3.07827e-13
-5.42627e-13
-3.96853e-13
-6.72644e-13
-4.86242e-13
-7.80125e-13
-5.69836e-13
-8.51449e-13
-6.41732e-13
-8.77091e-13
-6.96775e-13
-8.52787e-13
-7.30859e-13
-7.79756e-13
-7.41096e-13
-6.64012e-13
-7.2593e-13
-5.14985e-13
-6.85256e-13
-3.43845e-13
-6.2057e-13
-1.61935e-13
-5.35076e-13
2.04134e-14
-4.33679e-13
1.94582e-13
-3.22768e-13
3.53925e-13
-2.09782e-13
4.93742e-13
-1.0256e-13
6.11083e-13
-8.55111e-15
7.04513e-13
6.60294e-14
7.73875e-13
1.17006e-13
8.20084e-13
1.42871e-13
8.44934e-13
1.45135e-13
8.50904e-13
1.28259e-13
8.40893e-13
9.91346e-14
8.17866e-13
6.61009e-14
7.8435e-13
3.76774e-14
7.41955e-13
2.12044e-14
6.91019e-13
2.17169e-14
6.30699e-13
4.12303e-14
5.59503e-13
7.86077e-14
4.76214e-13
1.2988e-13
3.80718e-13
1.88905e-13
2.74445e-13
2.48019e-13
1.6023e-13
2.98601e-13
4.20599e-14
3.31459e-13
-7.49502e-14
3.37431e-13
-1.84181e-13
3.08444e-13
-2.77506e-13
2.39441e-13
-3.46186e-13
1.30754e-13
-3.82482e-13
-9.78156e-15
-3.81154e-13
-1.66431e-13
-3.4136e-13
-3.1822e-13
-2.6979e-13
-4.45634e-13
-1.8077e-13
-5.40078e-13
-8.61273e-14
-6.10285e-13
1.21106e-14
-6.76819e-13
9.5718e-14
-7.55016e-13
1.08199e-13
-8.40063e-13
6.9703e-14
-8.86708e-13
-9.93324e-14
-8.19608e-13
-4.66427e-13
-2.32995e-14
-4.86884e-14
-1.40975e-13
-1.3871e-13
-2.33637e-13
-1.85169e-13
-3.15459e-13
-1.90923e-13
-3.68513e-13
-1.45879e-13
-3.94215e-13
-6.00368e-14
-4.06122e-13
3.61456e-14
-4.02287e-13
1.17192e-13
-3.85114e-13
1.70765e-13
-3.66323e-13
1.94708e-13
-3.62408e-13
1.91147e-13
-3.85356e-13
1.61993e-13
-4.38979e-13
1.08485e-13
-5.20406e-13
3.35325e-14
-6.19655e-13
-5.75743e-14
-7.20343e-13
-1.58329e-13
-8.03544e-13
-2.62114e-13
-8.52522e-13
-3.62671e-13
-8.56459e-13
-4.54207e-13
-8.1253e-13
-5.3147e-13
-7.26096e-13
-5.89914e-13
-6.08665e-13
-6.26138e-13
-4.73984e-13
-6.38616e-13
-3.3372e-13
-6.28498e-13
-1.94769e-13
-5.99974e-13
-5.93526e-14
-5.59845e-13
7.25752e-14
-5.16274e-13
2.00278e-13
-4.77167e-13
3.20184e-13
-4.48698e-13
4.25572e-13
-4.34357e-13
5.07735e-13
-4.34546e-13
5.57912e-13
-4.46591e-13
5.69317e-13
-4.65076e-13
5.3888e-13
-4.82511e-13
4.68474e-13
-4.90446e-13
3.65441e-13
-4.8099e-13
2.42159e-13
-4.48488e-13
1.14471e-13
-3.90883e-13
-9.5555e-16
-3.10328e-13
-8.98612e-14
-2.12824e-13
-1.43447e-13
-1.06997e-13
-1.60384e-13
-2.41946e-15
-1.47168e-13
9.19873e-14
-1.16681e-13
1.69098e-13
-8.53483e-14
2.24104e-13
-6.9645e-14
2.54533e-13
-8.2817e-14
2.59995e-13
-1.32503e-13
2.41913e-13
-2.19599e-13
2.03346e-13
-3.3836e-13
1.48852e-13
-4.77483e-13
8.4294e-14
-6.21863e-13
1.64297e-14
-7.5471e-13
-4.76979e-14
-8.59785e-13
-1.01496e-13
-9.23513e-13
-1.395e-13
-9.3672e-13
-1.57837e-13
-8.95699e-13
-1.54408e-13
-8.02448e-13
-1.28813e-13
-6.64038e-13
-8.21515e-14
-4.91296e-13
-1.68029e-14
-2.97115e-13
6.37208e-14
-9.47708e-14
1.5487e-13
1.03486e-13
2.5116e-13
2.874e-13
3.46374e-13
4.49254e-13
4.3394e-13
5.84067e-13
5.07479e-13
6.8954e-13
5.61495e-13
7.65847e-13
5.92118e-13
8.15281e-13
5.97763e-13
8.4177e-13
5.79588e-13
8.5027e-13
5.41628e-13
8.46046e-13
4.90499e-13
8.33911e-13
4.34648e-13
8.17459e-13
3.83225e-13
7.98436e-13
3.44739e-13
7.76353e-13
3.25778e-13
7.48549e-13
3.30051e-13
7.10764e-13
3.57968e-13
6.58215e-13
4.06765e-13
5.86837e-13
4.71103e-13
4.94298e-13
5.43824e-13
3.80393e-13
6.16673e-13
2.46978e-13
6.80737e-13
9.79119e-14
7.26752e-13
-6.03303e-14
7.45416e-13
-2.17631e-13
7.28268e-13
-3.59786e-13
6.69327e-13
-4.69994e-13
5.67617e-13
-5.32269e-13
4.29747e-13
-5.36008e-13
2.71e-13
-4.81288e-13
1.12504e-13
-3.83846e-13
-2.62281e-14
-2.71688e-13
-1.36102e-13
-1.63471e-13
-2.22135e-13
-5.2667e-14
-2.9957e-13
5.02483e-14
-3.85173e-13
8.90797e-14
-4.79283e-13
4.52654e-14
-5.39772e-13
-1.41088e-13
-5.13454e-13
-2.78065e-13
-3.00551e-14
-9.97029e-14
-1.14012e-13
-2.19876e-13
-1.87387e-13
-2.76131e-13
-2.55702e-13
-2.82451e-13
-3.02051e-13
-2.30557e-13
-3.30359e-13
-1.33806e-13
-3.50441e-13
-2.40046e-14
-3.58703e-13
7.08964e-14
-3.56696e-13
1.37427e-13
-3.5625e-13
1.74448e-13
-3.74621e-13
1.85721e-13
-4.23311e-13
1.74303e-13
-5.02875e-13
1.41513e-13
-6.06616e-13
8.99224e-14
-7.21982e-13
2.49948e-14
-8.31465e-13
-4.58306e-14
-9.1586e-13
-1.14934e-13
-9.58634e-13
-1.75906e-13
-9.49472e-13
-2.24299e-13
-8.86415e-13
-2.57655e-13
-7.76256e-13
-2.75055e-13
-6.32762e-13
-2.76619e-13
-4.72737e-13
-2.63492e-13
-3.11254e-13
-2.38303e-13
-1.58157e-13
-2.0567e-13
-1.7374e-14
-1.72159e-13
1.11089e-13
-1.45422e-13
2.27987e-13
-1.32724e-13
3.32345e-13
-1.39394e-13
4.20622e-13
-1.67687e-13
4.87455e-13
-2.16239e-13
5.27224e-13
-2.80073e-13
5.35678e-13
-3.51027e-13
5.11175e-13
-4.18555e-13
4.55469e-13
-4.70988e-13
3.74052e-13
-4.97252e-13
2.75993e-13
-4.88873e-13
1.73088e-13
-4.41818e-13
7.81648e-14
-3.57613e-13
2.68642e-15
-2.43322e-13
-4.58417e-14
-1.10288e-13
-6.59136e-14
2.80106e-14
-6.27861e-14
1.58414e-13
-4.75913e-14
2.70164e-13
-3.49447e-14
3.56188e-13
-3.96738e-14
4.13464e-13
-7.35399e-14
4.42629e-13
-1.4276e-13
4.47193e-13
-2.46813e-13
4.32643e-13
-3.7862e-13
4.05646e-13
-5.25816e-13
3.7337e-13
-6.72721e-13
3.42861e-13
-8.0259e-13
3.20442e-13
-8.99816e-13
3.11143e-13
-9.51878e-13
3.18265e-13
-9.50825e-13
3.43176e-13
-8.94149e-13
3.85395e-13
-7.84925e-13
4.42907e-13
-6.31197e-13
5.12595e-13
-4.44746e-13
5.90646e-13
-2.39475e-13
6.7282e-13
-2.97161e-14
7.54574e-13
1.71288e-13
8.31112e-13
3.52548e-13
8.97463e-13
5.06092e-13
9.48699e-13
6.27352e-13
9.80351e-13
7.15221e-13
9.88974e-13
7.71814e-13
9.728e-13
8.01952e-13
9.32306e-13
8.12366e-13
8.70575e-13
8.10663e-13
7.93293e-13
8.04138e-13
7.08318e-13
7.98579e-13
6.24816e-13
7.97252e-13
5.52055e-13
8.00254e-13
4.98098e-13
8.04411e-13
4.68618e-13
8.03788e-13
4.6615e-13
7.90825e-13
4.89878e-13
7.57827e-13
5.36008e-13
6.9846e-13
5.985e-13
6.08731e-13
6.6998e-13
4.8729e-13
7.42485e-13
3.35231e-13
8.07988e-13
1.56274e-13
8.58571e-13
-4.21229e-14
8.86503e-13
-2.46863e-13
8.84392e-13
-4.38143e-13
8.46021e-13
-5.91045e-13
7.68177e-13
-6.80826e-13
6.53629e-13
-6.91177e-13
5.13607e-13
-6.23568e-13
3.66617e-13
-5.02819e-13
2.31278e-13
-3.68731e-13
1.17476e-13
-2.47205e-13
2.41288e-14
-1.31541e-13
-5.70105e-14
-2.46364e-14
-1.39007e-13
3.5986e-14
-2.23961e-13
-5.60106e-16
-2.80458e-13
-1.6403e-13
-2.75856e-13
-1.30247e-13
-2.75386e-14
-1.63563e-13
-8.41305e-14
-3.16931e-13
-1.39127e-13
-3.82311e-13
-1.92535e-13
-3.87492e-13
-2.32497e-13
-3.29514e-13
-2.63475e-13
-2.24712e-13
-2.92819e-13
-1.04893e-13
-3.13947e-13
4.40297e-16
-3.25844e-13
7.66751e-14
-3.40026e-13
1.23134e-13
-3.75283e-13
1.45325e-13
-4.43816e-13
1.48218e-13
-5.43662e-13
1.34053e-13
-6.64081e-13
1.05155e-13
-7.89542e-13
6.65071e-14
-9.01497e-13
2.54568e-14
-9.81391e-13
-1.0152e-14
-1.01432e-12
-3.40181e-14
-9.91842e-13
-4.27287e-14
-9.13554e-13
-3.60158e-14
-7.87476e-13
-1.59279e-14
-6.2864e-13
1.43794e-14
-4.55576e-13
5.14191e-14
-2.85531e-13
9.1309e-14
-1.30443e-13
1.2922e-13
4.53386e-15
1.59037e-13
1.19599e-13
1.73799e-13
2.17265e-13
1.66936e-13
2.99506e-13
1.33845e-13
3.66384e-13
7.32152e-14
4.16251e-13
-1.22949e-14
4.46882e-13
-1.16074e-13
4.56674e-13
-2.28134e-13
4.45395e-13
-3.36099e-13
4.14479e-13
-4.26555e-13
3.67076e-13
-4.86782e-13
3.08039e-13
-5.06743e-13
2.43769e-13
-4.81032e-13
1.81632e-13
-4.10245e-13
1.28763e-13
-3.01279e-13
9.03563e-14
-1.66287e-13
6.79248e-14
-2.046e-14
5.82134e-14
1.20833e-13
5.33332e-14
2.44765e-13
4.22813e-14
3.42985e-13
1.35094e-14
4.12372e-13
-4.21823e-14
4.54657e-13
-1.29247e-13
4.75235e-13
-2.46108e-13
4.81634e-13
-3.85207e-13
4.82049e-13
-5.34217e-13
4.84166e-13
-6.77995e-13
4.94341e-13
-8.0079e-13
5.17087e-13
-8.88346e-13
5.54804e-13
-9.29638e-13
6.07752e-13
-9.18118e-13
6.74243e-13
-8.5239e-13
7.51052e-13
-7.36267e-13
8.33981e-13
-5.78213e-13
9.18447e-13
-3.90258e-13
9.99961e-13
-1.86537e-13
1.0744e-12
1.83247e-14
1.13807e-12
2.10765e-13
1.18761e-12
3.79606e-13
1.21988e-12
5.17037e-13
1.23204e-12
6.19193e-13
1.22171e-12
6.86326e-13
1.18745e-12
7.22534e-13
1.12925e-12
7.35054e-13
1.04905e-12
7.33128e-13
9.5101e-13
7.26543e-13
8.41437e-13
7.2399e-13
7.28318e-13
7.31527e-13
6.20463e-13
7.51398e-13
5.26384e-13
7.81506e-13
4.53116e-13
8.15653e-13
4.05251e-13
8.44595e-13
3.84379e-13
8.57683e-13
3.89072e-13
8.44775e-13
4.15337e-13
7.97857e-13
4.57422e-13
7.11996e-13
5.08695e-13
5.85365e-13
5.62493e-13
4.18874e-13
6.12712e-13
2.16213e-13
6.54113e-13
-1.473e-14
6.82152e-13
-2.5936e-13
6.92468e-13
-4.94244e-13
6.80326e-13
-6.87978e-13
6.41074e-13
-8.07234e-13
5.72471e-13
-8.28742e-13
4.78452e-13
-7.53875e-13
3.7076e-13
-6.1555e-13
2.64626e-13
-4.6359e-13
1.70597e-13
-3.30027e-13
9.11843e-14
-2.12889e-13
2.30965e-14
-1.09498e-13
-4.15906e-14
-3.35171e-14
-1.01255e-13
-5.5955e-14
-1.35674e-13
-1.69431e-13
-1.29469e-13
-3.77534e-14
-9.57267e-15
-2.28079e-13
-4.67499e-14
-4.16548e-13
-8.34967e-14
-4.92661e-13
-1.21782e-13
-4.9918e-13
-1.5648e-13
-4.39461e-13
-1.90724e-13
-3.31456e-13
-2.31015e-13
-2.06168e-13
-2.67e-13
-9.35614e-14
-2.93319e-13
-9.57214e-15
-3.20095e-13
4.44485e-14
-3.67555e-13
7.50379e-14
-4.49823e-13
8.94136e-14
-5.63718e-13
9.14644e-14
-6.95025e-13
8.36594e-14
-8.25114e-13
7.00526e-14
-9.34324e-13
5.69132e-14
-1.00515e-12
5.12568e-14
-1.02524e-12
5.87276e-14
-9.89095e-13
8.18437e-14
-8.9858e-13
1.19464e-13
-7.62918e-13
1.67665e-13
-5.97666e-13
2.21401e-13
-4.21909e-13
2.75835e-13
-2.53918e-13
3.26642e-13
-1.06906e-13
3.69413e-13
1.31482e-14
3.98926e-13
1.06813e-13
4.09102e-13
1.78472e-13
3.93922e-13
2.3327e-13
3.49e-13
2.75138e-13
2.7311e-13
3.06351e-13
1.6911e-13
3.28107e-13
4.40113e-14
3.4129e-13
-9.16917e-14
3.46842e-13
-2.25177e-13
3.45655e-13
-3.42734e-13
3.38354e-13
-4.31389e-13
3.25331e-13
-4.80672e-13
3.07147e-13
-4.84359e-13
2.84997e-13
-4.41832e-13
2.60821e-13
-3.58599e-13
2.36734e-13
-2.45632e-13
2.1391e-13
-1.17463e-13
1.91376e-13
1.05678e-14
1.65384e-13
1.25236e-13
1.29809e-13
2.17766e-13
7.76126e-14
2.84996e-13
2.96864e-15
3.29213e-13
-9.66681e-14
3.56869e-13
-2.19207e-13
3.76689e-13
-3.57673e-13
3.97702e-13
-5.01062e-13
4.27629e-13
-6.35971e-13
4.71839e-13
-7.48563e-13
5.32865e-13
-8.26447e-13
6.10416e-13
-8.60205e-13
7.01731e-13
-8.44457e-13
8.02176e-13
-7.78423e-13
9.0599e-13
-6.65985e-13
1.00708e-12
-5.15259e-13
1.09971e-12
-3.3773e-13
1.17906e-12
-1.47013e-13
1.2414e-12
4.26169e-14
1.28414e-12
2.17774e-13
1.30556e-12
3.67415e-13
1.30454e-12
4.84039e-13
1.28043e-12
5.64485e-13
1.23305e-12
6.10234e-13
1.1629e-12
6.2712e-13
1.07155e-12
6.24441e-13
9.61948e-13
6.13499e-13
8.38636e-13
6.05734e-13
7.07607e-13
6.10698e-13
5.75897e-13
6.34233e-13
4.50855e-13
6.77228e-13
3.3926e-13
7.35247e-13
2.46458e-13
7.99173e-13
1.75701e-13
8.56744e-13
1.27865e-13
8.94695e-13
1.01549e-13
9.0097e-13
9.3533e-14
8.66515e-13
9.94086e-14
7.8613e-13
1.14324e-13
6.58337e-13
1.33727e-13
4.84639e-13
1.54111e-13
2.6922e-13
1.73513e-13
2.0023e-14
1.91474e-13
-2.48537e-13
2.07991e-13
-5.12492e-13
2.21734e-13
-7.37448e-13
2.28548e-13
-8.83714e-13
2.22187e-13
-9.20448e-13
1.97959e-13
-8.45836e-13
1.57103e-13
-6.97536e-13
1.07285e-13
-5.33816e-13
5.79025e-14
-3.93136e-13
1.4731e-14
-2.79746e-13
-2.22586e-14
-1.83703e-13
-5.66197e-14
-9.88665e-14
-8.03389e-14
-1.05209e-13
-8.13083e-14
-1.60478e-13
-5.67581e-14
8.09249e-15
2.26747e-14
-2.79063e-13
-2.08064e-15
-4.99104e-13
-1.94943e-14
-5.88151e-13
-4.19738e-14
-6.02799e-13
-7.13834e-14
-5.50652e-13
-1.08719e-13
-4.48756e-13
-1.60857e-13
-3.26455e-13
-2.13606e-13
-2.12692e-13
-2.562e-13
-1.2462e-13
-2.95497e-13
-6.56319e-14
-3.52164e-13
-2.92232e-14
-4.42916e-13
-6.07422e-15
-5.65029e-13
1.00442e-14
-7.02039e-13
2.23524e-14
-8.32653e-13
3.39242e-14
-9.36029e-13
4.90751e-14
-9.95658e-13
7.27714e-14
-1.00199e-12
1.08952e-13
-9.52914e-13
1.58826e-13
-8.52976e-13
2.20136e-13
-7.12574e-13
2.87933e-13
-5.4722e-13
3.5638e-13
-3.7565e-13
4.20427e-13
-2.16267e-13
4.76357e-13
-8.30181e-14
5.21118e-13
1.73903e-14
5.51163e-13
8.5682e-14
5.61818e-13
1.27864e-13
5.47759e-13
1.5214e-13
5.04461e-13
1.66384e-13
4.29956e-13
1.76895e-13
3.26109e-13
1.88285e-13
1.98968e-13
2.03756e-13
5.81595e-14
2.25181e-13
-8.4349e-14
2.52796e-13
-2.15754e-13
2.84829e-13
-3.23946e-13
3.17567e-13
-3.98967e-13
3.46126e-13
-4.34373e-13
3.65733e-13
-4.28345e-13
3.72987e-13
-3.84266e-13
3.66488e-13
-3.1044e-13
3.46544e-13
-2.18763e-13
3.14134e-13
-1.22493e-13
2.69704e-13
-3.35921e-14
2.12444e-13
3.96449e-14
1.40465e-13
9.40599e-14
5.18376e-14
1.31813e-13
-5.39277e-14
1.59328e-13
-1.7459e-13
1.85399e-13
-3.04574e-13
2.19028e-13
-4.35254e-13
2.6754e-13
-5.56015e-13
3.35326e-13
-6.55725e-13
4.23309e-13
-7.2427e-13
5.29089e-13
-7.53851e-13
6.47545e-13
-7.39931e-13
7.7174e-13
-6.81778e-13
8.93922e-13
-5.82634e-13
1.00649e-12
-4.49506e-13
1.10283e-12
-2.9258e-13
1.17779e-12
-1.24257e-13
1.22802e-12
4.21243e-14
1.25178e-12
1.93794e-13
1.24878e-12
3.201e-13
1.21969e-12
4.13906e-13
1.16588e-12
4.72612e-13
1.08923e-12
4.98591e-13
9.92133e-13
4.98916e-13
8.77604e-13
4.84323e-13
7.49413e-13