/*--------------------------------*- C++ -*----------------------------------*\
| =========                 |                                                 |
| \\      /  F ield         | OpenFOAM: The Open Source CFD Toolbox           |
|  \\    /   O peration     | Version:  2406                                  |
|   \\  /    A nd           | Website:  www.openfoam.com                      |
|    \\/     M anipulation  |                                                 |
\*---------------------------------------------------------------------------*/
FoamFile
{
    version     2.0;
    format      ascii;
    arch        "LSB;label=32;scalar=64";
    class       volVectorField;
    location    "7";
    object      U;
}
// * * * * * * * * * * * * * * * * * * * * * * * * * * * * * * * * * * * * * //

dimensions      [0 1 -1 0 0 0 0];

internalField   nonuniform List<vector> 
10000
(
(-3.54637e-10 1.69138e-10 0)
(-9.52363e-10 2.70886e-10 0)
(-1.50185e-09 3.82347e-10 0)
(-1.95146e-09 6.40436e-10 0)
(-1.98188e-09 9.12201e-10 0)
(-1.63208e-09 1.04741e-09 0)
(-1.08631e-09 1.03862e-09 0)
(-4.33598e-10 9.22942e-10 0)
(3.07753e-10 7.14669e-10 0)
(1.03433e-09 4.33286e-10 0)
(1.63212e-09 1.20089e-10 0)
(2.04861e-09 -1.9114e-10 0)
(2.27124e-09 -4.94637e-10 0)
(2.29768e-09 -7.96568e-10 0)
(2.14046e-09 -1.10038e-09 0)
(1.82355e-09 -1.40233e-09 0)
(1.37122e-09 -1.69023e-09 0)
(8.08357e-10 -1.94456e-09 0)
(1.68138e-10 -2.1452e-09 0)
(-5.08648e-10 -2.27932e-09 0)
(-1.1813e-09 -2.34291e-09 0)
(-1.81313e-09 -2.33692e-09 0)
(-2.36671e-09 -2.26335e-09 0)
(-2.79878e-09 -2.12578e-09 0)
(-3.06344e-09 -1.93195e-09 0)
(-3.1245e-09 -1.69463e-09 0)
(-2.96891e-09 -1.42903e-09 0)
(-2.61323e-09 -1.14924e-09 0)
(-2.10085e-09 -8.65945e-10 0)
(-1.4925e-09 -5.86556e-10 0)
(-8.53933e-10 -3.16874e-10 0)
(-2.4389e-10 -6.32197e-11 0)
(2.95317e-10 1.6589e-10 0)
(7.42631e-10 3.59004e-10 0)
(1.09763e-09 5.02411e-10 0)
(1.37508e-09 5.82118e-10 0)
(1.59681e-09 5.86553e-10 0)
(1.7833e-09 5.09044e-10 0)
(1.94719e-09 3.49382e-10 0)
(2.08953e-09 1.14301e-10 0)
(2.1993e-09 -1.82854e-10 0)
(2.25571e-09 -5.22945e-10 0)
(2.23301e-09 -8.8225e-10 0)
(2.10647e-09 -1.23418e-09 0)
(1.85872e-09 -1.55159e-09 0)
(1.48498e-09 -1.80956e-09 0)
(9.9639e-10 -1.98833e-09 0)
(4.21101e-10 -2.07599e-09 0)
(-1.97225e-10 -2.07074e-09 0)
(-8.0348e-10 -1.98224e-09 0)
(-1.33783e-09 -1.83177e-09 0)
(-1.74466e-09 -1.65063e-09 0)
(-1.98254e-09 -1.47634e-09 0)
(-2.03287e-09 -1.34705e-09 0)
(-1.90484e-09 -1.29492e-09 0)
(-1.63468e-09 -1.34016e-09 0)
(-1.27895e-09 -1.48725e-09 0)
(-9.03365e-10 -1.72408e-09 0)
(-5.69744e-10 -2.02412e-09 0)
(-3.24191e-10 -2.35083e-09 0)
(-1.8874e-10 -2.66335e-09 0)
(-1.57817e-10 -2.92239e-09 0)
(-1.99783e-10 -3.09581e-09 0)
(-2.63184e-10 -3.16322e-09 0)
(-2.86704e-10 -3.1192e-09 0)
(-2.11464e-10 -2.97448e-09 0)
(6.34818e-12 -2.75473e-09 0)
(3.84707e-10 -2.49677e-09 0)
(9.09204e-10 -2.24273e-09 0)
(1.5323e-09 -2.03306e-09 0)
(2.17916e-09 -1.89967e-09 0)
(2.75927e-09 -1.86036e-09 0)
(3.182e-09 -1.9157e-09 0)
(3.37307e-09 -2.0488e-09 0)
(3.2889e-09 -2.22829e-09 0)
(2.92526e-09 -2.41403e-09 0)
(2.31903e-09 -2.56483e-09 0)
(1.54173e-09 -2.64631e-09 0)
(6.8733e-10 -2.63798e-09 0)
(-1.43667e-10 -2.53669e-09 0)
(-8.58745e-10 -2.35691e-09 0)
(-1.38498e-09 -2.12636e-09 0)
(-1.67446e-09 -1.88013e-09 0)
(-1.70636e-09 -1.65316e-09 0)
(-1.48569e-09 -1.47553e-09 0)
(-1.0434e-09 -1.36892e-09 0)
(-4.35428e-10 -1.34718e-09 0)
(2.58267e-10 -1.41705e-09 0)
(9.41397e-10 -1.58067e-09 0)
(1.51591e-09 -1.83533e-09 0)
(1.90486e-09 -2.1709e-09 0)
(2.07354e-09 -2.56499e-09 0)
(2.03314e-09 -2.98157e-09 0)
(1.81231e-09 -3.38242e-09 0)
(1.39818e-09 -3.73516e-09 0)
(7.08011e-10 -3.97783e-09 0)
(-3.11125e-10 -3.90999e-09 0)
(-1.28721e-09 -3.19701e-09 0)
(-9.94284e-10 -1.87048e-09 0)
(-2.28984e-11 -5.24993e-10 0)
(-5.88547e-10 3.98202e-10 0)
(-1.57552e-09 7.44033e-10 0)
(-2.47223e-09 7.57383e-10 0)
(-3.19264e-09 9.80933e-10 0)
(-3.50934e-09 1.30998e-09 0)
(-3.24922e-09 1.52449e-09 0)
(-2.54624e-09 1.54271e-09 0)
(-1.55607e-09 1.37461e-09 0)
(-3.50592e-10 1.04401e-09 0)
(9.22753e-10 5.99408e-10 0)
(2.05689e-09 1.05056e-10 0)
(2.90124e-09 -3.97456e-10 0)
(3.38268e-09 -9.03226e-10 0)
(3.48868e-09 -1.42896e-09 0)
(3.25479e-09 -1.99024e-09 0)
(2.74435e-09 -2.58947e-09 0)
(2.02014e-09 -3.20903e-09 0)
(1.1349e-09 -3.81391e-09 0)
(1.37887e-10 -4.36356e-09 0)
(-9.17687e-10 -4.8238e-09 0)
(-1.97538e-09 -5.17197e-09 0)
(-2.97615e-09 -5.39411e-09 0)
(-3.85475e-09 -5.48245e-09 0)
(-4.5356e-09 -5.43504e-09 0)
(-4.93887e-09 -5.25754e-09 0)
(-4.99874e-09 -4.96195e-09 0)
(-4.68594e-09 -4.56341e-09 0)
(-4.02212e-09 -4.07637e-09 0)
(-3.0797e-09 -3.51371e-09 0)
(-1.96805e-09 -2.88833e-09 0)
(-8.11943e-10 -2.21662e-09 0)
(2.72099e-10 -1.52173e-09 0)
(1.19617e-09 -8.35753e-10 0)
(1.91386e-09 -1.99621e-10 0)
(2.42261e-09 3.39927e-10 0)
(2.75543e-09 7.3627e-10 0)
(2.96505e-09 9.50326e-10 0)
(3.10588e-09 9.57489e-10 0)
(3.21874e-09 7.52156e-10 0)
(3.32177e-09 3.4901e-10 0)
(3.40836e-09 -2.18727e-10 0)
(3.45094e-09 -9.0319e-10 0)
(3.40894e-09 -1.64707e-09 0)
(3.23883e-09 -2.38946e-09 0)
(2.90457e-09 -3.07205e-09 0)
(2.38677e-09 -3.64509e-09 0)
(1.6892e-09 -4.07286e-09 0)
(8.41818e-10 -4.33794e-09 0)
(-1.00331e-10 -4.44403e-09 0)
(-1.06222e-09 -4.41655e-09 0)
(-1.95788e-09 -4.30058e-09 0)
(-2.7025e-09 -4.15558e-09 0)
(-3.22631e-09 -4.04682e-09 0)
(-3.48745e-09 -4.03473e-09 0)
(-3.48088e-09 -4.16408e-09 0)
(-3.24011e-09 -4.45557e-09 0)
(-2.83082e-09 -4.902e-09 0)
(-2.33693e-09 -5.46953e-09 0)
(-1.84277e-09 -6.10364e-09 0)
(-1.4154e-09 -6.73783e-09 0)
(-1.09131e-09 -7.30331e-09 0)
(-8.70128e-10 -7.73807e-09 0)
(-7.1614e-10 -7.99473e-09 0)
(-5.66959e-10 -8.04646e-09 0)
(-3.47626e-10 -7.89075e-09 0)
(1.23594e-11 -7.55042e-09 0)
(5.61802e-10 -7.07106e-09 0)
(1.31359e-09 -6.51528e-09 0)
(2.23624e-09 -5.95375e-09 0)
(3.25372e-09 -5.45498e-09 0)
(4.25423e-09 -5.0749e-09 0)
(5.10742e-09 -4.84866e-09 0)
(5.68665e-09 -4.78531e-09 0)
(5.89264e-09 -4.8673e-09 0)
(5.67248e-09 -5.05379e-09 0)
(5.03082e-09 -5.28898e-09 0)
(4.02909e-09 -5.51264e-09 0)
(2.77525e-09 -5.67282e-09 0)
(1.40475e-09 -5.73568e-09 0)
(6.08566e-11 -5.69296e-09 0)
(-1.12427e-09 -5.56158e-09 0)
(-2.04035e-09 -5.37957e-09 0)
(-2.607e-09 -5.19515e-09 0)
(-2.77569e-09 -5.05766e-09 0)
(-2.53622e-09 -5.00706e-09 0)
(-1.92142e-09 -5.07075e-09 0)
(-1.01646e-09 -5.26098e-09 0)
(4.25004e-11 -5.57921e-09 0)
(1.07973e-09 -6.01889e-09 0)
(1.91677e-09 -6.56891e-09 0)
(2.42358e-09 -7.20834e-09 0)
(2.56664e-09 -7.8941e-09 0)
(2.412e-09 -8.55801e-09 0)
(2.0582e-09 -9.13242e-09 0)
(1.55137e-09 -9.59945e-09 0)
(8.57906e-10 -9.94119e-09 0)
(2.24572e-11 -9.9273e-09 0)
(-5.78355e-10 -8.9975e-09 0)
(6.19169e-11 -6.66471e-09 0)
(6.9554e-10 -2.9494e-09 0)
(-6.30448e-10 1.96245e-10 0)
(-1.90944e-09 5.19321e-10 0)
(-3.11272e-09 3.52067e-10 0)
(-3.90243e-09 2.58014e-10 0)
(-4.30535e-09 4.20417e-10 0)
(-4.20935e-09 6.77088e-10 0)
(-3.64851e-09 8.70791e-10 0)
(-2.73892e-09 9.17437e-10 0)
(-1.53211e-09 8.03546e-10 0)
(-1.95521e-10 5.56924e-10 0)
(1.04011e-09 2.18367e-10 0)
(1.991e-09 -1.77589e-10 0)
(2.55929e-09 -6.23125e-10 0)
(2.71851e-09 -1.13147e-09 0)
(2.50756e-09 -1.72646e-09 0)
(2.00488e-09 -2.42489e-09 0)
(1.29324e-09 -3.22336e-09 0)
(4.39535e-10 -4.094e-09 0)
(-5.01372e-10 -4.99015e-09 0)
(-1.47894e-09 -5.85757e-09 0)
(-2.44281e-09 -6.64279e-09 0)
(-3.34106e-09 -7.2994e-09 0)
(-4.11337e-09 -7.7908e-09 0)
(-4.68607e-09 -8.0935e-09 0)
(-4.97711e-09 -8.19721e-09 0)
(-4.91617e-09 -8.10326e-09 0)
(-4.46995e-09 -7.81996e-09 0)
(-3.66043e-09 -7.35918e-09 0)
(-2.56666e-09 -6.7345e-09 0)
(-1.31122e-09 -5.96268e-09 0)
(-3.65129e-11 -5.06624e-09 0)
(1.12188e-09 -4.07715e-09 0)
(2.05936e-09 -3.03968e-09 0)
(2.71891e-09 -2.0116e-09 0)
(3.09686e-09 -1.06185e-09 0)
(3.23632e-09 -2.63847e-10 0)
(3.21074e-09 3.14915e-10 0)
(3.10251e-09 6.24367e-10 0)
(2.98254e-09 6.41269e-10 0)
(2.8956e-09 3.73625e-10 0)
(2.85381e-09 -1.40834e-10 0)
(2.83815e-09 -8.41311e-10 0)
(2.80614e-09 -1.65373e-09 0)
(2.70344e-09 -2.50141e-09 0)
(2.47649e-09 -3.3148e-09 0)
(2.08433e-09 -4.03931e-09 0)
(1.50773e-09 -4.64061e-09 0)
(7.54639e-10 -5.10739e-09 0)
(-1.38412e-10 -5.45137e-09 0)
(-1.10905e-09 -5.70472e-09 0)
(-2.07594e-09 -5.91457e-09 0)
(-2.94962e-09 -6.13513e-09 0)
(-3.64623e-09 -6.41804e-09 0)
(-4.10223e-09 -6.80239e-09 0)
(-4.28661e-09 -7.3066e-09 0)
(-4.20717e-09 -7.92389e-09 0)
(-3.90824e-09 -8.62271e-09 0)
(-3.45989e-09 -9.35187e-09 0)
(-2.94106e-09 -1.0049e-08 0)
(-2.42123e-09 -1.06504e-08 0)
(-1.94521e-09 -1.10996e-08 0)
(-1.52467e-09 -1.1354e-08 0)
(-1.13797e-09 -1.13893e-08 0)
(-7.37659e-10 -1.12013e-08 0)
(-2.63798e-10 -1.08059e-08 0)
(3.3969e-10 -1.02379e-08 0)
(1.10873e-09 -9.54742e-09 0)
(2.04569e-09 -8.79492e-09 0)
(3.11195e-09 -8.04509e-09 0)
(4.22805e-09 -7.35925e-09 0)
(5.28296e-09 -6.78847e-09 0)
(6.15062e-09 -6.36742e-09 0)
(6.71212e-09 -6.11109e-09 0)
(6.87746e-09 -6.01355e-09 0)
(6.60381e-09 -6.05098e-09 0)
(5.90346e-09 -6.18654e-09 0)
(4.84264e-09 -6.37902e-09 0)
(3.52837e-09 -6.59042e-09 0)
(2.09209e-09 -6.7946e-09 0)
(6.69592e-10 -6.98013e-09 0)
(-6.1174e-10 -7.15238e-09 0)
(-1.6442e-09 -7.32811e-09 0)
(-2.34247e-09 -7.53234e-09 0)
(-2.65106e-09 -7.79035e-09 0)
(-2.54842e-09 -8.12593e-09 0)
(-2.06066e-09 -8.55469e-09 0)
(-1.26776e-09 -9.08364e-09 0)
(-3.09603e-10 -9.70526e-09 0)
(6.33664e-10 -1.03988e-08 0)
(1.3811e-09 -1.1128e-08 0)
(1.81725e-09 -1.18391e-08 0)
(1.93838e-09 -1.2454e-08 0)
(1.8286e-09 -1.28768e-08 0)
(1.56286e-09 -1.3058e-08 0)
(1.1388e-09 -1.30888e-08 0)
(5.98458e-10 -1.31872e-08 0)
(1.21093e-10 -1.33679e-08 0)
(4.43927e-11 -1.30662e-08 0)
(6.90895e-10 -1.10326e-08 0)
(9.30896e-10 -5.92803e-09 0)
(-4.76679e-10 -9.55691e-12 0)
(-1.82273e-09 2.5084e-10 0)
(-3.37188e-09 1.87934e-10 0)
(-4.30522e-09 1.05319e-10 0)
(-4.82517e-09 2.40868e-10 0)
(-4.89791e-09 5.45741e-10 0)
(-4.56859e-09 8.5848e-10 0)
(-3.9086e-09 1.04289e-09 0)
(-2.93773e-09 1.03603e-09 0)
(-1.78315e-09 8.40055e-10 0)
(-6.68674e-10 4.96064e-10 0)
(2.16043e-10 4.26308e-11 0)
(7.53902e-10 -5.01366e-10 0)
(9.04643e-10 -1.14292e-09 0)
(7.01931e-10 -1.90445e-09 0)
(2.34252e-10 -2.80936e-09 0)
(-3.97396e-10 -3.86225e-09 0)
(-1.10787e-09 -5.03681e-09 0)
(-1.83477e-09 -6.27693e-09 0)
(-2.5319e-09 -7.50601e-09 0)
(-3.16492e-09 -8.64172e-09 0)
(-3.70454e-09 -9.60813e-09 0)
(-4.11733e-09 -1.0347e-08 0)
(-4.35531e-09 -1.08231e-08 0)
(-4.3574e-09 -1.10256e-08 0)
(-4.06544e-09 -1.09618e-08 0)
(-3.44978e-09 -1.06499e-08 0)
(-2.5295e-09 -1.01109e-08 0)
(-1.37858e-09 -9.36531e-09 0)
(-1.15398e-10 -8.43365e-09 0)
(1.11843e-09 -7.34073e-09 0)
(2.18417e-09 -6.12072e-09 0)
(2.97098e-09 -4.82237e-09 0)
(3.41562e-09 -3.51176e-09 0)
(3.5126e-09 -2.27102e-09 0)
(3.31252e-09 -1.19109e-09 0)
(2.90834e-09 -3.5937e-10 0)
(2.41326e-09 1.55375e-10 0)
(1.93574e-09 3.1643e-10 0)
(1.55803e-09 1.26786e-10 0)
(1.32242e-09 -3.71308e-10 0)
(1.22747e-09 -1.10465e-09 0)
(1.23325e-09 -1.98277e-09 0)
(1.27321e-09 -2.9134e-09 0)
(1.26955e-09 -3.8164e-09 0)
(1.14866e-09 -4.63384e-09 0)
(8.54472e-10 -5.33516e-09 0)
(3.58124e-10 -5.91776e-09 0)
(-3.36666e-10 -6.4037e-09 0)
(-1.19263e-09 -6.83358e-09 0)
(-2.14258e-09 -7.25828e-09 0)
(-3.09779e-09 -7.72956e-09 0)
(-3.96096e-09 -8.29025e-09 0)
(-4.64203e-09 -8.9654e-09 0)
(-5.0741e-09 -9.75581e-09 0)
(-5.22514e-09 -1.06356e-08 0)
(-5.10207e-09 -1.15544e-08 0)
(-4.74568e-09 -1.24445e-08 0)
(-4.21771e-09 -1.32305e-08 0)
(-3.58409e-09 -1.38405e-08 0)
(-2.89908e-09 -1.42161e-08 0)
(-2.19466e-09 -1.43195e-08 0)
(-1.47723e-09 -1.41373e-08 0)
(-7.31649e-10 -1.36817e-08 0)
(6.9072e-11 -1.29885e-08 0)
(9.5132e-10 -1.21136e-08 0)
(1.92807e-09 -1.11269e-08 0)
(2.98877e-09 -1.0106e-08 0)
(4.09353e-09 -9.12769e-09 0)
(5.17396e-09 -8.26056e-09 0)
(6.14028e-09 -7.55709e-09 0)
(6.89525e-09 -7.0487e-09 0)
(7.35074e-09 -6.74264e-09 0)
(7.44532e-09 -6.62331e-09 0)
(7.15581e-09 -6.65595e-09 0)
(6.50292e-09 -6.795e-09 0)
(5.54591e-09 -6.9923e-09 0)
(4.37302e-09 -7.20776e-09 0)
(3.08577e-09 -7.4149e-09 0)
(1.78864e-09 -7.60608e-09 0)
(5.78321e-10 -7.78938e-09 0)
(-4.57624e-10 -7.98729e-09 0)
(-1.24701e-09 -8.22872e-09 0)
(-1.7338e-09 -8.54823e-09 0)
(-1.89044e-09 -8.97842e-09 0)
(-1.72372e-09 -9.54875e-09 0)
(-1.28997e-09 -1.0273e-08 0)
(-6.93466e-10 -1.11429e-08 0)
(-7.86116e-11 -1.21172e-08 0)
(4.16028e-10 -1.31238e-08 0)
(7.17921e-10 -1.40642e-08 0)
(8.65095e-10 -1.48239e-08 0)
(9.53492e-10 -1.52967e-08 0)
(9.95962e-10 -1.54358e-08 0)
(8.80746e-10 -1.53496e-08 0)
(5.62284e-10 -1.5308e-08 0)
(2.62766e-10 -1.55044e-08 0)
(3.33278e-10 -1.55522e-08 0)
(7.69894e-10 -1.38192e-08 0)
(6.64451e-10 -7.85442e-09 0)
(-2.7258e-10 -5.42778e-11 0)
(-1.48688e-09 3.33288e-11 0)
(-3.17191e-09 2.2292e-11 0)
(-4.27968e-09 3.57674e-11 0)
(-4.92918e-09 2.53264e-10 0)
(-5.16323e-09 6.54809e-10 0)
(-5.03692e-09 1.07604e-09 0)
(-4.63179e-09 1.35879e-09 0)
(-3.93121e-09 1.41651e-09 0)
(-3.03338e-09 1.23507e-09 0)
(-2.13267e-09 8.45401e-10 0)
(-1.41795e-09 2.9149e-10 0)
(-1.01231e-09 -3.99861e-10 0)
(-9.67053e-10 -1.21988e-09 0)
(-1.25226e-09 -2.17917e-09 0)
(-1.77205e-09 -3.29435e-09 0)
(-2.40301e-09 -4.56759e-09 0)
(-3.03395e-09 -5.96947e-09 0)
(-3.58219e-09 -7.43391e-09 0)
(-3.9978e-09 -8.8687e-09 0)
(-4.25995e-09 -1.01717e-08 0)
(-4.36961e-09 -1.12513e-08 0)
(-4.33255e-09 -1.20405e-08 0)
(-4.14208e-09 -1.25066e-08 0)
(-3.77074e-09 -1.26492e-08 0)
(-3.1814e-09 -1.24925e-08 0)
(-2.35087e-09 -1.20723e-08 0)
(-1.29404e-09 -1.14252e-08 0)
(-7.51587e-11 -1.05828e-08 0)
(1.19681e-09 -9.57184e-09 0)
(2.38604e-09 -8.41794e-09 0)
(3.35407e-09 -7.15223e-09 0)
(3.98568e-09 -5.81697e-09 0)
(4.21121e-09 -4.4699e-09 0)
(4.02164e-09 -3.18446e-09 0)
(3.47225e-09 -2.04489e-09 0)
(2.6732e-09 -1.13545e-09 0)
(1.76808e-09 -5.26038e-10 0)
(9.05453e-10 -2.57829e-10 0)
(2.09946e-10 -3.33674e-10 0)
(-2.40235e-10 -7.16586e-10 0)
(-4.24773e-10 -1.33711e-09 0)
(-3.80227e-10 -2.10757e-09 0)
(-1.88225e-10 -2.93909e-09 0)
(4.33618e-11 -3.75723e-09 0)
(2.01662e-10 -4.51258e-09 0)
(1.88425e-10 -5.18502e-09 0)
(-6.46619e-11 -5.78184e-09 0)
(-5.86161e-10 -6.33144e-09 0)
(-1.36073e-09 -6.87453e-09 0)
(-2.33063e-09 -7.45487e-09 0)
(-3.40291e-09 -8.11049e-09 0)
(-4.46237e-09 -8.86618e-09 0)
(-5.38895e-09 -9.72766e-09 0)
(-6.07713e-09 -1.0678e-08 0)
(-6.45281e-09 -1.1677e-08 0)
(-6.48362e-09 -1.26643e-08 0)
(-6.17986e-09 -1.35656e-08 0)
(-5.58619e-09 -1.43027e-08 0)
(-4.76726e-09 -1.48039e-08 0)
(-3.79167e-09 -1.50143e-08 0)
(-2.71902e-09 -1.49036e-08 0)
(-1.59265e-09 -1.44705e-08 0)
(-4.38961e-10 -1.37431e-08 0)
(7.28265e-10 -1.27762e-08 0)
(1.9003e-09 -1.16457e-08 0)
(3.06545e-09 -1.04404e-08 0)
(4.20215e-09 -9.2528e-09 0)
(5.27532e-09 -8.16928e-09 0)
(6.23638e-09 -7.26036e-09 0)
(7.02831e-09 -6.57303e-09 0)
(7.59377e-09 -6.12534e-09 0)
(7.88636e-09 -5.90593e-09 0)
(7.87958e-09 -5.87668e-09 0)
(7.5738e-09 -5.98136e-09 0)
(6.99515e-09 -6.15523e-09 0)
(6.19149e-09 -6.33846e-09 0)
(5.2218e-09 -6.48518e-09 0)
(4.14995e-09 -6.57271e-09 0)
(3.0372e-09 -6.60146e-09 0)
(1.94409e-09 -6.59528e-09 0)
(9.27608e-10 -6.59271e-09 0)
(4.45164e-11 -6.64495e-09 0)
(-6.57539e-10 -6.8067e-09 0)
(-1.14183e-09 -7.13628e-09 0)
(-1.39649e-09 -7.68267e-09 0)
(-1.43578e-09 -8.47745e-09 0)
(-1.31163e-09 -9.5122e-09 0)
(-1.1017e-09 -1.0729e-08 0)
(-8.87257e-10 -1.20145e-08 0)
(-6.96914e-10 -1.32205e-08 0)
(-4.78006e-10 -1.4202e-08 0)
(-1.47301e-10 -1.48681e-08 0)
(2.76993e-10 -1.52264e-08 0)
(6.236e-10 -1.53815e-08 0)
(7.48333e-10 -1.55137e-08 0)
(6.46344e-10 -1.57657e-08 0)
(6.17909e-10 -1.58731e-08 0)
(4.9959e-10 -1.4321e-08 0)
(1.48017e-10 -8.30527e-09 0)
(-1.30179e-10 -6.28729e-11 0)
(-1.12589e-09 -2.09549e-10 0)
(-2.75288e-09 -3.24708e-10 0)
(-3.8981e-09 -2.88333e-10 0)
(-4.62691e-09 6.0572e-12 0)
(-4.95444e-09 5.25275e-10 0)
(-4.97168e-09 1.06777e-09 0)
(-4.75513e-09 1.45418e-09 0)
(-4.29148e-09 1.58916e-09 0)
(-3.64976e-09 1.44467e-09 0)
(-3.00311e-09 1.04539e-09 0)
(-2.52559e-09 4.26906e-10 0)
(-2.33894e-09 -3.78842e-10 0)
(-2.4936e-09 -1.35031e-09 0)
(-2.96054e-09 -2.47623e-09 0)
(-3.63255e-09 -3.75212e-09 0)
(-4.3617e-09 -5.16373e-09 0)
(-5.00309e-09 -6.66935e-09 0)
(-5.44764e-09 -8.19551e-09 0)
(-5.63493e-09 -9.64384e-09 0)
(-5.55675e-09 -1.09104e-08 0)
(-5.24564e-09 -1.19041e-08 0)
(-4.75273e-09 -1.25654e-08 0)
(-4.11864e-09 -1.28733e-08 0)
(-3.35628e-09 -1.28458e-08 0)
(-2.4537e-09 -1.25285e-08 0)
(-1.3968e-09 -1.19797e-08 0)
(-1.96095e-10 -1.12562e-08 0)
(1.0954e-09 -1.04053e-08 0)
(2.38149e-09 -9.46183e-09 0)
(3.53627e-09 -8.45113e-09 0)
(4.42678e-09 -7.3938e-09 0)
(4.93831e-09 -6.31148e-09 0)
(4.99838e-09 -5.23186e-09 0)
(4.59486e-09 -4.1926e-09 0)
(3.78427e-09 -3.24162e-09 0)
(2.68662e-09 -2.43306e-09 0)
(1.46631e-09 -1.81853e-09 0)
(3.0206e-10 -1.43609e-09 0)
(-6.47411e-10 -1.30052e-09 0)
(-1.27371e-09 -1.39878e-09 0)
(-1.53785e-09 -1.69265e-09 0)
(-1.47411e-09 -2.12803e-09 0)
(-1.17885e-09 -2.64807e-09 0)
(-7.88205e-10 -3.20583e-09 0)
(-4.50541e-10 -3.77302e-09 0)
(-2.99703e-10 -4.34263e-09 0)
(-4.3366e-10 -4.92564e-09 0)
(-9.00799e-10 -5.54362e-09 0)
(-1.69427e-09 -6.21991e-09 0)
(-2.75376e-09 -6.97175e-09 0)
(-3.97404e-09 -7.80487e-09 0)
(-5.21948e-09 -8.71074e-09 0)
(-6.34343e-09 -9.66583e-09 0)
(-7.20987e-09 -1.06324e-08 0)
(-7.71363e-09 -1.15602e-08 0)
(-7.79474e-09 -1.23899e-08 0)
(-7.44369e-09 -1.3058e-08 0)
(-6.69686e-09 -1.35034e-08 0)
(-5.62417e-09 -1.36756e-08 0)
(-4.31302e-09 -1.35423e-08 0)
(-2.85292e-09 -1.30954e-08 0)
(-1.32445e-09 -1.23544e-08 0)
(2.06454e-10 -1.13654e-08 0)
(1.68907e-09 -1.0198e-08 0)
(3.08525e-09 -8.93812e-09 0)
(4.36508e-09 -7.67916e-09 0)
(5.50304e-09 -6.5123e-09 0)
(6.47499e-09 -5.51598e-09 0)
(7.25779e-09 -4.74685e-09 0)
(7.83027e-09 -4.23243e-09 0)
(8.1771e-09 -3.96822e-09 0)
(8.29199e-09 -3.91837e-09 0)
(8.18149e-09 -4.02274e-09 0)
(7.86391e-09 -4.20636e-09 0)
(7.36743e-09 -4.39373e-09 0)
(6.72255e-09 -4.52027e-09 0)
(5.95858e-09 -4.54473e-09 0)
(5.09858e-09 -4.45271e-09 0)
(4.16445e-09 -4.25994e-09 0)
(3.17843e-09 -4.00484e-09 0)
(2.17182e-09 -3.74596e-09 0)
(1.18076e-09 -3.5511e-09 0)
(2.48037e-10 -3.49708e-09 0)
(-5.8792e-10 -3.6585e-09 0)
(-1.28958e-09 -4.1039e-09 0)
(-1.8302e-09 -4.87298e-09 0)
(-2.19078e-09 -5.96146e-09 0)
(-2.37196e-09 -7.29653e-09 0)
(-2.37937e-09 -8.73793e-09 0)
(-2.21039e-09 -1.00971e-08 0)
(-1.84043e-09 -1.12002e-08 0)
(-1.26147e-09 -1.19748e-08 0)
(-5.31775e-10 -1.24961e-08 0)
(2.24947e-10 -1.29245e-08 0)
(8.38652e-10 -1.33675e-08 0)
(1.06346e-09 -1.38408e-08 0)
(8.94694e-10 -1.4024e-08 0)
(1.34166e-10 -1.27275e-08 0)
(-3.86998e-10 -7.39707e-09 0)
(-7.46463e-11 -1.26786e-10 0)
(-8.67182e-10 -5.55792e-10 0)
(-2.29152e-09 -8.22381e-10 0)
(-3.36465e-09 -8.24301e-10 0)
(-4.09257e-09 -4.69838e-10 0)
(-4.46912e-09 1.79447e-10 0)
(-4.58027e-09 8.73955e-10 0)
(-4.50688e-09 1.40787e-09 0)
(-4.23265e-09 1.674e-09 0)
(-3.82494e-09 1.64505e-09 0)
(-3.43853e-09 1.33451e-09 0)
(-3.23744e-09 7.68941e-10 0)
(-3.3264e-09 -2.86397e-11 0)
(-3.74092e-09 -1.02763e-09 0)
(-4.4387e-09 -2.1944e-09 0)
(-5.29983e-09 -3.4957e-09 0)
(-6.15342e-09 -4.89272e-09 0)
(-6.82777e-09 -6.3318e-09 0)
(-7.19015e-09 -7.73834e-09 0)
(-7.17281e-09 -9.02403e-09 0)
(-6.77901e-09 -1.0098e-08 0)
(-6.07339e-09 -1.08852e-08 0)
(-5.15175e-09 -1.13397e-08 0)
(-4.10419e-09 -1.14555e-08 0)
(-2.98563e-09 -1.12654e-08 0)
(-1.81173e-09 -1.08324e-08 0)
(-5.77547e-10 -1.02329e-08 0)
(7.12087e-10 -9.54116e-09 0)
(2.01971e-09 -8.81712e-09 0)
(3.26803e-09 -8.10169e-09 0)
(4.34971e-09 -7.41595e-09 0)
(5.1472e-09 -6.76426e-09 0)
(5.55675e-09 -6.13836e-09 0)
(5.51112e-09 -5.52357e-09 0)
(4.99809e-09 -4.90599e-09 0)
(4.07063e-09 -4.28017e-09 0)
(2.84563e-09 -3.6542e-09 0)
(1.48875e-09 -3.05034e-09 0)
(1.8666e-10 -2.50033e-09 0)
(-8.88224e-10 -2.03724e-09 0)
(-1.61211e-09 -1.68715e-09 0)
(-1.93454e-09 -1.46405e-09 0)
(-1.88698e-09 -1.36992e-09 0)
(-1.57359e-09 -1.39921e-09 0)
(-1.14719e-09 -1.54527e-09 0)
(-7.77113e-10 -1.80558e-09 0)
(-6.16676e-10 -2.1833e-09 0)
(-7.76917e-10 -2.68463e-09 0)
(-1.31023e-09 -3.31311e-09 0)
(-2.20477e-09 -4.06342e-09 0)
(-3.38835e-09 -4.91703e-09 0)
(-4.73991e-09 -5.84116e-09 0)
(-6.10661e-09 -6.79103e-09 0)
(-7.32491e-09 -7.71421e-09 0)
(-8.24312e-09 -8.55551e-09 0)
(-8.74241e-09 -9.26117e-09 0)
(-8.7524e-09 -9.78215e-09 0)
(-8.25834e-09 -1.00769e-08 0)
(-7.29852e-09 -1.01144e-08 0)
(-5.9533e-09 -9.87745e-09 0)
(-4.32901e-09 -9.36643e-09 0)
(-2.5411e-09 -8.60175e-09 0)
(-6.99902e-10 -7.62489e-09 0)
(1.09876e-09 -6.49665e-09 0)
(2.7783e-09 -5.29273e-09 0)
(4.28214e-09 -4.09696e-09 0)
(5.57249e-09 -2.993e-09 0)
(6.62786e-09 -2.05496e-09 0)
(7.44086e-09 -1.3388e-09 0)
(8.01561e-09 -8.74496e-10 0)
(8.36626e-09 -6.61717e-10 0)
(8.51453e-09 -6.68498e-10 0)
(8.4883e-09 -8.35945e-10 0)
(8.3175e-09 -1.08604e-09 0)
(8.031e-09 -1.33513e-09 0)
(7.64985e-09 -1.5061e-09 0)
(7.18452e-09 -1.54248e-09 0)
(6.63105e-09 -1.41468e-09 0)
(5.97701e-09 -1.12578e-09 0)
(5.20608e-09 -7.06276e-10 0)
(4.31149e-09 -2.12227e-10 0)
(3.29819e-09 2.85962e-10 0)
(2.18927e-09 7.0439e-10 0)
(1.01722e-09 9.56182e-10 0)
(-1.7111e-10 9.5121e-10 0)
(-1.3194e-09 6.14023e-10 0)
(-2.35065e-09 -1.04877e-10 0)
(-3.18006e-09 -1.19829e-09 0)
(-3.71953e-09 -2.58938e-09 0)
(-3.90198e-09 -4.12094e-09 0)
(-3.6899e-09 -5.5864e-09 0)
(-3.11299e-09 -6.79393e-09 0)
(-2.28573e-09 -7.66704e-09 0)
(-1.3487e-09 -8.30762e-09 0)
(-3.55197e-10 -8.9165e-09 0)
(6.2001e-10 -9.62135e-09 0)
(1.18959e-09 -1.03659e-08 0)
(1.00983e-09 -1.07366e-08 0)
(-2.39194e-10 -9.84164e-09 0)
(-7.84552e-10 -5.66387e-09 0)
(-1.12757e-10 -3.16369e-10 0)
(-7.34256e-10 -1.04826e-09 0)
(-1.88319e-09 -1.45597e-09 0)
(-2.80667e-09 -1.50116e-09 0)
(-3.47605e-09 -1.08446e-09 0)
(-3.85471e-09 -2.92778e-10 0)
(-4.03421e-09 5.84681e-10 0)
(-4.07063e-09 1.30638e-09 0)
(-3.95272e-09 1.75642e-09 0)
(-3.74462e-09 1.90732e-09 0)
(-3.60175e-09 1.77668e-09 0)
(-3.67937e-09 1.38131e-09 0)
(-4.06184e-09 7.36946e-10 0)
(-4.75182e-09 -1.26123e-10 0)
(-5.68319e-09 -1.1586e-09 0)
(-6.71883e-09 -2.30299e-09 0)
(-7.67464e-09 -3.50066e-09 0)
(-8.36329e-09 -4.68978e-09 0)
(-8.64137e-09 -5.80592e-09 0)
(-8.43804e-09 -6.78179e-09 0)
(-7.76835e-09 -7.55499e-09 0)
(-6.72248e-09 -8.07482e-09 0)
(-5.43531e-09 -8.3149e-09 0)
(-4.04086e-09 -8.28032e-09 0)
(-2.6349e-09 -8.01166e-09 0)
(-1.26048e-09 -7.57727e-09 0)
(7.68925e-11 -7.06026e-09 0)
(1.37914e-09 -6.54092e-09 0)
(2.62722e-09 -6.08345e-09 0)
(3.76899e-09 -5.72703e-09 0)
(4.72411e-09 -5.48324e-09 0)
(5.40119e-09 -5.33639e-09 0)
(5.71857e-09 -5.24713e-09 0)
(5.62399e-09 -5.15862e-09 0)
(5.10976e-09 -5.00692e-09 0)
(4.22199e-09 -4.7342e-09 0)
(3.0614e-09 -4.30258e-09 0)
(1.77341e-09 -3.7041e-09 0)
(5.26462e-10 -2.96353e-09 0)
(-5.18488e-10 -2.13306e-09 0)
(-1.24105e-09 -1.28086e-09 0)
(-1.58817e-09 -4.77876e-10 0)
(-1.58671e-09 2.13174e-10 0)
(-1.33787e-09 7.43904e-10 0)
(-9.94622e-10 1.08159e-09 0)
(-7.28424e-10 1.20759e-09 0)
(-6.93779e-10 1.11552e-09 0)
(-9.98851e-10 8.1089e-10 0)
(-1.68751e-09 3.12388e-10 0)
(-2.73436e-09 -3.46438e-10 0)
(-4.05126e-09 -1.11698e-09 0)
(-5.50215e-09 -1.93822e-09 0)
(-6.92298e-09 -2.74229e-09 0)
(-8.14401e-09 -3.46168e-09 0)
(-9.01214e-09 -4.03631e-09 0)
(-9.41066e-09 -4.41865e-09 0)
(-9.27377e-09 -4.57646e-09 0)
(-8.59331e-09 -4.49324e-09 0)
(-7.41662e-09 -4.16762e-09 0)
(-5.83627e-09 -3.61274e-09 0)
(-3.97435e-09 -2.85588e-09 0)
(-1.96492e-09 -1.93834e-09 0)
(6.18667e-11 -9.1451e-10 0)
(1.99184e-09 1.50299e-10 0)
(3.73426e-09 1.18421e-09 0)
(5.22546e-09 2.11479e-09 0)
(6.4292e-09 2.87663e-09 0)
(7.33553e-09 3.41909e-09 0)
(7.95757e-09 3.71386e-09 0)
(8.32774e-09 3.75994e-09 0)
(8.49175e-09 3.58642e-09 0)
(8.50252e-09 3.24995e-09 0)
(8.41185e-09 2.82898e-09 0)
(8.2636e-09 2.41208e-09 0)
(8.08514e-09 2.08592e-09 0)
(7.88352e-09 1.9204e-09 0)
(7.64167e-09 1.96008e-09 0)
(7.32388e-09 2.21611e-09 0)
(6.88163e-09 2.66918e-09 0)
(6.26935e-09 3.27071e-09 0)
(5.45245e-09 3.95404e-09 0)
(4.41928e-09 4.63655e-09 0)
(3.1765e-09 5.23008e-09 0)
(1.7537e-09 5.63823e-09 0)
(1.98761e-10 5.76816e-09 0)
(-1.40469e-09 5.53335e-09 0)
(-2.93635e-09 4.88024e-09 0)
(-4.23382e-09 3.80513e-09 0)
(-5.12662e-09 2.38581e-09 0)
(-5.46714e-09 7.80543e-10 0)
(-5.19441e-09 -7.94064e-10 0)
(-4.39081e-09 -2.14105e-09 0)
(-3.30406e-09 -3.17329e-09 0)
(-2.18655e-09 -3.96517e-09 0)
(-1.07164e-09 -4.70287e-09 0)
(7.32776e-11 -5.54629e-09 0)
(8.99697e-10 -6.46983e-09 0)
(8.07054e-10 -7.03129e-09 0)
(-6.15821e-10 -6.59295e-09 0)
(-1.01497e-09 -3.69116e-09 0)
(-1.80627e-10 -7.18351e-10 0)
(-6.5004e-10 -1.75561e-09 0)
(-1.51032e-09 -2.27271e-09 0)
(-2.25812e-09 -2.33612e-09 0)
(-2.82857e-09 -1.85016e-09 0)
(-3.19105e-09 -9.30778e-10 0)
(-3.4262e-09 1.06948e-10 0)
(-3.56736e-09 9.95397e-10 0)
(-3.58565e-09 1.60335e-09 0)
(-3.54484e-09 1.91584e-09 0)
(-3.60464e-09 1.96013e-09 0)
(-3.92615e-09 1.76044e-09 0)
(-4.5733e-09 1.32776e-09 0)
(-5.51152e-09 6.89834e-10 0)
(-6.63916e-09 -9.80654e-11 0)
(-7.80154e-09 -9.64608e-10 0)
(-8.80742e-09 -1.83661e-09 0)
(-9.47066e-09 -2.65057e-09 0)
(-9.65065e-09 -3.35464e-09 0)
(-9.2839e-09 -3.91116e-09 0)
(-8.39589e-09 -4.29245e-09 0)
(-7.09569e-09 -4.48265e-09 0)
(-5.54473e-09 -4.47941e-09 0)
(-3.91105e-09 -4.30214e-09 0)
(-2.32339e-09 -3.99502e-09 0)
(-8.49619e-10 -3.62593e-09 0)
(4.95884e-10 -3.27461e-09 0)
(1.72255e-09 -3.01795e-09 0)
(2.83294e-09 -2.91396e-09 0)
(3.80465e-09 -2.99182e-09 0)
(4.59095e-09 -3.24651e-09 0)
(5.13362e-09 -3.63923e-09 0)
(5.38031e-09 -4.10061e-09 0)
(5.29943e-09 -4.53834e-09 0)
(4.89044e-09 -4.84897e-09 0)
(4.18944e-09 -4.9347e-09 0)
(3.27042e-09 -4.72237e-09 0)
(2.24037e-09 -4.18019e-09 0)
(1.22656e-09 -3.32684e-09 0)
(3.55449e-10 -2.2295e-09 0)
(-2.73472e-10 -9.91087e-10 0)
(-6.12343e-10 2.69529e-10 0)
(-6.80024e-10 1.43839e-09 0)
(-5.61744e-10 2.42305e-09 0)
(-3.9196e-10 3.1618e-09 0)
(-3.2457e-10 3.62559e-09 0)
(-4.98474e-10 3.81471e-09 0)
(-1.00745e-09 3.75353e-09 0)
(-1.88119e-09 3.48517e-09 0)
(-3.08033e-09 3.06695e-09 0)
(-4.50438e-09 2.566e-09 0)
(-6.00878e-09 2.05405e-09 0)
(-7.42675e-09 1.60103e-09 0)
(-8.59213e-09 1.26813e-09 0)
(-9.36061e-09 1.10183e-09 0)
(-9.62729e-09 1.13013e-09 0)
(-9.33874e-09 1.36189e-09 0)
(-8.49822e-09 1.78873e-09 0)
(-7.16317e-09 2.38839e-09 0)
(-5.43566e-09 3.12806e-09 0)
(-3.44753e-09 3.96679e-09 0)
(-1.34333e-09 4.85684e-09 0)
(7.36234e-10 5.74468e-09 0)
(2.66788e-09 6.57262e-09 0)
(4.35552e-09 7.28185e-09 0)
(5.73587e-09 7.81745e-09 0)
(6.78075e-09 8.13459e-09 0)
(7.49587e-09 8.20569e-09 0)
(7.91742e-09 8.02626e-09 0)
(8.10497e-09 7.61926e-09 0)
(8.13279e-09 7.0351e-09 0)
(8.07773e-09 6.34846e-09 0)
(8.00784e-09 5.64914e-09 0)
(7.96985e-09 5.03123e-09 0)
(7.98178e-09 4.57824e-09 0)
(8.02728e-09 4.3524e-09 0)
(8.05965e-09 4.38394e-09 0)
(8.00787e-09 4.67057e-09 0)
(7.79338e-09 5.17714e-09 0)
(7.3424e-09 5.84608e-09 0)
(6.60318e-09 6.60158e-09 0)
(5.54746e-09 7.36194e-09 0)
(4.17545e-09 8.03845e-09 0)
(2.50797e-09 8.54425e-09 0)
(5.99887e-10 8.78893e-09 0)
(-1.45119e-09 8.69237e-09 0)
(-3.478e-09 8.18936e-09 0)
(-5.25282e-09 7.26158e-09 0)
(-6.51043e-09 5.95698e-09 0)
(-7.02765e-09 4.41585e-09 0)
(-6.71184e-09 2.84086e-09 0)
(-5.70606e-09 1.42866e-09 0)
(-4.37327e-09 2.75119e-10 0)
(-3.07621e-09 -6.51508e-10 0)
(-1.88301e-09 -1.47266e-09 0)
(-7.00811e-10 -2.34246e-09 0)
(2.58001e-10 -3.27111e-09 0)
(3.0677e-10 -3.89165e-09 0)
(-9.86613e-10 -3.78221e-09 0)
(-1.09413e-09 -1.96534e-09 0)
(-1.93148e-10 -1.30631e-09 0)
(-4.98585e-10 -2.66757e-09 0)
(-1.11405e-09 -3.27471e-09 0)
(-1.68409e-09 -3.32985e-09 0)
(-2.14891e-09 -2.77366e-09 0)
(-2.49411e-09 -1.75632e-09 0)
(-2.79422e-09 -5.97343e-10 0)
(-3.05016e-09 4.12468e-10 0)
(-3.20526e-09 1.13412e-09 0)
(-3.30577e-09 1.55824e-09 0)
(-3.52179e-09 1.73271e-09 0)
(-4.02824e-09 1.69622e-09 0)
(-4.88228e-09 1.46569e-09 0)
(-6.0121e-09 1.06528e-09 0)
(-7.2784e-09 5.47985e-10 0)
(-8.5042e-09 -9.91486e-12 0)
(-9.49819e-09 -5.29892e-10 0)
(-1.00862e-08 -9.46911e-10 0)
(-1.01472e-08 -1.22261e-09 0)
(-9.63464e-09 -1.34393e-09 0)
(-8.58833e-09 -1.3187e-09 0)
(-7.12849e-09 -1.16429e-09 0)
(-5.43164e-09 -9.05639e-10 0)
(-3.68542e-09 -5.7593e-10 0)
(-2.04157e-09 -2.2366e-10 0)
(-5.85653e-10 8.73419e-11 0)
(6.61866e-10 2.83304e-10 0)
(1.72065e-09 2.95237e-10 0)
(2.61752e-09 7.38098e-11 0)
(3.36411e-09 -3.97633e-10 0)
(3.9512e-09 -1.09759e-09 0)
(4.35715e-09 -1.96613e-09 0)
(4.56073e-09 -2.91026e-09 0)
(4.55163e-09 -3.81259e-09 0)
(4.33546e-09 -4.54469e-09 0)
(3.93516e-09 -4.98454e-09 0)
(3.39102e-09 -5.03717e-09 0)
(2.76019e-09 -4.65415e-09 0)
(2.11338e-09 -3.84664e-09 0)
(1.52604e-09 -2.6868e-09 0)
(1.06326e-09 -1.29595e-09 0)
(7.61332e-10 1.78036e-10 0)
(6.12466e-10 1.58815e-09 0)
(5.59253e-10 2.81304e-09 0)
(5.03102e-10 3.7735e-09 0)
(3.25715e-10 4.43803e-09 0)
(-8.20692e-11 4.81874e-09 0)
(-7.92363e-10 4.96105e-09 0)
(-1.82094e-09 4.93128e-09 0)
(-3.12097e-09 4.8051e-09 0)
(-4.5899e-09 4.65821e-09 0)
(-6.08611e-09 4.55905e-09 0)
(-7.45065e-09 4.56321e-09 0)
(-8.52943e-09 4.70911e-09 0)
(-9.19282e-09 5.01551e-09 0)
(-9.35083e-09 5.48135e-09 0)
(-8.96289e-09 6.08809e-09 0)
(-8.04148e-09 6.80417e-09 0)
(-6.64966e-09 7.59019e-09 0)
(-4.89249e-09 8.40349e-09 0)
(-2.90402e-09 9.20106e-09 0)
(-8.3137e-10 9.94048e-09 0)
(1.18146e-09 1.058e-08 0)
(3.00829e-09 1.10781e-08 0)
(4.55244e-09 1.13955e-08 0)
(5.75468e-09 1.14975e-08 0)
(6.59694e-09 1.13599e-08 0)
(7.10202e-09 1.09743e-08 0)
(7.32844e-09 1.03541e-08 0)
(7.36146e-09 9.53681e-09 0)
(7.29935e-09 8.58465e-09 0)
(7.2381e-09 7.57887e-09 0)
(7.2541e-09 6.6118e-09 0)
(7.39101e-09 5.77389e-09 0)
(7.6495e-09 5.14229e-09 0)
(7.98722e-09 4.76826e-09 0)
(8.32354e-09 4.67259e-09 0)
(8.55595e-09 4.84204e-09 0)
(8.57593e-09 5.23678e-09 0)
(8.29099e-09 5.79465e-09 0)
(7.63416e-09 6.44483e-09 0)
(6.57323e-09 7.11069e-09 0)
(5.10224e-09 7.72137e-09 0)
(3.2444e-09 8.20699e-09 0)
(1.05177e-09 8.50557e-09 0)
(-1.36557e-09 8.55285e-09 0)
(-3.82109e-09 8.29321e-09 0)
(-6.03133e-09 7.68287e-09 0)
(-7.65657e-09 6.72765e-09 0)
(-8.38282e-09 5.50524e-09 0)
(-8.08115e-09 4.17545e-09 0)
(-6.93218e-09 2.91197e-09 0)
(-5.40255e-09 1.82253e-09 0)
(-3.9451e-09 9.15747e-10 0)
(-2.69455e-09 1.33864e-10 0)
(-1.54238e-09 -6.30959e-10 0)
(-5.39988e-10 -1.38387e-09 0)
(-3.39379e-10 -1.86822e-09 0)
(-1.29481e-09 -1.85565e-09 0)
(-1.05961e-09 -7.58091e-10 0)
(-1.07281e-10 -1.96945e-09 0)