/*--------------------------------*- C++ -*----------------------------------*\
| =========                 |                                                 |
| \\      /  F ield         | OpenFOAM: The Open Source CFD Toolbox           |
|  \\    /   O peration     | Version:  2406                                  |
|   \\  /    A nd           | Website:  www.openfoam.com                      |
|    \\/     M anipulation  |                                                 |
\*---------------------------------------------------------------------------*/
FoamFile
{
    version     2.0;
    format      ascii;
    arch        "LSB;label=32;scalar=64";
    class       volScalarField;
    location    "0.55";
    object      epsilon;
}
// * * * * * * * * * * * * * * * * * * * * * * * * * * * * * * * * * * * * * //

dimensions      [0 2 -3 0 0 0 0];

internalField   nonuniform List<scalar> 
2268
(
3.11056
4.22461
4.22461
4.22461
4.22461
4.22461
4.22461
4.22461
4.22461
4.22461
4.22461
4.22461
4.22461
0.0898084
0.0416313
0.0610449
0.0738135
0.0805202
0.0814902
0.0762324
0.0635402
0.0416407
0.0100222
1.99652
3.53904
3.87395
3.99094
4.04704
4.07915
4.09939
4.11284
4.12192
4.12796
4.13166
4.13343
4.13343
0.115035
0.0365948
0.0404071
0.0453838
0.0481633
0.0483956
0.0457864
0.0398312
0.030023
0.0179956
1.99652
3.12319
3.57196
3.77087
3.87483
3.93633
3.9757
4.00204
4.01992
4.03183
4.03915
4.04264
4.04264
0.130337
0.0423096
0.0408921
0.0436002
0.0453486
0.0453879
0.0434209
0.039148
0.0325283
0.0286417
1.99652
2.85875
3.32579
3.572
3.71211
3.79847
3.85491
3.89313
3.91926
3.93673
3.9475
3.95264
3.95264
0.143335
0.048339
0.0437627
0.0450781
0.0462139
0.0461616
0.0446176
0.0414286
0.0368762
0.038589
1.99652
2.68257
3.12893
3.39682
3.5614
3.66728
3.7382
3.78692
3.82053
3.84312
3.8571
3.86379
3.86379
0.154281
0.0538272
0.0469861
0.0472416
0.0479052
0.0478047
0.0466525
0.0444656
0.0419178
0.0487742
1.99652
2.55993
2.97193
3.24473
3.4238
3.54389
3.62645
3.68408
3.72426
3.75145
3.76833
3.77643
3.77643
0.163705
0.0586738
0.0500147
0.0493805
0.0496399
0.0495126
0.0487507
0.0476103
0.0475187
0.061308
1.99652
2.47111
2.84601
3.11357
3.29936
3.4289
3.52027
3.58515
3.63089
3.66207
3.68152
3.69087
3.69087
0.17201
0.0628925
0.0526167
0.0511819
0.0510741
0.0509247
0.0505328
0.0504585
0.0536275
0.0828035
1.99652
2.40455
2.74407
3.00066
3.1875
3.32242
3.42
3.49049
3.54076
3.57531
3.59697
3.60741
3.60741
0.179463
0.0664733
0.0546403
0.0524539
0.0520033
0.0518228
0.0517348
0.0525441
0.0592827
0.140037
0.0113248
0.0492086
0.0766224
0.0948491
0.106709
0.114291
0.118931
0.121452
0.12233
0.121797
0.119885
0.116465
0.111275
0.103944
0.0940002
0.0808442
0.0636293
0.0409731
0.0117107
0.0186703
0.0336078
0.0456579
0.0538492
0.0591877
0.0625768
0.0646333
0.0657482
0.0661518
0.0659552
0.065174
0.0637434
0.0615277
0.0583251
0.0538664
0.0478021
0.0396862
0.02908
0.0172186
0.0297813
0.035482
0.0435726
0.0493321
0.0531468
0.055578
0.0570512
0.0578492
0.0581417
0.0580103
0.0574653
0.0564546
0.0548683
0.0525373
0.0492292
0.0446459
0.0384619
0.0306477
0.0255662
0.0404622
0.0396877
0.0452307
0.0495107
0.0524459
0.0543466
0.0555053
0.0561334
0.0563619
0.0562538
0.0558148
0.0549988
0.0537084
0.051791
0.0490333
0.0451662
0.0399408
0.0335955
0.0328594
0.0516841
0.0447119
0.0478186
0.0508123
0.0530312
0.0545182
0.0554382
0.0559382
0.0561157
0.0560177
0.0556451
0.0549556
0.0538611
0.0522216
0.0498396
0.046471
0.0419259
0.0366355
0.0392438
0.0657605
0.050244
0.050513
0.0522516
0.0538228
0.0549486
0.0556643
0.0560554
0.0561882
0.0560946
0.0557714
0.0551788
0.0542369
0.0528174
0.0507393
0.0477847
0.043818
0.0394319
0.0449625
0.0896895
0.0560498
0.0528491
0.0533917
0.0543821
0.0551891
0.0557259
0.0560219
0.0561149
0.0560235
0.0557399
0.0552271
0.0544122
0.0531793
0.0513657
0.0487847
0.0453606
0.0418524
0.0502155
0.149284
0.061033
0.0543921
0.0539798
0.0544885
0.0550244
0.0554081
0.0556225
0.0556809
0.0555901
0.0553388
0.0548918
0.0541834
0.0531102
0.0515305
0.0492951
0.0464016
0.0438094
0.0551449
1.99652
2.32441
2.61366
2.8485
3.03072
3.169
3.27269
3.34955
3.40535
3.44417
3.46869
3.48056
3.48056
0.189894
0.0709481
0.0567344
0.05346
0.0525217
0.0522729
0.0524919
0.053837
0.0588777
0.0777923
1.99652
2.25444
2.49121
2.69466
2.86183
2.99522
3.0994
3.17908
3.23831
3.2802
3.30696
3.32
3.31999
0.200895
0.0760141
0.0594333
0.0550542
0.0535745
0.0531314
0.0533487
0.0544897
0.057474
0.064151
1.99652
2.20583
2.40242
2.57749
2.72709
2.85096
2.95085
3.02929
3.08879
3.13151
3.15909
3.17261
3.17261
0.209482
0.0801912
0.0618628
0.0566513
0.0547202
0.0540329
0.0540749
0.0548478
0.0566272
0.0597716
1.99652
2.17008
2.33538
2.48605
2.61836
2.73093
2.82399
2.89863
2.95623
2.99813
3.02542
3.03888
3.03888
0.216341
0.0835942
0.0638912
0.0580275
0.0557185
0.0547847
0.0546129
0.0550678
0.0562036
0.0581234
1.99652
2.14267
2.28313
2.41317
2.52956
2.6306
2.71574
2.78519
2.83954
2.87951
2.90575
2.91875
2.91874
0.221905
0.0863825
0.0655502
0.0591573
0.0565308
0.0553724
0.0550015
0.0552143
0.0559895
0.0573876
1.99652
2.12103
2.24141
2.35406
2.45629
2.54635
2.62335
2.687
2.73737
2.77476
2.79946
2.81175
2.81174
0.226454
0.0886808
0.0669004
0.0600687
0.0571762
0.0558242
0.055284
0.0553158
0.0558686
0.0569917
1.99652
2.10357
2.2075
2.30549
2.3953
2.4753
2.54446
2.60222
2.64834
2.68282
2.70573
2.71716
2.71716
0.230188
0.0905835
0.0680003
0.0608018
0.057688
0.0561743
0.0554963
0.0553924
0.0557965
0.0567501
1.99652
2.08927
2.17958
2.2652
2.34423
2.41521
2.47709
2.52918
2.57108
2.60259
2.62361
2.63412
2.63412
0.233259
0.0921641
0.0689
0.0613945
0.0580979
0.0564525
0.0556651
0.0554595
0.05576
0.0566006
1.99652
2.07744
2.1564
2.23155
2.3013
2.36432
2.41961
2.46645
2.50433
2.53294
2.5521
2.5617
2.5617
0.235791
0.0934829
0.0696414
0.0618789
0.0584323
0.0566809
0.0558083
0.0555269
0.0557542
0.0565178
1.99652
2.0676
2.13707
2.20338
2.26516
2.32124
2.37068
2.41276
2.44695
2.47286
2.49025
2.49898
2.49898
0.237892
0.0945927
0.0702603
0.0622819
0.0587114
0.0568748
0.0559361
0.0555987
0.0557744
0.0564855
1.99652
2.0594
2.12093
2.17978
2.23477
2.28487
2.3292
2.36706
2.39792
2.42138
2.43716
2.44509
2.44509
0.239657
0.095543
0.0707899
0.062627
0.0589518
0.0570451
0.056054
0.0556745
0.0558137
0.0564892
1.99652
2.05259
2.10748
2.16008
2.20934
2.25433
2.29425
2.32844
2.35638
2.37766
2.392
2.39922
2.39922
0.241179
0.0963855
0.071264
0.0629365
0.0591677
0.0571993
0.0561644
0.055752
0.0558645
0.0565156
1.99652
2.04695
2.09636
2.14376
2.18822
2.22891
2.26509
2.29614
2.32156
2.34096
2.35405
2.36064
2.36064
0.242564
0.0971822
0.0717211
0.0632339
0.0593719
0.0573433
0.056268
0.0558276
0.0559196
0.0565534
1.99652
2.04235
2.08728
2.13041
2.17092
2.20804
2.2411
2.26953
2.29284
2.31064
2.32267
2.32872
2.32872
0.243954
0.0980182
0.0722093
0.0635439
0.0595755
0.0574805
0.0563636
0.0558973
0.0559725
0.0565938
1.99652
2.03867
2.08
2.11971
2.15703
2.19128
2.22181
2.24809
2.26967
2.28616
2.29731
2.30293
2.30293
0.245581
0.0990227
0.0727869
0.0638882
0.0597834
0.0576089
0.056447
0.0559559
0.0560175
0.0566299
1.99652
2.03582
2.07437
2.11142
2.14627
2.17827
2.20682
2.23142
2.25163
2.26709
2.27755
2.28282
2.28282
0.247885
0.10039
0.0735079
0.0642684
0.0599834
0.0577159
0.0565081
0.0559959
0.0560487
0.0566568
1.99652
2.03374
2.07025
2.10535
2.13839
2.16873
2.19583
2.21919
2.23839
2.25309
2.26303
2.26804
2.26804
0.251771
0.10233
0.0743422
0.0646206
0.0601264
0.0577707
0.0565291
0.0560072
0.0560599
0.0566703
1.99652
2.03237
2.06755
2.10138
2.13322
2.16248
2.18862
2.21116
2.22969
2.24389
2.25349
2.25833
2.25833
0.258676
0.10452
0.074914
0.0647288
0.0601045
0.0577213
0.056485
0.0559778
0.0560455
0.0566675
1.99652
2.0317
2.06622
2.09941
2.13066
2.15939
2.18505
2.20718
2.22539
2.23933
2.24876
2.25352
2.25352
0.260366
0.10317
0.0739423
0.0641572
0.0597618
0.057509
0.0563529
0.0558985
0.056002
0.0566475
1.99652
2.0317
2.06622
2.09941
2.13066
2.15939
2.18505
2.20718
2.22538
2.23933
2.24876
2.25352
0.357356
0.131493
0.0852363
0.06948
0.06254
0.0590173
0.0571141
0.0561286
0.0557695
0.0559306
0.0566115
0.167439
0.191541
0.207869
0.219049
0.226906
0.232585
0.23687
0.240428
0.244012
0.248772
0.256328
0.258531
0.131074
0.0900712
0.0733257
0.0650922
0.0606241
0.0580684
0.0566015
0.0558382
0.0556035
0.0558384
0.0565639
0.0492781
0.0590262
0.0705289
0.0788832
0.0848668
0.08922
0.0925041
0.0951824
0.097689
0.100407
0.103133
0.102175
0.0847858
0.0731665
0.0660626
0.0616457
0.0588596
0.0571082
0.0560559
0.0555216
0.0554206
0.0557364
0.0565109
0.0545158
0.0471299
0.0526834
0.0579666
0.0621337
0.0653004
0.0677254
0.069666
0.0713354
0.0728235
0.0738428
0.0731936
0.0690301
0.0648493
0.0615413
0.0591124
0.0574002
0.056248
0.0555421
0.0552148
0.0552411
0.0556361
0.0564594
0.064712
0.047523
0.0495345
0.0528191
0.0557363
0.0580637
0.0598724
0.0612924
0.0624312
0.0633115
0.0637856
0.0634762
0.062068
0.0603089
0.0586619
0.0573004
0.0562617
0.0555341
0.0550979
0.0549436
0.0550812
0.0555476
0.0564155
0.0727943
0.0495596
0.049436
0.0514261
0.0534736
0.0551873
0.056535
0.0575754
0.0583676
0.0589268
0.0591971
0.0590647
0.058481
0.0576565
0.0567963
0.0560261
0.0554094
0.0549753
0.0547404
0.0547228
0.0549521
0.0554786
0.0563844
0.0789003
0.0515239
0.0500453
0.0511849
0.0526269
0.0538918
0.0548944
0.0556561
0.0562147
0.0565885
0.0567657
0.0567186
0.05645
0.0560382
0.0555783
0.0551468
0.0547962
0.0545623
0.0544733
0.0545592
0.0548602
0.0554345
0.0563704
0.0834598
0.0531123
0.0507394
0.0513157
0.0523401
0.053283
0.0540323
0.0545917
0.0549897
0.055248
0.055374
0.055368
0.0552423
0.0550339
0.054791
0.0545597
0.0543784
0.0542794
0.0542935
0.0544551
0.0548094
0.0554196
0.0563774
0.086838
0.0543274
0.0513522
0.051555
0.0522963
0.0530141
0.0535827
0.053998
0.054285
0.0544679
0.0545616
0.0545757
0.0545226
0.054423
0.0543039
0.0541939
0.0541206
0.0541116
0.0541965
0.0544113
0.0548034
0.0554386
0.0564106
0.0893462
0.0552449
0.0518607
0.0518186
0.0523725
0.052938
0.0533822
0.0536976
0.0539088
0.0540412
0.0541131
0.0541368
0.054123
0.054085
0.0540388
0.054003
0.0539983
0.054048
0.0541801
0.0544306
0.0548478
0.0554986
0.0564775
0.0912628
0.0559579
0.0522931
0.0520934
0.0525278
0.0529947
0.0533567
0.0536054
0.0537658
0.0538645
0.0539213
0.0539491
0.0539572
0.0539547
0.0539517
0.0539613
0.0539994
0.0540862
0.0542483
0.0545211
0.0549531
0.0556115
0.0565905
0.0928535
0.0565659
0.0527012
0.052402
0.0527641
0.0531708
0.0534813
0.0536873
0.0538146
0.0538908
0.0539368
0.0539657
0.0539856
0.0540032
0.0540255
0.054062
0.0541257
0.0542348
0.0544146
0.0546997
0.0551382
0.055797
0.0567691
0.0943999
0.0571824
0.053159
0.052796
0.0531161
0.0534877
0.0537669
0.0539457
0.0540512
0.054112
0.0541497
0.0541774
0.0542028
0.054231
0.0542671
0.0543185
0.0543965
0.0545176
0.054706
0.0549957
0.055434
0.0560863
0.057044
0.0962435
0.0579551
0.0537754
0.053363
0.0536547
0.054002
0.0542587
0.0544172
0.0545057
0.0545538
0.0545835
0.0546079
0.0546342
0.0546666
0.0547089
0.0547673
0.0548517
0.0549777
0.0551682
0.0554563
0.0558881
0.0565271
0.0574614
0.0988589
0.0591029
0.0547208
0.054245
0.0544983
0.0548131
0.0550408
0.0551748
0.0552435
0.0552767
0.055296
0.0553141
0.0553373
0.0553691
0.0554124
0.0554723
0.0555577
0.0556832
0.0558707
0.0561519
0.056571
0.0571889
0.0580893
0.102972
0.0609778
0.0562697
0.0556655
0.0558291
0.0560713
0.0562415
0.0563317
0.0563685
0.056379
0.0563824
0.0563897
0.0564057
0.0564328
0.056473
0.0565303
0.0566127
0.0567337
0.0569138
0.057183
0.0575829
0.0581708
0.0590244
0.109746
0.0641642
0.0588586
0.0579575
0.0579037
0.0579822
0.0580346
0.0580437
0.0580259
0.058
0.0579791
0.0579697
0.0579742
0.0579929
0.0580264
0.0580779
0.058154
0.0582669
0.0584357
0.0586877
0.0590614
0.059609
0.0604009
0.121092
0.0696309
0.0631505
0.0615756
0.0610449
0.060795
0.0606324
0.0605054
0.0604026
0.0603235
0.0602684
0.0602363
0.060225
0.0602319
0.060256
0.0602988
0.0603658
0.0604675
0.0606209
0.0608503
0.0611901
0.0616863
0.0624001
0.140231
0.0789777
0.070069
0.0670457
0.0655851
0.0647645
0.0642648
0.0639425
0.0637265
0.0635805
0.0634844
0.0634257
0.0633959
0.0633889
0.0634014
0.0634335
0.063489
0.0635766
0.0637105
0.0639118
0.0642095
0.0646425
0.0652612
0.173166
0.0949054
0.0806945
0.0747691
0.0717309
0.0700807
0.0691506
0.0686041
0.0682689
0.0680571
0.0679223
0.0678389
0.0677916
0.0677709
0.0677715
0.0677918
0.0678341
0.0679048
0.0680153
0.0681826
0.0684298
0.0687877
0.0692948
0.234999
0.122154
0.0956052
0.0845102
0.0793321
0.0767907
0.0754819
0.0747696
0.0743588
0.0741101
0.0739551
0.0738585
0.0738009
0.0737706
0.0737613
0.0737704
0.0737985
0.0738501
0.0739333
0.0740606
0.0742488
0.0745199
0.0749001
0.403334
0.167622
0.112167
0.0943975
0.0876602
0.0848016
0.0834702
0.0827929
0.0824187
0.0821974
0.0820603
0.0819739
0.0819205
0.0818897
0.0818759
0.0818763
0.0818909
0.0819218
0.0819741
0.0820553
0.0821757
0.0823485
0.0825884
1.58102
0.212095
0.116653
0.100177
0.0957206
0.0941681
0.0935167
0.0931997
0.0930262
0.0929225
0.0928571
0.0928147
0.0927873
0.0927704
0.0927613
0.0927585
0.0927618
0.0927717
0.0927899
0.0928189
0.0928623
0.0929247
0.0930115
0.172672
0.136055
0.138126
0.181189
0.0735936
0.0747997
0.0753098
0.0752019
0.0629058
0.0642301
0.0644133
0.0635791
0.0600609
0.061005
0.0610795
0.0604221
0.0589032
0.0596518
0.0596719
0.0590965
0.0582873
0.0589223
0.0589086
0.0583714
0.057906
0.0584666
0.0584299
0.0579145
0.0576619
0.0581716
0.0581186
0.0576164
0.0575146
0.0579893
0.0579245
0.0574301
0.0574387
0.0578898
0.0578162
0.0573255
0.0574132
0.0578483
0.0577681
0.0572787
0.05742
0.0578441
0.057759
0.0572695
0.0574443
0.057861
0.0577721
0.0572821
0.0574753
0.0578867
0.0577954
0.0573047
0.0575052
0.0579132
0.0578205
0.0573297
0.0575287
0.0579352
0.0578424
0.0573524
0.0575426
0.0579495
0.0578582
0.0573701
0.0575447
0.0579545
0.0578666
0.0573818
0.0575346
0.05795
0.0578675
0.0573875
0.0575138
0.0579372
0.0578621
0.0573883
0.0574852
0.0579186
0.0578523
0.0573858
0.0574533
0.0578977
0.057841
0.0573821
0.0574228
0.0578781
0.0578309
0.0573797
0.0573981
0.0578635
0.0578249
0.0573808
0.0573832
0.057857
0.0578259
0.057388
0.0573815
0.0578616
0.0578365
0.0574039
0.0573965
0.0578808
0.0578602
0.057432
0.0574333
0.0579194
0.0579019
0.0574774
0.0574991
0.0579847
0.0579691
0.0575483
0.0576059
0.0580884
0.0580738
0.0576572
0.0577727
0.0582492
0.058235
0.0578237
0.0580287
0.0584959
0.0584816
0.0580776
0.0584186
0.0588721
0.0588576
0.0584638
0.0590079
0.0594425
0.0594276
0.0590484
0.059891
0.0603003
0.0602852
0.0599259
0.0611999
0.0615766
0.0615615
0.0612285
0.0631145
0.0634504
0.0634358
0.0631362
0.0658737
0.0661608
0.0661471
0.0658885
0.0697892
0.0700202
0.0700081
0.0697974
0.0752631
0.0754321
0.0754223
0.0752656
0.0828104
0.0829134
0.0829067
0.0828087
0.0930888
0.0931231
0.0931201
0.0930844
0.0801028
0.0600104
0.0549759
0.0538678
0.0538273
0.0540251
0.0542128
0.0543214
0.054334
0.0542422
0.0540296
0.053664
0.05309
0.0522245
0.0509627
0.049223
0.0471393
0.0460698
0.0624861
0.0652151
0.0579487
0.0548853
0.0537514
0.0534058
0.0533453
0.0533614
0.0533713
0.0533409
0.0532512
0.0530823
0.0528045
0.0523719
0.0517201
0.0507788
0.0495301
0.0482372
0.0486299
0.0700452
0.0601966
0.0566276
0.0546532
0.0536778
0.0532344
0.0530435
0.0529584
0.0529064
0.0528507
0.052769
0.0526406
0.0524383
0.0521227
0.0516415
0.0509457
0.0500556
0.0493117
0.050682
0.0755662
0.0581866
0.055838
0.0543991
0.0535692
0.053113
0.0528668
0.0527299
0.0526449
0.0525786
0.0525094
0.0524178
0.0522789
0.0520577
0.0517092
0.0511968
0.0505627
0.050194
0.052222
0.0795723
0.0572179
0.0553426
0.0541694
0.0534433
0.053005
0.0527435
0.0525863
0.0524885
0.0524221
0.052368
0.0523087
0.0522213
0.0520735
0.0518248
0.051445
0.0509884
0.0508712
0.053342
0.0824552
0.0566627
0.0550083
0.0539768
0.0533219
0.0529098
0.0526527
0.0524931
0.0523948
0.0523346
0.0522963
0.052264
0.0522169
0.0521244
0.051948
0.0516608
0.0513238
0.051372
0.0541393
0.0845052
0.056308
0.0547748
0.0538257
0.0532201
0.0528338
0.0525889
0.0524358
0.0523434
0.0522923
0.0522684
0.0522579
0.0522411
0.0521885
0.0520625
0.0518377
0.0515786
0.0517333
0.0546968
0.0859422
0.0560759
0.0546156
0.053717
0.0531455
0.052781
0.0525498
0.0524061
0.052322
0.0522802
0.0522686
0.0522746
0.0522797
0.0522547
0.0521624
0.0519778
0.0517677
0.051989
0.0550805
0.0869339
0.0559315
0.0545156
0.053648
0.0530992
0.0527513
0.0525323
0.0523979
0.0523218
0.0522881
0.052286
0.0523039
0.0523238
0.0523169
0.052246
0.0520863
0.0519056
0.0521671
0.0553404
0.0876077
0.0558523
0.0544622
0.0536128
0.0530783
0.0527418
0.0525319
0.052405
0.0523354
0.0523079
0.0523126
0.0523385
0.0523679
0.0523722
0.052314
0.0521685
0.0520045
0.0522895
0.055514
0.0880583
0.0558198
0.0544435
0.0536037
0.053077
0.0527475
0.0525437
0.052422
0.0523569
0.0523336
0.0523427
0.0523734
0.0524084
0.052419
0.0523678
0.0522298
0.0520746
0.0523724
0.0556282
0.0883552
0.0558181
0.0544482
0.0536122
0.0530892
0.0527632
0.0525628
0.0524441
0.0523817
0.0523609
0.0523724
0.0524057
0.0524434
0.0524572
0.0524092
0.0522747
0.0521234
0.0524278
0.0557024
0.0885482
0.0558343
0.0544666
0.0536313
0.053109
0.0527841
0.052585
0.0524677
0.0524064
0.0523867
0.0523992
0.0524335
0.0524724
0.0524872
0.0524403
0.0523069
0.052157
0.0524645
0.0557501
0.0886721
0.0558591
0.0544914
0.0536551
0.0531319
0.0528066
0.0526075
0.0524902
0.0524291
0.0524095
0.0524221
0.0524565
0.0524954
0.0525102
0.0524632
0.0523297
0.0521798
0.0524884
0.0557803
0.0887507
0.0558859
0.0545176
0.0536796
0.0531547
0.0528282
0.0526282
0.0525103
0.0524487
0.0524286
0.0524407
0.0524746
0.052513
0.0525273
0.0524797
0.0523455
0.0521951
0.0525038
0.0557993
0.0888
0.0559109
0.0545423
0.0537025
0.0531757
0.0528476
0.0526462
0.0525273
0.0524648
0.0524439
0.0524553
0.0524885
0.0525261
0.0525397
0.0524913
0.0523563
0.0522052
0.0525137
0.0558111
0.0888308
0.0559321
0.054564
0.0537228
0.0531941
0.0528642
0.0526614
0.0525412
0.0524777
0.0524559
0.0524664
0.0524988
0.0525357
0.0525485
0.0524994
0.0523636
0.0522118
0.05252
0.0558184
0.0888498
0.0559489
0.0545823
0.0537401
0.0532098
0.0528782
0.0526738
0.0525525
0.0524878
0.0524651
0.0524748
0.0525065
0.0525427
0.0525547
0.0525049
0.0523684
0.0522161
0.0525239
0.0558229
0.0888615
0.0559615
0.0545974
0.0537548
0.053223
0.0528899
0.0526841
0.0525615
0.0524958
0.0524723
0.0524812
0.0525122
0.0525478
0.0525592
0.0525088
0.0523718
0.0522189
0.0525265
0.0558257
0.0888689
0.0559707
0.0546101
0.0537675
0.0532346
0.0529
0.0526928
0.0525691
0.0525024
0.0524781
0.0524863
0.0525167
0.0525516
0.0525625
0.0525116
0.0523742
0.0522209
0.0525282
0.0558276
0.0888737
0.0559778
0.0546214
0.0537791
0.0532452
0.0529092
0.0527007
0.0525758
0.0525083
0.0524831
0.0524907
0.0525205
0.052555
0.0525654
0.052514
0.0523761
0.0522225
0.0525295
0.055829
0.0888774
0.0559842
0.0546324
0.0537906
0.0532557
0.0529184
0.0527087
0.0525827
0.0525142
0.0524883
0.0524952
0.0525244
0.0525583
0.0525682
0.0525164
0.052378
0.052224
0.0525308
0.0558303
0.0888809
0.0559918
0.0546444
0.0538031
0.0532672
0.0529286
0.0527176
0.0525905
0.0525212
0.0524945
0.0525007
0.0525293
0.0525626
0.0525719
0.0525194
0.0523805
0.052226
0.0525325
0.055832
0.0888854
0.0560024
0.0546591
0.053818
0.0532811
0.0529412
0.052729
0.0526008
0.0525305
0.0525029
0.0525084
0.0525362
0.0525687
0.0525772
0.0525239
0.0523842
0.052229
0.052535
0.0558346
0.0888922
0.0560181
0.0546785
0.0538376
0.0532996
0.0529583
0.0527447
0.0526154
0.052544
0.0525155
0.05252
0.0525468
0.0525782
0.0525856
0.0525311
0.0523903
0.052234
0.0525392
0.0558391
0.0889038
0.0560418
0.0547055
0.0538646
0.0533255
0.0529828
0.0527679
0.0526373
0.0525648
0.0525351
0.0525384
0.0525638
0.0525937
0.0525994
0.0525431
0.0524004
0.0522425
0.0525465
0.0558468
0.0889239
0.0560773
0.0547444
0.0539036
0.0533634
0.0530194
0.0528031
0.0526712
0.0525973
0.0525662
0.0525678
0.0525913
0.0526191
0.0526223
0.0525633
0.0524178
0.0522572
0.0525593
0.0558605
0.088959
0.0561305
0.0548017
0.0539614
0.0534206
0.0530753
0.0528576
0.0527242
0.0526487
0.0526157
0.0526152
0.0526362
0.0526609
0.0526605
0.0525974
0.0524475
0.0522828
0.0525819
0.0558849
0.0890207
0.0562106
0.0548875
0.0540488
0.0535077
0.0531615
0.0529425
0.0528074
0.05273
0.0526948
0.0526915
0.0527091
0.0527295
0.052724
0.0526549
0.0524985
0.0523273
0.0526219
0.0559283
0.0891293
0.0563316
0.0550171
0.0541817
0.0536415
0.0532949
0.0530747
0.052938
0.0528584
0.0528205
0.0528138
0.0528269
0.0528417
0.0528292
0.0527518
0.0525859
0.0524051
0.0526928
0.0560058
0.0893204
0.056515
0.0552138
0.0543846
0.0538469
0.0535008
0.05328
0.0531418
0.0530599
0.053019
0.0530082
0.053016
0.0530239
0.0530026
0.0529142
0.0527353
0.0525411
0.0528192
0.0561449
0.0896574
0.0567931
0.0555124
0.0546936
0.054161
0.053817
0.0535964
0.0534571
0.0533733
0.0533293
0.0533144
0.0533166
0.053317
0.0532858
0.0531847
0.0529904
0.0527792
0.0530458
0.0563962
0.0902531
0.057214
0.0559637
0.0551613
0.0546377
0.0542982
0.0540793
0.05394
0.053855
0.0538087
0.0537905
0.0537881
0.0537825
0.0537431
0.0536312
0.0534228
0.0531956
0.0534533
0.0568532
0.0913094
0.0578469
0.0566404
0.0558627
0.0553534
0.0550218
0.0548071
0.0546697
0.0545851
0.0545385
0.0545195
0.0545161
0.0545095
0.0544693
0.0543568
0.0541475
0.0539194
0.0541874
0.0576894
0.0931873
0.05879
0.0576441
0.0569019
0.0564137
0.0560948
0.0558877
0.0557551
0.0556739
0.0556305
0.0556155
0.0556182
0.0556217
0.0555981
0.0555115
0.0553392
0.0551604
0.0555021
0.0592235
0.0965272
0.0601787
0.0591136
0.0584196
0.0579613
0.0576609
0.057466
0.0573421
0.0572686
0.0572335
0.0572297
0.0572497
0.0572815
0.0573054
0.0572959
0.0572429
0.0572354
0.0578182
0.0620237
0.102442
0.0621952
0.0612333
0.0606023
0.0601837
0.0599091
0.0597317
0.0596214
0.0595604
0.0595397
0.0595556
0.0596066
0.0596907
0.0598053
0.0599531
0.0601636
0.0605723
0.0617765
0.0670556
0.112806
0.0650793
0.0642441
0.0636917
0.0633239
0.0630828
0.062929
0.0628372
0.0627934
0.0627924
0.0628353
0.0629289
0.063087
0.0633372
0.0637379
0.0644144
0.06565
0.068238
0.0758868
0.130728
0.0691418
0.0684563
0.0679988
0.0676931
0.0674937
0.0673691
0.0672999
0.0672763
0.0672968
0.0673679
0.0675058
0.0677434
0.0681491
0.0688679
0.0702065
0.0728088
0.0781229
0.0910331
0.161827
0.0747822
0.0742678
0.073921
0.0736889
0.0735388
0.0734483
0.0734036
0.0733993
0.073437
0.073527
0.0736919
0.0739799
0.0744963
0.0754807
0.0774898
0.0818357
0.0917414
0.116578
0.220578
0.0825114
0.0821874
0.0819668
0.0818194
0.0817255
0.0816718
0.0816504
0.0816592
0.0817012
0.0817865
0.081937
0.0821996
0.082684
0.0836614
0.0858481
0.0912862
0.106532
0.157398
0.383353
0.0929811
0.0928661
0.0927871
0.0927348
0.0927024
0.0926856
0.092682
0.0926914
0.0927156
0.0927596
0.0928332
0.0929582
0.0931866
0.0936585
0.0948066
0.0982258
0.111519
0.193128
1.44623
)
;

boundaryField
{
    leftWall
    {
        type            epsilonWallFunction;
        blending        stepwise;
        value           nonuniform List<scalar> 
50
(
3.11056
1.99652
1.99652
1.99652
1.99652
1.99652
1.99652
1.99652
1.99652
1.99652
1.99652
1.99652
1.99652
1.99652
1.99652
1.99652
1.99652
1.99652
1.99652
1.99652
1.99652
1.99652
1.99652
1.99652
1.99652
1.99652
1.99652
1.99652
0.167439
0.0492781
0.0545158
0.064712
0.0727943
0.0789003
0.0834598
0.086838
0.0893462
0.0912628
0.0928535
0.0943999
0.0962435
0.0988589
0.102972
0.109746
0.121092
0.140231
0.173166
0.234999
0.403334
1.58102
)
;
    }
    rightWall
    {
        type            epsilonWallFunction;
        blending        stepwise;
        value           nonuniform List<scalar> 
50
(
0.0117107
0.0172186
0.0255662
0.0328594
0.0392438
0.0449625
0.0502155
0.0551449
0.0624861
0.0700452
0.0755662
0.0795723
0.0824552
0.0845052
0.0859422
0.0869339
0.0876077
0.0880583
0.0883552
0.0885482
0.0886721
0.0887507
0.0888
0.0888308
0.0888498
0.0888615
0.0888689
0.0888737
0.0888774
0.0888809
0.0888854
0.0888922
0.0889038
0.0889239
0.088959
0.0890207
0.0891293
0.0893204
0.0896574
0.0902531
0.0913094
0.0931873
0.0965272
0.102442
0.112806
0.130728
0.161827
0.220578
0.383353
1.44623
)
;
    }
    lowerWall
    {
        type            epsilonWallFunction;
        blending        stepwise;
        value           nonuniform List<scalar> 
62
(
3.11056
4.22461
4.22461
4.22461
4.22461
4.22461
4.22461
4.22461
4.22461
4.22461
4.22461
4.22461
4.22461
0.0898084
0.0416313
0.0610449
0.0738135
0.0805202
0.0814902
0.0762324
0.0635402
0.0416407
0.0100222
0.0100222
0.0179956
0.0286417
0.038589
0.0487742
0.061308
0.0828035
0.140037
0.172672
0.136055
0.138126
0.181189
0.0113248
0.0186703
0.0297813
0.0404622
0.0516841
0.0657605
0.0896895
0.149284
0.0113248
0.0492086
0.0766224
0.0948491
0.106709
0.114291
0.118931
0.121452
0.12233
0.121797
0.119885
0.116465
0.111275
0.103944
0.0940002
0.0808442
0.0636293
0.0409731
0.0117107
)
;
    }
    atmosphere
    {
        type            inletOutlet;
        inletValue      uniform 0.1;
        value           nonuniform List<scalar> 
46
(
1.58102
0.1
0.1
0.1
0.1
0.1
0.1
0.1
0.1
0.1
0.1
0.1
0.1
0.1
0.1
0.1
0.1
0.1
0.1
0.1
0.1
0.1
0.1
0.1
0.1
0.1
0.1
0.1
0.1
0.1
0.1
0.1
0.1
0.1
0.1
0.1
0.1
0.1
0.1
0.1
0.1
0.1
0.1
0.1
0.1
0.1
)
;
    }
    defaultFaces
    {
        type            empty;
    }
}


// ************************************************************************* //
