/*--------------------------------*- C++ -*----------------------------------*\
| =========                 |                                                 |
| \\      /  F ield         | OpenFOAM: The Open Source CFD Toolbox           |
|  \\    /   O peration     | Version:  2406                                  |
|   \\  /    A nd           | Website:  www.openfoam.com                      |
|    \\/     M anipulation  |                                                 |
\*---------------------------------------------------------------------------*/
FoamFile
{
    version     2.0;
    format      ascii;
    arch        "LSB;label=32;scalar=64";
    class       volScalarField;
    location    "0.55";
    object      epsilon;
}
// * * * * * * * * * * * * * * * * * * * * * * * * * * * * * * * * * * * * * //

dimensions      [0 2 -3 0 0 0 0];

internalField   nonuniform List<scalar> 
2268
(
0.0110315
0.0427755
0.0688899
0.0892438
0.105189
0.117674
0.127385
0.134845
0.140462
0.144559
0.147378
0.149087
0.149775
0.149441
0.147985
0.145171
0.140591
0.133579
0.12309
0.107523
0.0846267
0.0519761
0.010882
0.0185755
0.0295967
0.0404526
0.0490834
0.0557824
0.0609424
0.0648848
0.0678602
0.0700634
0.0716442
0.072714
0.0733481
0.0735858
0.073427
0.0728269
0.0716854
0.0698301
0.0669881
0.0627428
0.0564812
0.0473827
0.0347318
0.0207646
0.0288592
0.0306514
0.0373133
0.0430094
0.0474951
0.0509429
0.0535559
0.0555079
0.0569379
0.0579529
0.0586323
0.059029
0.0591703
0.059057
0.0586595
0.0579132
0.0567097
0.0548853
0.0522066
0.0483628
0.0430048
0.0361362
0.034528
0.0380247
0.0332351
0.0374319
0.0415325
0.0448698
0.0474579
0.049419
0.0508779
0.0519405
0.0526902
0.0531886
0.0534771
0.0535775
0.0534914
0.0531987
0.0526557
0.0517929
0.0505137
0.0487026
0.0462533
0.0431686
0.0400994
0.0479324
0.0460243
0.0360083
0.0384
0.0413778
0.0439289
0.0459423
0.047476
0.0486168
0.0494455
0.050028
0.0504137
0.0506362
0.0507136
0.0506489
0.0504293
0.0500276
0.0494036
0.0485137
0.0473374
0.0459469
0.044702
0.0450528
0.0617214
0.0530252
0.0386483
0.0396128
0.0417201
0.0436687
0.0452471
0.0464612
0.0473668
0.0480242
0.0484852
0.0487898
0.0489655
0.0490281
0.0489817
0.0488201
0.0485293
0.0480935
0.0475126
0.0468459
0.04633
0.0467296
0.0507455
0.0782127
0.0591828
0.0410615
0.0408558
0.0422583
0.0437204
0.0449491
0.0459079
0.0466265
0.0471484
0.0475138
0.0477548
0.0478944
0.0479462
0.0479159
0.0478026
0.0476033
0.047322
0.0469932
0.0467398
0.0469369
0.0487771
0.0570414
0.105344
0.0646195
0.0432287
0.042042
0.0428608
0.0439197
0.0448582
0.0456051
0.0461688
0.0465786
0.046865
0.0470537
0.0471636
0.047207
0.0471906
0.047118
0.046995
0.0468411
0.0467157
0.0467845
0.0475069
0.0503637
0.062719
0.176898
0.0119403
0.0566485
0.0906438
0.113307
0.127904
0.137117
0.14268
0.145628
0.146535
0.145672
0.14309
0.138669
0.132138
0.123082
0.110928
0.0948948
0.07389
0.0463605
0.0121457
0.0203682
0.0365326
0.0497962
0.0588297
0.0647196
0.0684629
0.0707347
0.0719529
0.0723573
0.072062
0.0710872
0.0693752
0.0667983
0.0631587
0.0581794
0.0514873
0.0426013
0.0310713
0.0184503
0.0333069
0.0370685
0.0444289
0.0498072
0.0534576
0.0558395
0.0573099
0.0581104
0.0583875
0.0582127
0.0575964
0.0564958
0.0548186
0.0524221
0.0491097
0.0446321
0.0387331
0.0314965
0.0280624
0.0459403
0.0404409
0.0439794
0.0471671
0.0495426
0.0511782
0.0522205
0.0527993
0.0530036
0.0528782
0.0524268
0.051614
0.0503668
0.0485742
0.0460892
0.0427447
0.0384431
0.0336789
0.0366359
0.0590577
0.0448587
0.0450054
0.0464514
0.0478718
0.048966
0.0497032
0.0501244
0.0502733
0.050174
0.0498241
0.0491926
0.0482203
0.04682
0.0448826
0.0423055
0.0391165
0.0361439
0.0441278
0.0750768
0.0499628
0.046566
0.0464913
0.0471323
0.047794
0.0482892
0.0485848
0.0486874
0.0486037
0.0483257
0.0478258
0.0470553
0.0459461
0.0444202
0.0424276
0.0400969
0.0385335
0.0506866
0.101833
0.0555121
0.0481886
0.0468149
0.0468243
0.0471349
0.0474317
0.0476232
0.0476863
0.0476129
0.0473904
0.0469937
0.0463828
0.0455053
0.0443089
0.0427868
0.0411495
0.0407374
0.0564547
0.169232
0.0603356
0.0494639
0.0471754
0.0467121
0.0467453
0.0468806
0.0469858
0.0470152
0.0469497
0.0467726
0.0464609
0.0459818
0.045296
0.0443726
0.04324
0.0421766
0.0427262
0.0615458
0.0722018
0.0462466
0.0437529
0.0438049
0.0443336
0.044889
0.0453554
0.0457138
0.0459747
0.0461561
0.046275
0.0463453
0.0463771
0.0463789
0.0463595
0.0463353
0.0463426
0.0464653
0.046899
0.0481104
0.0513049
0.0600631
0.0872607
0.0800751
0.0493639
0.0455792
0.0448949
0.0449139
0.045097
0.0452875
0.0454415
0.0455526
0.0456269
0.0456736
0.0457014
0.0457185
0.0457336
0.0457586
0.0458149
0.0459434
0.0462247
0.0468178
0.0480353
0.0504897
0.0553506
0.0645848
0.0861191
0.0517072
0.0469637
0.0457479
0.0454001
0.0453125
0.0452993
0.0452997
0.0452963
0.0452872
0.0452759
0.0452677
0.0452684
0.0452858
0.0453316
0.0454257
0.0456031
0.0459246
0.0464937
0.0474781
0.0491249
0.0517169
0.0552901
0.0907254
0.0534516
0.047992
0.0463894
0.0457755
0.0454898
0.0453251
0.0452092
0.0451172
0.0450419
0.044983
0.0449427
0.0449249
0.0449356
0.0449841
0.045086
0.0452662
0.0455641
0.0460371
0.0467609
0.0478128
0.049212
0.0507776
0.0941987
0.0547363
0.0487443
0.0468598
0.0460527
0.0456217
0.0453443
0.0451401
0.0449792
0.044851
0.0447523
0.0446832
0.0446456
0.0446431
0.0446822
0.0447732
0.0449316
0.0451793
0.0455439
0.0460525
0.0467164
0.047497
0.048258
0.0967843
0.0556713
0.0492872
0.0471985
0.0462516
0.0457144
0.0453531
0.0450819
0.0448675
0.0446968
0.0445648
0.0444698
0.0444119
0.0443926
0.0444154
0.0444858
0.0446119
0.0448041
0.0450724
0.045422
0.0458428
0.0462954
0.0466977
0.0986817
0.0563429
0.049674
0.0474389
0.0463915
0.045777
0.0453535
0.0450315
0.0447756
0.0445709
0.044411
0.044293
0.0442153
0.0441778
0.0441812
0.0442275
0.0443196
0.0444604
0.0446514
0.0448887
0.0451581
0.0454299
0.0456573
0.100053
0.0568189
0.0499462
0.0476074
0.0464883
0.045818
0.0453487
0.0449885
0.0447004
0.0444685
0.0442855
0.0441473
0.0440514
0.0439958
0.0439796
0.0440018
0.0440622
0.0441597
0.0442913
0.0444505
0.0446244
0.0447925
0.0449276
0.101029
0.0571516
0.0501355
0.0477241
0.0465546
0.0458443
0.0453416
0.0449528
0.0446399
0.0443865
0.0441844
0.0440289
0.0439166
0.0438444
0.0438097
0.0438101
0.0438431
0.0439054
0.0439926
0.0440975
0.0442099
0.0443158
0.0443991
0.101713
0.0573809
0.0502655
0.0478043
0.0465998
0.0458611
0.0453342
0.0449241
0.0445923
0.0443219
0.0441044
0.0439344
0.0438078
0.0437209
0.04367
0.0436515
0.0436617
0.0436964
0.0437506
0.0438177
0.0438896
0.0439569
0.0440093
0.102185
0.0575369
0.0503539
0.0478589
0.0466303
0.0458719
0.0453276
0.0449019
0.0445558
0.0442722
0.0440424
0.0438605
0.0437219
0.0436224
0.0435577
0.0435235
0.0435154
0.0435288
0.0435586
0.0435991
0.0436439
0.0436862
0.0437196
0.102506
0.0576416
0.0504132
0.0478958
0.046651
0.045879
0.0453224
0.0448853
0.0445286
0.0442349
0.0439953
0.0438038
0.0436555
0.0435456
0.0434696
0.0434227
0.0434001
0.0433973
0.0434092
0.0434309
0.0434572
0.043483
0.0435041
0.102722
0.057711
0.0504527
0.0479205
0.046665
0.0458837
0.0453185
0.0448733
0.0445088
0.0442075
0.0439604
0.0437614
0.0436052
0.0434871
0.043402
0.043345
0.0433114
0.0432963
0.0432951
0.0433034
0.0433169
0.0433317
0.0433446
0.102865
0.0577565
0.0504788
0.0479371
0.0466746
0.045887
0.045316
0.044865
0.0444948
0.0441879
0.0439351
0.0437302
0.043568
0.0434434
0.0433512
0.0432866
0.0432445
0.0432203
0.0432096
0.0432084
0.043213
0.0432203
0.0432277
0.102958
0.057786
0.0504958
0.047948
0.0466811
0.0458894
0.0453144
0.0448594
0.0444852
0.0441742
0.0439172
0.043708
0.0435411
0.0434115
0.043314
0.0432435
0.0431951
0.0431642
0.0431467
0.0431388
0.0431372
0.0431393
0.043143
0.103018
0.0578049
0.0505068
0.0479553
0.0466855
0.0458912
0.0453135
0.0448558
0.0444788
0.0441649
0.0439049
0.0436924
0.0435221
0.0433888
0.0432873
0.0432124
0.0431594
0.0431237
0.0431013
0.0430886
0.0430827
0.0430813
0.0430825
0.103057
0.057817
0.0505139
0.0479601
0.0466885
0.0458926
0.0453132
0.0448537
0.0444747
0.0441588
0.0438965
0.0436817
0.043509
0.0433729
0.0432685
0.0431905
0.0431342
0.043095
0.0430692
0.0430532
0.0430443
0.0430404
0.0430399
0.103082
0.0578245
0.0505184
0.0479632
0.0466906
0.0458936
0.0453131
0.0448524
0.0444722
0.0441548
0.0438911
0.0436746
0.0435001
0.0433621
0.0432556
0.0431754
0.0431167
0.0430751
0.0430469
0.0430286
0.0430177
0.0430121
0.0430105
0.103097
0.0578293
0.0505213
0.0479653
0.046692
0.0458944
0.0453132
0.0448517
0.0444706
0.0441523
0.0438876
0.04367
0.0434942
0.0433549
0.0432469
0.0431651
0.0431048
0.0430616
0.0430317
0.0430118
0.0429996
0.0429929
0.0429905
0.103107
0.0578322
0.0505231
0.0479666
0.0466929
0.045895
0.0453134
0.0448514
0.0444698
0.0441509
0.0438854
0.0436671
0.0434904
0.0433502
0.0432412
0.0431584
0.0430969
0.0430526
0.0430215
0.0430007
0.0429875
0.04298
0.0429771
0.103113
0.057834
0.0505242
0.0479674
0.0466936
0.0458954
0.0453136
0.0448513
0.0444693
0.04415
0.0438841
0.0436653
0.043488
0.0433472
0.0432376
0.043154
0.0430918
0.0430467
0.0430149
0.0429933
0.0429795
0.0429716
0.0429684
0.103116
0.0578351
0.0505249
0.047968
0.046694
0.0458957
0.0453137
0.0448513
0.0444691
0.0441495
0.0438833
0.0436642
0.0434866
0.0433454
0.0432353
0.0431512
0.0430886
0.0430429
0.0430107
0.0429887
0.0429744
0.0429662
0.0429628
0.103119
0.0578358
0.0505254
0.0479683
0.0466943
0.045896
0.0453139
0.0448513
0.044469
0.0441493
0.0438829
0.0436636
0.0434857
0.0433442
0.0432339
0.0431495
0.0430865
0.0430406
0.043008
0.0429857
0.0429712
0.0429628
0.0429592
0.10312
0.0578362
0.0505256
0.0479686
0.0466945
0.0458961
0.045314
0.0448514
0.044469
0.0441492
0.0438827
0.0436632
0.0434853
0.0433436
0.043233
0.0431485
0.0430853
0.0430392
0.0430064
0.0429839
0.0429693
0.0429607
0.042957
0.103121
0.0578365
0.0505258
0.0479687
0.0466946
0.0458962
0.0453141
0.0448515
0.044469
0.0441492
0.0438826
0.043663
0.043485
0.0433432
0.0432325
0.0431479
0.0430846
0.0430383
0.0430054
0.0429828
0.0429681
0.0429594
0.0429557
0.103121
0.0578366
0.0505259
0.0479688
0.0466947
0.0458963
0.0453141
0.0448515
0.044469
0.0441492
0.0438826
0.0436629
0.0434849
0.043343
0.0432323
0.0431476
0.0430842
0.0430378
0.0430048
0.0429822
0.0429674
0.0429587
0.042955
0.103122
0.0578367
0.050526
0.0479688
0.0466948
0.0458964
0.0453142
0.0448515
0.0444691
0.0441492
0.0438826
0.0436629
0.0434848
0.0433429
0.0432321
0.0431474
0.0430839
0.0430376
0.0430045
0.0429818
0.042967
0.0429583
0.0429545
0.103122
0.0578368
0.050526
0.0479689
0.0466948
0.0458964
0.0453142
0.0448516
0.0444691
0.0441492
0.0438826
0.0436629
0.0434848
0.0433429
0.0432321
0.0431473
0.0430838
0.0430374
0.0430044
0.0429816
0.0429668
0.042958
0.0429543
0.103122
0.0578368
0.050526
0.0479689
0.0466948
0.0458964
0.0453142
0.0448516
0.0444691
0.0441492
0.0438826
0.0436629
0.0434848
0.0433429
0.043232
0.0431472
0.0430838
0.0430373
0.0430043
0.0429815
0.0429667
0.0429579
0.0429541
0.103122
0.0578368
0.050526
0.0479689
0.0466948
0.0458964
0.0453143
0.0448516
0.0444691
0.0441492
0.0438826
0.0436629
0.0434848
0.0433429
0.043232
0.0431472
0.0430837
0.0430373
0.0430042
0.0429815
0.0429666
0.0429578
0.0429541
0.103122
0.0578368
0.050526
0.0479689
0.0466948
0.0458964
0.0453143
0.0448516
0.0444691
0.0441492
0.0438826
0.0436629
0.0434848
0.0433429
0.043232
0.0431472
0.0430837
0.0430373
0.0430042
0.0429814
0.0429666
0.0429578
0.042954
0.103122
0.0578368
0.050526
0.0479689
0.0466948
0.0458964
0.0453143
0.0448516
0.0444692
0.0441492
0.0438826
0.0436629
0.0434848
0.0433429
0.043232
0.0431472
0.0430837
0.0430373
0.0430042
0.0429814
0.0429665
0.0429578
0.042954
0.103122
0.0578368
0.050526
0.0479689
0.0466949
0.0458964
0.0453143
0.0448516
0.0444692
0.0441492
0.0438826
0.0436629
0.0434848
0.0433429
0.043232
0.0431472
0.0430837
0.0430373
0.0430042
0.0429814
0.0429665
0.0429578
0.042954
0.103122
0.0578368
0.050526
0.0479689
0.0466949
0.0458964
0.0453143
0.0448516
0.0444692
0.0441492
0.0438826
0.0436629
0.0434848
0.0433429
0.043232
0.0431472
0.0430837
0.0430373
0.0430042
0.0429814
0.0429665
0.0429578
0.042954
0.103122
0.0578368
0.050526
0.0479689
0.0466949
0.0458964
0.0453143
0.0448516
0.0444692
0.0441492
0.0438826
0.0436629
0.0434848
0.0433429
0.043232
0.0431472
0.0430837
0.0430373
0.0430042
0.0429814
0.0429665
0.0429577
0.042954
0.103122
0.0578368
0.050526
0.0479689
0.0466949
0.0458964
0.0453143
0.0448516
0.0444692
0.0441492
0.0438826
0.0436629
0.0434848
0.0433429
0.043232
0.0431472
0.0430837
0.0430372
0.0430042
0.0429814
0.0429665
0.0429577
0.0429539
0.103122
0.0578368
0.050526
0.0479689
0.0466949
0.0458964
0.0453143
0.0448516
0.0444692
0.0441492
0.0438826
0.0436629
0.0434848
0.0433429
0.043232
0.0431472
0.0430837
0.0430372
0.0430041
0.0429814
0.0429665
0.0429577
0.0429539
0.103122
0.0578368
0.050526
0.0479689
0.0466949
0.0458964
0.0453143
0.0448516
0.0444692
0.0441492
0.0438826
0.0436629
0.0434848
0.0433429
0.043232
0.0431472
0.0430837
0.0430372
0.0430041
0.0429813
0.0429665
0.0429577
0.0429539
0.103122
0.0578368
0.050526
0.0479689
0.0466949
0.0458964
0.0453143
0.0448516
0.0444692
0.0441492
0.0438826
0.0436629
0.0434848
0.0433429
0.043232
0.0431472
0.0430837
0.0430372
0.0430041
0.0429813
0.0429664
0.0429577
0.0429538
0.103122
0.0578368
0.050526
0.0479689
0.0466949
0.0458964
0.0453143
0.0448516
0.0444692
0.0441492
0.0438826
0.0436629
0.0434848
0.0433429
0.043232
0.0431472
0.0430837
0.0430372
0.0430041
0.0429813
0.0429664
0.0429576
0.0429538
0.103122
0.0578368
0.050526
0.0479689
0.0466949
0.0458964
0.0453143
0.0448516
0.0444692
0.0441492
0.0438826
0.0436629
0.0434848
0.0433429
0.043232
0.0431472
0.0430837
0.0430372
0.0430041
0.0429813
0.0429664
0.0429576
0.0429538
0.103122
0.0578368
0.050526
0.0479689
0.0466949
0.0458964
0.0453143
0.0448516
0.0444692
0.0441492
0.0438826
0.0436629
0.0434848
0.0433429
0.043232
0.0431472
0.0430837
0.0430372
0.0430041
0.0429813
0.0429664
0.0429576
0.0429538
0.212885
0.165243
0.164874
0.210795
0.0760199
0.0767176
0.0766823
0.0759433
0.0577695
0.0584763
0.0584715
0.0577589
0.0516126
0.0518943
0.051894
0.0516121
0.0486125
0.0487336
0.0487345
0.0486154
0.0468715
0.0469307
0.046932
0.0468756
0.0457515
0.0457836
0.0457851
0.045756
0.0449826
0.0450014
0.045003
0.0449872
0.0444329
0.0444448
0.0444464
0.0444378
0.0440309
0.0440388
0.0440404
0.044036
0.0437337
0.0437392
0.043741
0.043739
0.0435135
0.0435175
0.0435194
0.0435191
0.0433511
0.0433541
0.043356
0.0433568
0.0432322
0.0432346
0.0432365
0.0432381
0.0431461
0.0431481
0.0431501
0.0431522
0.0430847
0.0430864
0.0430885
0.0430909
0.0430415
0.0430431
0.0430452
0.0430478
0.0430117
0.0430131
0.0430152
0.043018
0.0429914
0.0429928
0.0429949
0.0429978
0.0429779
0.0429792
0.0429813
0.0429843
0.042969
0.0429703
0.0429724
0.0429755
0.0429633
0.0429646
0.0429667
0.0429698
0.0429597
0.042961
0.0429631
0.0429662
0.0429575
0.0429588
0.0429609
0.042964
0.0429562
0.0429574
0.0429596
0.0429627
0.0429554
0.0429566
0.0429588
0.0429619
0.042955
0.0429562
0.0429583
0.0429615
0.0429547
0.0429559
0.0429581
0.0429612
0.0429546
0.0429558
0.0429579
0.0429611
0.0429545
0.0429557
0.0429579
0.042961
0.0429545
0.0429557
0.0429578
0.042961
0.0429544
0.0429557
0.0429578
0.042961
0.0429544
0.0429556
0.0429578
0.042961
0.0429544
0.0429556
0.0429578
0.0429609
0.0429544
0.0429556
0.0429578
0.0429609
0.0429544
0.0429556
0.0429577
0.0429609
0.0429543
0.0429555
0.0429577
0.0429609
0.0429543
0.0429555
0.0429577
0.0429608
0.0429543
0.0429555
0.0429576
0.0429608
0.0429542
0.0429554
0.0429576
0.0429608
0.0429542
0.0429554
0.0429575
0.0429607
0.0429541
0.0429553
0.0429575
0.0429607
0.0849912
0.0583804
0.0503134
0.0475885
0.0466515
0.0463606
0.0462959
0.046291
0.0462773
0.0462226
0.046106
0.045907
0.0456025
0.0451703
0.0446073
0.0439872
0.0436766
0.0455032
0.068642
0.0639275
0.0544476
0.0497472
0.0475287
0.0465055
0.0460449
0.0458434
0.0457556
0.045711
0.0456733
0.0456208
0.0455366
0.0454068
0.0452252
0.0450134
0.0448867
0.0452976
0.0483767
0.0760002
0.0550967
0.0512687
0.0486473
0.0470844
0.0462107
0.0457411
0.0454978
0.0453788
0.0453276
0.0453124
0.045314
0.04532
0.0453232
0.0453282
0.0453732
0.0456022
0.046532
0.0505354
0.0816396
0.0507158
0.0489915
0.0475253
0.0464874
0.0458188
0.0454144
0.0451853
0.0450703
0.0450306
0.0450427
0.0450921
0.0451708
0.0452767
0.0454219
0.0456562
0.0461436
0.0474501
0.05214
0.0859308
0.0482383
0.0473879
0.0465498
0.0458763
0.0453941
0.0450776
0.0448897
0.0447989
0.0447821
0.0448243
0.0449166
0.0450545
0.0452405
0.0454917
0.0458657
0.0465412
0.0481216
0.0533198
0.0891624
0.0466936
0.0462424
0.0457505
0.0453172
0.0449826
0.0447514
0.0446136
0.044556
0.0445677
0.0446409
0.0447713
0.0449579
0.0452065
0.0455378
0.046015
0.0468273
0.0486058
0.0541771
0.0915658
0.0456599
0.0454068
0.0451116
0.0448344
0.0446099
0.044452
0.0443631
0.0443411
0.0443826
0.0444856
0.0446494
0.044876
0.0451736
0.0455655
0.0461187
0.0470298
0.0489506
0.0547924
0.0933287
0.0449336
0.0447864
0.0446069
0.0444319
0.0442874
0.0441887
0.0441433
0.0441547
0.0442248
0.044355
0.0445477
0.044807
0.0451428
0.0455805
0.0461893
0.0471714
0.0491932
0.0552282
0.0946031
0.0444071
0.0443202
0.0442115
0.0441042
0.0440175
0.0439651
0.0439562
0.0439973
0.0440929
0.0442471
0.0444642
0.04475
0.0451155
0.0455874
0.0462368
0.0472693
0.0493619
0.055533
0.0955108
0.0440187
0.043968
0.0439042
0.0438425
0.0437974
0.0437805
0.0438014
0.0438674
0.043985
0.0441597
0.0443971
0.044704
0.0450924
0.0455898
0.0462685
0.0473364
0.0494779
0.0557433
0.0961478
0.04373
0.043702
0.0436675
0.0436372
0.043622
0.0436322
0.0436765
0.0437631
0.0438989
0.0440906
0.0443444
0.0446679
0.0450738
0.04559
0.0462896
0.0473821
0.049557
0.0558867
0.0965884
0.0435154
0.0435022
0.0434873
0.0434787
0.0434852
0.0435156
0.0435783
0.0436812
0.0438318
0.0440371
0.0443039
0.0446404
0.0450594
0.0455893
0.0463036
0.047413
0.0496103
0.0559832
0.0968892
0.0433566
0.0433533
0.0433518
0.0433584
0.0433806
0.0434261
0.0435028
0.0436185
0.0437807
0.0439967
0.0442737
0.04462
0.0450488
0.0455885
0.0463131
0.0474339
0.0496459
0.0560474
0.0970918
0.0432402
0.0432436
0.0432513
0.0432688
0.0433022
0.0433589
0.043446
0.0435715
0.0437426
0.0439669
0.0442517
0.0446053
0.0450412
0.0455879
0.0463196
0.0474479
0.0496696
0.0560897
0.0972267
0.0431559
0.0431639
0.043178
0.043203
0.0432446
0.0433093
0.0434043
0.0435371
0.043715
0.0439455
0.044236
0.044595
0.045036
0.0455876
0.046324
0.0474573
0.0496852
0.0561173
0.0973155
0.0430958
0.0431069
0.0431255
0.0431557
0.0432031
0.0432737
0.0433743
0.0435124
0.0436953
0.0439304
0.0442252
0.0445881
0.0450326
0.0455876
0.0463271
0.0474636
0.0496953
0.0561351
0.0973733
0.0430534
0.0430667
0.0430884
0.0431224
0.0431737
0.0432485
0.0433532
0.0434952
0.0436817
0.0439201
0.0442178
0.0445835
0.0450305
0.0455877
0.0463293
0.0474678
0.0497019
0.0561465
0.0974106
0.0430242
0.043039
0.0430627
0.0430992
0.0431534
0.0432311
0.0433387
0.0434834
0.0436724
0.0439132
0.044213
0.0445806
0.0450292
0.0455879
0.0463308
0.0474706
0.0497062
0.0561538
0.0974344
0.0430043
0.0430201
0.0430452
0.0430835
0.0431396
0.0432193
0.0433289
0.0434755
0.0436663
0.0439087
0.0442099
0.0445788
0.0450286
0.0455882
0.0463319
0.0474724
0.0497089
0.0561584
0.0974495
0.0429911
0.0430075
0.0430336
0.043073
0.0431305
0.0432115
0.0433224
0.0434703
0.0436624
0.0439058
0.044208
0.0445777
0.0450282
0.0455885
0.0463327
0.0474737
0.0497107
0.0561612
0.097459
0.0429824
0.0429993
0.043026
0.0430662
0.0431245
0.0432064
0.0433183
0.043467
0.0436599
0.043904
0.0442069
0.0445771
0.0450281
0.0455887
0.0463333
0.0474745
0.0497118
0.056163
0.097465
0.0429768
0.042994
0.0430211
0.0430618
0.0431207
0.0432032
0.0433157
0.043465
0.0436583
0.043903
0.0442063
0.0445768
0.0450281
0.0455889
0.0463336
0.047475
0.0497125
0.0561641
0.0974687
0.0429733
0.0429907
0.0430181
0.0430591
0.0431183
0.0432012
0.0433141
0.0434637
0.0436574
0.0439024
0.0442059
0.0445767
0.0450281
0.0455891
0.0463339
0.0474753
0.0497129
0.0561648
0.0974709
0.0429711
0.0429886
0.0430162
0.0430574
0.0431169
0.0432
0.0433131
0.043463
0.0436569
0.043902
0.0442057
0.0445766
0.0450281
0.0455892
0.0463341
0.0474756
0.0497132
0.0561652
0.0974723
0.0429699
0.0429874
0.0430151
0.0430564
0.043116
0.0431993
0.0433125
0.0434626
0.0436566
0.0439019
0.0442057
0.0445766
0.0450282
0.0455893
0.0463342
0.0474757
0.0497134
0.0561655
0.0974732
0.0429691
0.0429867
0.0430144
0.0430559
0.0431155
0.0431989
0.0433122
0.0434624
0.0436565
0.0439018
0.0442056
0.0445766
0.0450282
0.0455894
0.0463343
0.0474758
0.0497135
0.0561656
0.0974737
0.0429686
0.0429863
0.043014
0.0430555
0.0431153
0.0431987
0.0433121
0.0434623
0.0436564
0.0439017
0.0442056
0.0445767
0.0450283
0.0455894
0.0463343
0.0474759
0.0497135
0.0561657
0.097474
0.0429684
0.042986
0.0430138
0.0430554
0.0431151
0.0431986
0.043312
0.0434622
0.0436564
0.0439017
0.0442056
0.0445767
0.0450283
0.0455894
0.0463344
0.0474759
0.0497136
0.0561658
0.0974742
0.0429683
0.0429859
0.0430137
0.0430553
0.043115
0.0431985
0.0433119
0.0434622
0.0436564
0.0439017
0.0442056
0.0445767
0.0450283
0.0455895
0.0463344
0.0474759
0.0497136
0.0561658
0.0974743
0.0429682
0.0429859
0.0430137
0.0430552
0.043115
0.0431985
0.0433119
0.0434622
0.0436564
0.0439017
0.0442057
0.0445767
0.0450284
0.0455895
0.0463344
0.0474759
0.0497136
0.0561658
0.0974743
0.0429682
0.0429858
0.0430136
0.0430552
0.043115
0.0431985
0.0433119
0.0434622
0.0436564
0.0439018
0.0442057
0.0445767
0.0450284
0.0455895
0.0463344
0.0474759
0.0497136
0.0561658
0.0974744
0.0429681
0.0429858
0.0430136
0.0430552
0.043115
0.0431985
0.0433119
0.0434622
0.0436564
0.0439018
0.0442057
0.0445767
0.0450284
0.0455895
0.0463344
0.047476
0.0497136
0.0561658
0.0974744
0.0429681
0.0429858
0.0430136
0.0430552
0.043115
0.0431985
0.0433119
0.0434622
0.0436564
0.0439018
0.0442057
0.0445767
0.0450284
0.0455895
0.0463344
0.047476
0.0497136
0.0561658
0.0974744
0.0429681
0.0429858
0.0430136
0.0430552
0.043115
0.0431985
0.0433119
0.0434622
0.0436564
0.0439018
0.0442057
0.0445767
0.0450284
0.0455895
0.0463344
0.047476
0.0497136
0.0561658
0.0974744
0.0429681
0.0429858
0.0430136
0.0430552
0.043115
0.0431984
0.0433119
0.0434622
0.0436564
0.0439018
0.0442057
0.0445767
0.0450284
0.0455895
0.0463344
0.047476
0.0497136
0.0561658
0.0974744
0.0429681
0.0429857
0.0430136
0.0430551
0.0431149
0.0431984
0.0433119
0.0434622
0.0436564
0.0439018
0.0442057
0.0445767
0.0450284
0.0455895
0.0463344
0.047476
0.0497136
0.0561658
0.0974744
0.042968
0.0429857
0.0430136
0.0430551
0.0431149
0.0431984
0.0433119
0.0434622
0.0436564
0.0439018
0.0442057
0.0445767
0.0450284
0.0455895
0.0463344
0.047476
0.0497136
0.0561658
0.0974744
0.042968
0.0429857
0.0430135
0.0430551
0.0431149
0.0431984
0.0433119
0.0434622
0.0436564
0.0439018
0.0442057
0.0445767
0.0450284
0.0455895
0.0463344
0.047476
0.0497136
0.0561658
0.0974744
0.042968
0.0429857
0.0430135
0.0430551
0.0431149
0.0431984
0.0433119
0.0434622
0.0436564
0.0439018
0.0442057
0.0445767
0.0450284
0.0455895
0.0463344
0.047476
0.0497136
0.0561658
0.0974744
0.0429679
0.0429856
0.0430135
0.0430551
0.0431149
0.0431984
0.0433119
0.0434622
0.0436564
0.0439018
0.0442057
0.0445767
0.0450284
0.0455895
0.0463344
0.047476
0.0497136
0.0561658
0.0974744
0.0429679
0.0429856
0.0430135
0.0430551
0.0431149
0.0431984
0.0433119
0.0434622
0.0436564
0.0439018
0.0442057
0.0445767
0.0450284
0.0455895
0.0463344
0.047476
0.0497136
0.0561658
0.0974744
0.0429679
0.0429856
0.0430135
0.0430551
0.0431149
0.0431984
0.0433119
0.0434621
0.0436564
0.0439018
0.0442057
0.0445767
0.0450284
0.0455895
0.0463344
0.047476
0.0497136
0.0561658
0.0974744
)
;

boundaryField
{
    leftWall
    {
        type            epsilonWallFunction;
        blending        stepwise;
        value           nonuniform List<scalar> 
50
(
0.0110315
0.0185755
0.0288592
0.0380247
0.0460243
0.0530252
0.0591828
0.0646195
0.0722018
0.0800751
0.0861191
0.0907254
0.0941987
0.0967843
0.0986817
0.100053
0.101029
0.101713
0.102185
0.102506
0.102722
0.102865
0.102958
0.103018
0.103057
0.103082
0.103097
0.103107
0.103113
0.103116
0.103119
0.10312
0.103121
0.103121
0.103122
0.103122
0.103122
0.103122
0.103122
0.103122
0.103122
0.103122
0.103122
0.103122
0.103122
0.103122
0.103122
0.103122
0.103122
0.103122
)
;
    }
    rightWall
    {
        type            epsilonWallFunction;
        blending        stepwise;
        value           nonuniform List<scalar> 
50
(
0.0121457
0.0184503
0.0280624
0.0366359
0.0441278
0.0506866
0.0564547
0.0615458
0.068642
0.0760002
0.0816396
0.0859308
0.0891624
0.0915658
0.0933287
0.0946031
0.0955108
0.0961478
0.0965884
0.0968892
0.0970918
0.0972267
0.0973155
0.0973733
0.0974106
0.0974344
0.0974495
0.097459
0.097465
0.0974687
0.0974709
0.0974723
0.0974732
0.0974737
0.097474
0.0974742
0.0974743
0.0974743
0.0974744
0.0974744
0.0974744
0.0974744
0.0974744
0.0974744
0.0974744
0.0974744
0.0974744
0.0974744
0.0974744
0.0974744
)
;
    }
    lowerWall
    {
        type            epsilonWallFunction;
        blending        stepwise;
        value           nonuniform List<scalar> 
62
(
0.0110315
0.0427755
0.0688899
0.0892438
0.105189
0.117674
0.127385
0.134845
0.140462
0.144559
0.147378
0.149087
0.149775
0.149441
0.147985
0.145171
0.140591
0.133579
0.12309
0.107523
0.0846267
0.0519761
0.010882
0.010882
0.0207646
0.034528
0.0479324
0.0617214
0.0782127
0.105344
0.176898
0.212885
0.165243
0.164874
0.210795
0.0119403
0.0203682
0.0333069
0.0459403
0.0590577
0.0750768
0.101833
0.169232
0.0119403
0.0566485
0.0906438
0.113307
0.127904
0.137117
0.14268
0.145628
0.146535
0.145672
0.14309
0.138669
0.132138
0.123082
0.110928
0.0948948
0.07389
0.0463605
0.0121457
)
;
    }
    atmosphere
    {
        type            inletOutlet;
        inletValue      uniform 0.1;
        value           nonuniform List<scalar> 
46
(
0.103122
0.0578368
0.050526
0.0479689
0.0466949
0.0458964
0.0453143
0.0448516
0.0444692
0.0441492
0.0438826
0.0436629
0.0434848
0.0433429
0.043232
0.0431472
0.0430837
0.0430372
0.0430041
0.0429813
0.0429664
0.0429576
0.0429538
0.0429541
0.0429553
0.0429575
0.0429607
0.0429679
0.0429856
0.0430135
0.0430551
0.0431149
0.0431984
0.0433119
0.0434621
0.0436564
0.0439018
0.0442057
0.0445767
0.0450284
0.0455895
0.0463344
0.047476
0.0497136
0.0561658
0.0974744
)
;
    }
    defaultFaces
    {
        type            empty;
    }
}


// ************************************************************************* //
