/*--------------------------------*- C++ -*----------------------------------*\
| =========                 |                                                 |
| \\      /  F ield         | OpenFOAM: The Open Source CFD Toolbox           |
|  \\    /   O peration     | Version:  2406                                  |
|   \\  /    A nd           | Website:  www.openfoam.com                      |
|    \\/     M anipulation  |                                                 |
\*---------------------------------------------------------------------------*/
FoamFile
{
    version     2.0;
    format      ascii;
    arch        "LSB;label=32;scalar=64";
    class       volScalarField;
    location    "0.55";
    object      k;
}
// * * * * * * * * * * * * * * * * * * * * * * * * * * * * * * * * * * * * * //

dimensions      [0 2 -2 0 0 0 0];

internalField   nonuniform List<scalar> 
2268
(
0.1
0.1
0.1
0.1
0.1
0.1
0.1
0.1
0.1
0.1
0.1
0.1
0.1
0.007598
0.00431692
0.00560227
0.00637739
0.0067697
0.00683216
0.00654061
0.0057953
0.00437075
0.00168135
0.1
0.1
0.1
0.1
0.1
0.1
0.1
0.1
0.1
0.1
0.1
0.1
0.1
0.0081128
0.0100291
0.0127395
0.0143792
0.0152251
0.0153626
0.0147363
0.0131382
0.0101169
0.00410003
0.1
0.1
0.1
0.1
0.1
0.1
0.1
0.1
0.1
0.1
0.1
0.1
0.1
0.00985594
0.0132563
0.0165385
0.0185484
0.019607
0.0198009
0.0190594
0.0171272
0.013421
0.00560455
0.1
0.1
0.1
0.1
0.1
0.1
0.1
0.1
0.1
0.1
0.1
0.1
0.1
0.0114863
0.0157033
0.019346
0.0215904
0.0227971
0.0230555
0.0222881
0.020207
0.0160907
0.00685133
0.1
0.1
0.1
0.1
0.1
0.1
0.1
0.1
0.1
0.1
0.1
0.1
0.1
0.0129362
0.0177222
0.0216564
0.0240876
0.0254222
0.0257621
0.025032
0.0229229
0.0185653
0.00802423
0.1
0.1
0.1
0.1
0.1
0.1
0.1
0.1
0.1
0.1
0.1
0.1
0.1
0.0142477
0.0194589
0.0236462
0.0262419
0.0276988
0.0281393
0.0275019
0.0254778
0.0210767
0.00936391
0.1
0.1
0.1
0.1
0.1
0.1
0.1
0.1
0.1
0.1
0.1
0.1
0.1
0.0154595
0.0209952
0.0254029
0.0281478
0.0297255
0.0302847
0.0297895
0.0279665
0.0238166
0.0114667
0.1
0.1
0.1
0.1
0.1
0.1
0.1
0.1
0.1
0.1
0.1
0.1
0.1
0.0165996
0.0223793
0.0269741
0.0298539
0.0315514
0.0322432
0.0319292
0.0304113
0.0269142
0.0163129
0.00182872
0.00491788
0.0066185
0.00763658
0.0082649
0.00865539
0.00889068
0.0090169
0.00905925
0.00902933
0.00892845
0.00874942
0.00847738
0.00808963
0.00755359
0.00681995
0.0058029
0.0043168
0.00232568
0.00452414
0.0113891
0.0150085
0.0171949
0.0185482
0.0193894
0.0198956
0.0201662
0.0202554
0.020188
0.0199668
0.019576
0.0189833
0.0181383
0.0169685
0.015364
0.0131391
0.00991309
0.00425502
0.0061998
0.0151427
0.0195977
0.0222701
0.0239273
0.0249601
0.0255822
0.0259131
0.0260179
0.025926
0.02564
0.0251405
0.0243871
0.0233173
0.0218402
0.0198186
0.0170242
0.0129854
0.00555511
0.00762763
0.0182001
0.0231504
0.0260683
0.0278776
0.029009
0.0296915
0.0300522
0.0301599
0.0300451
0.0297098
0.0291316
0.0282651
0.0270402
0.0253541
0.0230518
0.0198763
0.0152807
0.00658205
0.00900115
0.0210388
0.0262752
0.0292913
0.0311621
0.0323375
0.033048
0.0334202
0.0335223
0.0333837
0.0330049
0.0323609
0.0314028
0.0300547
0.0282049
0.0256848
0.0222128
0.0171684
0.0074227
0.0105915
0.0238846
0.0291808
0.0321707
0.0340341
0.0352136
0.0359284
0.0362986
0.0363882
0.0362242
0.0358048
0.0351026
0.0340658
0.0326139
0.0306284
0.0279293
0.0242121
0.0187848
0.00813994
0.0130515
0.0268995
0.0319523
0.0348019
0.036603
0.0377555
0.0384562
0.0388134
0.0388851
0.0386941
0.0382359
0.037481
0.0363747
0.0348331
0.0327321
0.0298821
0.0259579
0.0201999
0.00877422
0.0183584
0.030164
0.0346042
0.0372215
0.0389199
0.0400224
0.0406949
0.0410308
0.0410799
0.0408606
0.0403651
0.0395616
0.0383931
0.0367728
0.034572
0.0315935
0.027494
0.0214526
0.00935081
0.1
0.1
0.1
0.1
0.1
0.1
0.1
0.1
0.1
0.1
0.1
0.1
0.1
0.0182943
0.024341
0.0291762
0.0322452
0.0341261
0.0350383
0.0350427
0.0340822
0.0319158
0.0277535
0.1
0.1
0.1
0.1
0.1
0.1
0.1
0.1
0.1
0.1
0.1
0.1
0.1
0.020233
0.0264382
0.0315265
0.0348255
0.0369513
0.0381717
0.0386158
0.0383517
0.0374278
0.0359274
0.1
0.1
0.1
0.1
0.1
0.1
0.1
0.1
0.1
0.1
0.1
0.1
0.1
0.0218872
0.0281097
0.0334041
0.0369148
0.0392723
0.0407779
0.0416026
0.0418741
0.0417303
0.0413806
0.1
0.1
0.1
0.1
0.1
0.1
0.1
0.1
0.1
0.1
0.1
0.1
0.1
0.0233263
0.0294698
0.034926
0.0386233
0.0411875
0.0429379
0.0440664
0.0447209
0.0450494
0.0452342
0.1
0.1
0.1
0.1
0.1
0.1
0.1
0.1
0.1
0.1
0.1
0.1
0.1
0.0245906
0.0305909
0.036168
0.0400225
0.0427621
0.0447129
0.0460745
0.0469974
0.0476197
0.0480873
0.1
0.1
0.1
0.1
0.1
0.1
0.1
0.1
0.1
0.1
0.1
0.1
0.1
0.0257043
0.0315201
0.0371825
0.0411644
0.0440478
0.0461579
0.0476953
0.0488073
0.0496199
0.0502543
0.1
0.1
0.1
0.1
0.1
0.1
0.1
0.1
0.1
0.1
0.1
0.1
0.1
0.0266838
0.0322909
0.0380089
0.0420911
0.045089
0.0473235
0.048993
0.0502397
0.0511805
0.0519213
0.1
0.1
0.1
0.1
0.1
0.1
0.1
0.1
0.1
0.1
0.1
0.1
0.1
0.0275426
0.0329297
0.0386797
0.0428386
0.0459262
0.0482566
0.0500248
0.0513688
0.0523986
0.0532109
0.1
0.1
0.1
0.1
0.1
0.1
0.1
0.1
0.1
0.1
0.1
0.1
0.1
0.0282932
0.0334596
0.0392237
0.0434399
0.0465963
0.0489998
0.0508415
0.0522559
0.0533483
0.05421
0.1
0.1
0.1
0.1
0.1
0.1
0.1
0.1
0.1
0.1
0.1
0.1
0.1
0.0289481
0.033902
0.0396678
0.0439259
0.0471342
0.0495922
0.0514877
0.0529524
0.0540887
0.0549844
0.1
0.1
0.1
0.1
0.1
0.1
0.1
0.1
0.1
0.1
0.1
0.1
0.1
0.0295201
0.0342784
0.0400386
0.0443266
0.0475727
0.0500698
0.052003
0.0535022
0.0546678
0.0555856
0.1
0.1
0.1
0.1
0.1
0.1
0.1
0.1
0.1
0.1
0.1
0.1
0.1
0.0300241
0.0346117
0.0403638
0.0446724
0.047944
0.0504664
0.0524231
0.0539431
0.0551258
0.0560558
0.1
0.1
0.1
0.1
0.1
0.1
0.1
0.1
0.1
0.1
0.1
0.1
0.1
0.0304783
0.0349294
0.0406744
0.0449955
0.0482804
0.0508143
0.0527807
0.0543085
0.0554968
0.0564297
0.1
0.1
0.1
0.1
0.1
0.1
0.1
0.1
0.1
0.1
0.1
0.1
0.1
0.0309092
0.035268
0.0410089
0.0453325
0.0486158
0.0511452
0.0531058
0.0546276
0.0558098
0.0567361
0.1
0.1
0.1
0.1
0.1
0.1
0.1
0.1
0.1
0.1
0.1
0.1
0.1
0.0313606
0.0356828
0.0414185
0.0457267
0.0489863
0.0514899
0.0534261
0.0549261
0.0560894
0.056999
0.1
0.1
0.1
0.1
0.1
0.1
0.1
0.1
0.1
0.1
0.1
0.1
0.1
0.0319154
0.0362641
0.0419746
0.0462302
0.0494302
0.0518779
0.053766
0.0552257
0.0563557
0.0572378
0.1
0.1
0.1
0.1
0.1
0.1
0.1
0.1
0.1
0.1
0.1
0.1
0.1
0.0327533
0.0371681
0.0427745
0.0469009
0.0499839
0.0523348
0.0541453
0.0555435
0.0566245
0.0574671
0.1
0.1
0.1
0.1
0.1
0.1
0.1
0.1
0.1
0.1
0.1
0.1
0.1
0.0343007
0.038647
0.0439289
0.0477888
0.0506732
0.052877
0.0545768
0.0558905
0.0569061
0.0576976
0.1
0.1
0.1
0.1
0.1
0.1
0.1
0.1
0.1
0.1
0.1
0.1
0.1
0.0373411
0.0409388
0.0454841
0.0489007
0.0514996
0.0535062
0.0550635
0.056271
0.0572059
0.0579352
0.1
0.1
0.1
0.1
0.1
0.1
0.1
0.1
0.1
0.1
0.1
0.1
0.0392874
0.0388987
0.0435024
0.0472644
0.0501691
0.052433
0.054208
0.0555985
0.0566826
0.0575244
0.0581823
0.0190399
0.0226583
0.0254216
0.0273206
0.0286466
0.0295968
0.0303118
0.0309134
0.0315423
0.032423
0.034018
0.0371377
0.0388141
0.0426384
0.0462001
0.0491423
0.05152
0.0534306
0.0549574
0.0561676
0.0571177
0.057858
0.0584381
0.00811371
0.0180195
0.0231294
0.0265813
0.0290756
0.0309526
0.0324295
0.0336784
0.0348724
0.0362282
0.0380422
0.0405797
0.0433154
0.0461247
0.0487156
0.050969
0.0528699
0.0544429
0.0557244
0.0567525
0.0575652
0.0582007
0.0587001
0.00863089
0.020123
0.025964
0.0299828
0.0329593
0.0352471
0.0370715
0.0386069
0.040012
0.0414482
0.0430729
0.0449654
0.0469766
0.0490031
0.0509209
0.0526491
0.0541526
0.055426
0.0564803
0.0573349
0.058014
0.0585461
0.0589652
0.00970507
0.0222212
0.0285037
0.0328398
0.0360937
0.0386257
0.0406572
0.0423534
0.0438532
0.0452793
0.0467299
0.0482494
0.0498011
0.0513385
0.0528021
0.0541426
0.0553294
0.0563498
0.0572037
0.0579003
0.0584549
0.0588891
0.0592311
0.0105233
0.0238885
0.0305206
0.0350849
0.0385285
0.0412251
0.0433932
0.0451889
0.0467357
0.0481343
0.0494599
0.0507533
0.0520176
0.0532383
0.0543899
0.0554457
0.0563858
0.057199
0.0578823
0.0584401
0.0588829
0.0592275
0.0594982
0.0111258
0.0251627
0.0320855
0.0368353
0.0404255
0.0432447
0.0455112
0.0473749
0.0489496
0.050324
0.0515644
0.052713
0.0537891
0.0547966
0.055729
0.0565754
0.0573254
0.0579724
0.0585141
0.0589534
0.0592986
0.0595637
0.0597701
0.0115698
0.0261254
0.0332898
0.0381976
0.0419105
0.0448295
0.0471741
0.0490904
0.0506867
0.0520456
0.0532297
0.0542827
0.0552321
0.0560923
0.0568684
0.0575599
0.0581645
0.0586799
0.0591063
0.0594469
0.0597089
0.0599051
0.0600553
0.0118973
0.0268521
0.0342176
0.0392637
0.043085
0.0460914
0.0485038
0.0504664
0.0520841
0.0534368
0.0545854
0.0555751
0.056438
0.0571949
0.0578584
0.0584354
0.058929
0.0593416
0.0596755
0.0599352
0.060128
0.0602659
0.0603678
0.0121415
0.027408
0.0349447
0.0401155
0.0440373
0.0471254
0.0496013
0.0516084
0.0532501
0.0546048
0.0557331
0.0566816
0.0574853
0.0581694
0.0587516
0.0592436
0.0596532
0.059986
0.0602468
0.0604413
0.0605774
0.0606671
0.0607286
0.0123302
0.0278517
0.0355418
0.0408312
0.0448511
0.0480197
0.0505587
0.0526112
0.0542799
0.0556432
0.0567621
0.0576846
0.0584479
0.0590806
0.0596037
0.0600328
0.0603789
0.0606504
0.0608541
0.060997
0.0610877
0.0611381
0.0611666
0.0124894
0.0282405
0.0360807
0.0414913
0.0456126
0.0488642
0.0514681
0.0535674
0.0552656
0.0566417
0.0577581
0.0586644
0.0593999
0.0599957
0.0604757
0.0608579
0.0611562
0.0613809
0.0615406
0.0616433
0.0616982
0.0617176
0.0617197
0.0126465
0.0286368
0.036642
0.0421867
0.0464188
0.0497587
0.0524294
0.0545757
0.0563032
0.0576929
0.0588095
0.0597045
0.0604195
0.0609876
0.0614349
0.0617817
0.0620436
0.0622327
0.0623588
0.0624309
0.0624585
0.0624541
0.0624359
0.0128343
0.0291182
0.0373255
0.0430294
0.0473865
0.0508202
0.053557
0.0557463
0.0574979
0.0588969
0.0600109
0.0608943
0.0615908
0.0621355
0.0625562
0.0628749
0.0631086
0.0632705
0.0633713
0.0634205
0.0634281
0.0634066
0.0633737
0.0130978
0.02979
0.0382647
0.0441647
0.0486623
0.0521902
0.0549846
0.0572042
0.0589666
0.0603628
0.061465
0.0623304
0.0630052
0.0635261
0.0639222
0.0642166
0.0644271
0.0645676
0.0646494
0.0646824
0.0646764
0.0646437
0.0646016
0.0135027
0.0308033
0.039644
0.0457841
0.0504304
0.054039
0.0568668
0.0590896
0.060837
0.0622084
0.0632811
0.0641158
0.0647603
0.0652525
0.0656222
0.0658928
0.0660826
0.0662056
0.0662732
0.0662952
0.0662812
0.0662431
0.066197
0.0141481
0.0323776
0.0417174
0.0481361
0.0529155
0.056563
0.0593745
0.0615523
0.0632431
0.0645558
0.0655729
0.0663573
0.0669579
0.0674126
0.0677509
0.0679958
0.068165
0.0682725
0.0683293
0.0683446
0.0683278
0.0682895
0.0682444
0.0151821
0.0348298
0.044827
0.051529
0.0563752
0.059973
0.0626824
0.0647419
0.0663172
0.067526
0.0684535
0.0691631
0.0697024
0.0701078
0.0704073
0.0706225
0.07077
0.0708627
0.0709108
0.0709228
0.0709072
0.0708734
0.0708339
0.0168277
0.0386245
0.049426
0.0563239
0.061078
0.0644708
0.0669499
0.0687932
0.0701805
0.0712325
0.0720326
0.0726404
0.0730996
0.0734432
0.0736958
0.0738765
0.074
0.0740775
0.0741179
0.0741289
0.0741176
0.0740918
0.0740615
0.0194545
0.0444913
0.0561065
0.0629031
0.06726
0.0702129
0.0722974
0.0738125
0.0749359
0.0757793
0.0764163
0.0768977
0.0772602
0.0775305
0.0777289
0.0778706
0.0779676
0.078029
0.0780621
0.0780731
0.0780676
0.0780519
0.078033
0.0239031
0.0537138
0.0655953
0.0715755
0.0750451
0.0772655
0.0787847
0.0798705
0.0806682
0.0812639
0.0817125
0.0820509
0.0823054
0.0824952
0.0826345
0.0827343
0.082803
0.0828473
0.0828724
0.082883
0.0828834
0.0828776
0.08287
0.0335967
0.0686639
0.0784647
0.082314
0.084319
0.0855592
0.0864031
0.087008
0.0874544
0.0877891
0.0880419
0.0882332
0.0883775
0.0884853
0.0885648
0.088622
0.0886619
0.0886883
0.0887045
0.0887132
0.0887171
0.0887186
0.0887197
0.0636241
0.0918536
0.0937199
0.0942653
0.0946236
0.0948958
0.0951046
0.0952646
0.0953873
0.0954814
0.0955535
0.0956088
0.0956508
0.0956825
0.095706
0.0957232
0.0957355
0.095744
0.0957498
0.0957539
0.0957572
0.0957605
0.0957645
0.0188891
0.0161423
0.0163203
0.0195617
0.0346298
0.0342259
0.0345169
0.0355105
0.0412558
0.0413294
0.0416225
0.0421324
0.0454429
0.0456454
0.045937
0.0463164
0.0484379
0.0486918
0.0489851
0.0493178
0.0506813
0.050963
0.0512598
0.0515721
0.0523958
0.0526952
0.0529959
0.0532985
0.0537171
0.0540289
0.0543333
0.0546313
0.0547381
0.0550588
0.0553665
0.055662
0.0555275
0.0558543
0.0561643
0.0564585
0.0561382
0.0564687
0.0567799
0.0570728
0.0566129
0.0569447
0.0572556
0.0575467
0.0569863
0.057317
0.0576259
0.057914
0.0572872
0.057614
0.0579187
0.0582023
0.057539
0.057859
0.058157
0.0584342
0.0577606
0.0580704
0.058359
0.0586275
0.0579665
0.0582626
0.0585388
0.0587962
0.0581671
0.0584459
0.0587068
0.0589505
0.0583689
0.0586273
0.0588699
0.0590977
0.0585753
0.0588104
0.0590326
0.0592424
0.0587868
0.0589967
0.0591967
0.0593872
0.0590027
0.0591864
0.0593633
0.0595336
0.0592216
0.059379
0.0595327
0.0596828
0.059443
0.0595749
0.0597061
0.0598367
0.0596684
0.0597765
0.0598866
0.0599987
0.0599025
0.0599888
0.0600797
0.0601749
0.0601542
0.0602212
0.0602949
0.0603751
0.0604378
0.0604881
0.060547
0.0606141
0.0607742
0.0608104
0.0608566
0.0609127
0.061192
0.0612164
0.0612522
0.0612991
0.0617289
0.0617438
0.061771
0.0618103
0.0624324
0.0624399
0.0624603
0.0624933
0.0633609
0.0633627
0.0633777
0.0634056
0.0645826
0.0645804
0.0645912
0.0646147
0.0661749
0.0661701
0.0661776
0.0661972
0.068222
0.0682161
0.068221
0.0682368
0.0708138
0.0708079
0.0708109
0.0708228
0.0740459
0.074041
0.0740426
0.0740505
0.0780232
0.0780199
0.0780204
0.0780246
0.0828662
0.0828649
0.0828647
0.0828657
0.0887208
0.0887211
0.0887207
0.0887195
0.0957673
0.0957683
0.095768
0.0957665
0.0299354
0.0352369
0.0384915
0.0406823
0.0421829
0.0431831
0.0437956
0.0440882
0.044097
0.0438319
0.0432801
0.0424061
0.0411497
0.0394202
0.0370837
0.0339332
0.0296022
0.0231858
0.0101798
0.037875
0.0406843
0.0428805
0.0445412
0.0457514
0.0465821
0.0470875
0.0473034
0.0472468
0.0469164
0.046292
0.045333
0.0439753
0.0421244
0.0396412
0.0363093
0.0317382
0.0249353
0.0110074
0.043232
0.0449373
0.0464654
0.0477145
0.0486655
0.0493287
0.0497203
0.0498519
0.0497251
0.0493282
0.0486342
0.0475976
0.0461506
0.0441953
0.0415882
0.0381051
0.0333358
0.0262228
0.0115991
0.0470642
0.0482487
0.0493653
0.0503145
0.0510532
0.051566
0.0518482
0.0518957
0.0516982
0.0512359
0.0504756
0.0493677
0.0478409
0.0457939
0.0430796
0.0394672
0.0345314
0.0271684
0.0120238
0.0499259
0.0508381
0.051697
0.0524326
0.0530043
0.0533892
0.0535727
0.0535408
0.0532756
0.0527508
0.0519284
0.0507551
0.0491566
0.0470287
0.0442209
0.0404974
0.0354222
0.0278598
0.0123284
0.0521131
0.0528705
0.0535634
0.0541473
0.0545903
0.0548699
0.0549673
0.0548636
0.0545357
0.0539528
0.0530733
0.0518406
0.0501779
0.0479787
0.0450899
0.0412718
0.0360812
0.0283618
0.0125453
0.0538037
0.0544673
0.0550506
0.055526
0.0558708
0.056065
0.0560894
0.0559226
0.0555383
0.0549028
0.0539715
0.0526856
0.0509661
0.0487048
0.0457463
0.0418487
0.0365642
0.0287226
0.0126982
0.0551158
0.0557202
0.056229
0.0566263
0.0568962
0.0570223
0.0569859
0.0567647
0.0563308
0.0556485
0.0546713
0.0533385
0.0515696
0.0492547
0.0462375
0.0422741
0.0369142
0.028979
0.0128046
0.0561342
0.0566997
0.0571569
0.0574972
0.0577101
0.057782
0.0576956
0.0574285
0.056952
0.056229
0.0552118
0.0538384
0.0520271
0.049667
0.0466009
0.0425842
0.0371648
0.0291588
0.0128776
0.0569226
0.0574614
0.0578819
0.0581803
0.0583496
0.0583788
0.0582518
0.0579466
0.057434
0.0566764
0.055625
0.0542171
0.0523701
0.0499726
0.0468667
0.0428073
0.037342
0.0292833
0.012927
0.0575309
0.0580505
0.0584442
0.0587112
0.0588471
0.0588427
0.058683
0.0583465
0.057804
0.0570174
0.0559375
0.0545008
0.0526244
0.0501964
0.0470586
0.0429659
0.0374656
0.0293683
0.01296
0.0579992
0.0585038
0.0588771
0.0591201
0.0592301
0.0591993
0.0590135
0.0586517
0.0580847
0.0572743
0.0561709
0.0547108
0.0528106
0.0503582
0.0471955
0.0430772
0.0375507
0.0294257
0.0129817
0.0583602
0.0588517
0.0592085
0.0594326
0.0595222
0.0594706
0.059264
0.0588819
0.0582952
0.0574655
0.0563433
0.0548644
0.0529453
0.0504739
0.0472919
0.0431544
0.0376086
0.0294638
0.0129958
0.0586405
0.0591192
0.0594616
0.05967
0.0597433
0.059675
0.059452
0.0590537
0.0584513
0.0576063
0.056469
0.0549753
0.0530415
0.0505555
0.047359
0.0432072
0.0376475
0.0294889
0.0130049
0.058862
0.0593269
0.0596556
0.0598503
0.05991
0.0598281
0.0595919
0.0591807
0.0585659
0.0577088
0.0565599
0.0550547
0.0531096
0.0506124
0.0474051
0.043243
0.0376734
0.0295052
0.0130107
0.0590419
0.0594911
0.059806
0.059988
0.0600356
0.0599425
0.0596954
0.059274
0.0586493
0.0577829
0.0566248
0.0551109
0.0531573
0.0506519
0.0474366
0.0432669
0.0376904
0.0295158
0.0130144
0.0591939
0.0596249
0.059925
0.0600945
0.0601312
0.0600282
0.0597722
0.0593425
0.05871
0.0578362
0.0566712
0.0551505
0.0531905
0.050679
0.0474579
0.0432829
0.0377016
0.0295225
0.0130167
0.0593282
0.0597382
0.0600222
0.060179
0.0602053
0.0600935
0.0598297
0.0593931
0.0587544
0.0578748
0.0567043
0.0551785
0.0532137
0.0506976
0.0474724
0.0432936
0.0377089
0.0295269
0.0130181
0.0594521
0.0598384
0.0601051
0.0602487
0.0602647
0.0601446
0.059874
0.0594315
0.0587876
0.0579033
0.0567286
0.0551988
0.0532303
0.0507108
0.0474825
0.0433009
0.0377138
0.0295297
0.013019
0.0595707
0.0599311
0.0601791
0.060309
0.0603148
0.0601868
0.0599099
0.0594622
0.0588138
0.0579257
0.0567474
0.0552144
0.0532429
0.0507207
0.0474899
0.0433062
0.0377172
0.0295317
0.0130196
0.0596875
0.0600202
0.0602485
0.0603644
0.0603599
0.0602242
0.0599414
0.0594889
0.0588366
0.0579449
0.0567635
0.0552277
0.0532536
0.050729
0.0474962
0.0433106
0.0377201
0.0295332
0.0130201
0.0598048
0.0601089
0.0603172
0.0604188
0.0604041
0.0602608
0.0599723
0.0595152
0.0588591
0.0579642
0.0567798
0.0552413
0.0532646
0.0507376
0.0475025
0.043315
0.0377229
0.0295348
0.0130206
0.0599248
0.0602003
0.0603885
0.060476
0.0604512
0.0603006
0.0600064
0.0595449
0.058885
0.0579867
0.0567992
0.0552576
0.053278
0.0507482
0.0475105
0.0433207
0.0377266
0.0295367
0.0130211
0.0600502
0.0602979
0.0604667
0.0605405
0.0605059
0.0603481
0.0600484
0.0595824
0.0589185
0.0580165
0.0568253
0.0552801
0.0532968
0.0507633
0.0475221
0.043329
0.037732
0.0295397
0.0130221
0.0601855
0.0604069
0.0605573
0.0606182
0.0605742
0.0604094
0.0601041
0.0596334
0.0589651
0.0580588
0.0568632
0.0553132
0.0533249
0.0507864
0.0475401
0.0433421
0.0377407
0.0295446
0.0130235
0.0603372
0.0605346
0.0606681
0.0607169
0.0606641
0.0604925
0.0601817
0.0597059
0.0590327
0.0581212
0.0569199
0.0553636
0.0533685
0.0508226
0.0475688
0.0433634
0.0377551
0.0295529
0.0130261
0.0605157
0.0606916
0.0608099
0.0608478
0.0607868
0.0606088
0.0602923
0.0598111
0.0591322
0.0582143
0.0570056
0.055441
0.0534363
0.05088
0.047615
0.0433983
0.0377791
0.0295669
0.0130305
0.0607358
0.0608929
0.0609979
0.0610261
0.0609577
0.0607735
0.0604513
0.0599642
0.0592788
0.0583532
0.0571353
0.0555596
0.053542
0.0509708
0.0476894
0.0434556
0.0378194
0.0295908
0.0130383
0.0610182
0.0611594
0.0612529
0.0612726
0.0611976
0.0610075
0.0606797
0.0601865
0.0594938
0.0585592
0.0573301
0.0557403
0.0537054
0.0511137
0.0478089
0.0435494
0.0378866
0.0296316
0.0130516
0.0613911
0.0615188
0.0616027
0.0616151
0.0615342
0.0613389
0.0610058
0.0605065
0.0598063
0.0588619
0.0576198
0.0560129
0.0539561
0.051337
0.0479993
0.0437022
0.0379986
0.0297011
0.0130749
0.0618912
0.0620076
0.0620832
0.0620893
0.0620035
0.0618039
0.0614663
0.0609619
0.0602548
0.0593009
0.0580452
0.0564194
0.0543364
0.0516825
0.0483005
0.0439498
0.0381849
0.0298196
0.0131153
0.062565
0.0626716
0.0627399
0.0627407
0.062651
0.0624483
0.0621081
0.0616007
0.0608892
0.0599282
0.058661
0.0570167
0.0549056
0.0522109
0.0487726
0.0443484
0.038493
0.0300213
0.0131857
0.0634692
0.0635667
0.0636283
0.0636245
0.063532
0.0633284
0.0629886
0.0624822
0.0617715
0.0608094
0.0595369
0.0578799
0.0557442
0.0530074
0.0495031
0.0449833
0.0389996
0.0303636
0.0133082
0.0646709
0.0647591
0.0648136
0.0648056
0.064712
0.0645104
0.0641755
0.0636768
0.0629757
0.0620235
0.0607588
0.0591032
0.0569561
0.054186
0.0506147
0.0459809
0.0398236
0.0309406
0.0135212
0.0662458
0.0663237
0.0663703
0.0663582
0.0662652
0.0660695
0.0657462
0.0652647
0.0645863
0.0636615
0.0624262
0.0607978
0.0586676
0.0558912
0.0522708
0.0475187
0.0411428
0.0319023
0.0138891
0.0682773
0.0683427
0.0683801
0.068364
0.0682739
0.0680889
0.0677853
0.0673335
0.0666954
0.0658217
0.0646474
0.063086
0.0610211
0.0582919
0.0546727
0.0498304
0.0432085
0.0334753
0.014516
0.0708542
0.0709052
0.0709317
0.0709119
0.0708271
0.0706585
0.0703841
0.0699763
0.0693993
0.0686059
0.0675325
0.0660921
0.0641625
0.0615678
0.0580477
0.0532015
0.0463555
0.0359863
0.0155603
0.0740722
0.0741069
0.0741217
0.0740988
0.0740223
0.0738758
0.0736402
0.0732912
0.0727971
0.0721153
0.0711875
0.0699311
0.0682255
0.0658868
0.0626238
0.0579529
0.0510125
0.0399027
0.017254
0.0780364
0.0780545
0.0780579
0.0780334
0.0779683
0.0778495
0.0776614
0.0773843
0.0769923
0.0764506
0.0757103
0.0747007
0.0733141
0.0713767
0.0685901
0.0644041
0.0577164
0.0459454
0.0199713
0.0828686
0.0828721
0.0828664
0.0828429
0.0827926
0.0827059
0.0825714
0.0823751
0.0820984
0.0817164
0.081194
0.0804794
0.0794918
0.0780946
0.0760347
0.0727846
0.067085
0.0553724
0.0246223
0.0887163
0.0887102
0.0887002
0.0886817
0.0886494
0.0885975
0.0885192
0.0884065
0.0882488
0.0880321
0.087737
0.0873351
0.0867824
0.0860047
0.0848596
0.08302
0.0795183
0.0704623
0.0356659
0.0957621
0.0957552
0.0957484
0.0957402
0.0957287
0.0957121
0.0956882
0.0956545
0.0956082
0.0955454
0.0954609
0.0953481
0.0951974
0.0949966
0.094731
0.0943898
0.0939748
0.0933288
0.0865205
)
;

boundaryField
{
    leftWall
    {
        type            kqRWallFunction;
        value           nonuniform List<scalar> 
50
(
0.1
0.1
0.1
0.1
0.1
0.1
0.1
0.1
0.1
0.1
0.1
0.1
0.1
0.1
0.1
0.1
0.1
0.1
0.1
0.1
0.1
0.1
0.1
0.1
0.1
0.1
0.1
0.1
0.0190399
0.00811371
0.00863089
0.00970507
0.0105233
0.0111258
0.0115698
0.0118973
0.0121415
0.0123302
0.0124894
0.0126465
0.0128343
0.0130978
0.0135027
0.0141481
0.0151821
0.0168277
0.0194545
0.0239031
0.0335967
0.0636241
)
;
    }
    rightWall
    {
        type            kqRWallFunction;
        value           nonuniform List<scalar> 
50
(
0.00232568
0.00425502
0.00555511
0.00658205
0.0074227
0.00813994
0.00877422
0.00935081
0.0101798
0.0110074
0.0115991
0.0120238
0.0123284
0.0125453
0.0126982
0.0128046
0.0128776
0.012927
0.01296
0.0129817
0.0129958
0.0130049
0.0130107
0.0130144
0.0130167
0.0130181
0.013019
0.0130196
0.0130201
0.0130206
0.0130211
0.0130221
0.0130235
0.0130261
0.0130305
0.0130383
0.0130516
0.0130749
0.0131153
0.0131857
0.0133082
0.0135212
0.0138891
0.014516
0.0155603
0.017254
0.0199713
0.0246223
0.0356659
0.0865205
)
;
    }
    lowerWall
    {
        type            kqRWallFunction;
        value           nonuniform List<scalar> 
62
(
0.1
0.1
0.1
0.1
0.1
0.1
0.1
0.1
0.1
0.1
0.1
0.1
0.1
0.007598
0.00431692
0.00560227
0.00637739
0.0067697
0.00683216
0.00654061
0.0057953
0.00437075
0.00168135
0.00168135
0.00410003
0.00560455
0.00685133
0.00802423
0.00936391
0.0114667
0.0163129
0.0188891
0.0161423
0.0163203
0.0195617
0.00182872
0.00452414
0.0061998
0.00762763
0.00900115
0.0105915
0.0130515
0.0183584
0.00182872
0.00491788
0.0066185
0.00763658
0.0082649
0.00865539
0.00889068
0.0090169
0.00905925
0.00902933
0.00892845
0.00874942
0.00847738
0.00808963
0.00755359
0.00681995
0.0058029
0.0043168
0.00232568
)
;
    }
    atmosphere
    {
        type            inletOutlet;
        inletValue      uniform 0.1;
        value           nonuniform List<scalar> 
46
(
0.0636241
0.1
0.1
0.1
0.1
0.1
0.1
0.1
0.1
0.1
0.1
0.1
0.1
0.1
0.1
0.1
0.1
0.1
0.1
0.1
0.1
0.1
0.1
0.1
0.1
0.1
0.1
0.1
0.1
0.1
0.1
0.1
0.1
0.1
0.1
0.1
0.1
0.1
0.1
0.1
0.1
0.1
0.1
0.1
0.1
0.1
)
;
    }
    defaultFaces
    {
        type            empty;
    }
}


// ************************************************************************* //
