/*--------------------------------*- C++ -*----------------------------------*\
| =========                 |                                                 |
| \\      /  F ield         | OpenFOAM: The Open Source CFD Toolbox           |
|  \\    /   O peration     | Version:  2406                                  |
|   \\  /    A nd           | Website:  www.openfoam.com                      |
|    \\/     M anipulation  |                                                 |
\*---------------------------------------------------------------------------*/
FoamFile
{
    version     2.0;
    format      ascii;
    arch        "LSB;label=32;scalar=64";
    class       volScalarField;
    location    "0.55";
    object      k;
}
// * * * * * * * * * * * * * * * * * * * * * * * * * * * * * * * * * * * * * //

dimensions      [0 2 -2 0 0 0 0];

internalField   nonuniform List<scalar> 
2268
(
0.00219429
0.00446549
0.00615153
0.00732527
0.00818854
0.00883876
0.00933236
0.00970601
0.00998522
0.0101883
0.0103284
0.0104141
0.01045
0.0104364
0.0103685
0.0102349
0.0100154
0.00967529
0.00915665
0.00836093
0.0071191
0.00513289
0.00178934
0.00419446
0.0102828
0.0138341
0.0163325
0.0181761
0.019565
0.0206185
0.0214155
0.0220108
0.022444
0.0227431
0.0229267
0.0230046
0.0229774
0.022835
0.0225535
0.0220901
0.0213727
0.0202811
0.0186132
0.0160267
0.0119272
0.00455803
0.00564658
0.0134968
0.0178461
0.0209104
0.0231841
0.0249039
0.0262127
0.0272058
0.02795
0.0284936
0.0288708
0.0291045
0.0292066
0.029178
0.0290071
0.0286657
0.0281035
0.0272359
0.0259223
0.0239267
0.020841
0.0158951
0.00642389
0.00680209
0.0158824
0.0207317
0.0241345
0.0266687
0.0285934
0.0300636
0.0311831
0.0320252
0.032643
0.0330743
0.0333442
0.0334662
0.033442
0.0332594
0.0328896
0.0322799
0.031343
0.0299337
0.0278057
0.0245131
0.0191087
0.00801639
0.00773834
0.0178181
0.0230491
0.0266944
0.029414
0.0314865
0.0330755
0.03429
0.0352073
0.0358835
0.0363584
0.0366592
0.0368003
0.0367845
0.0366003
0.0362197
0.0355913
0.0346303
0.0331963
0.0310466
0.0277149
0.022071
0.00950849
0.00851583
0.0194427
0.0249933
0.0288313
0.0316954
0.033884
0.0355675
0.0368591
0.0378387
0.0385642
0.0390774
0.0394064
0.039567
0.039563
0.0393846
0.0390056
0.0383785
0.0374247
0.0360147
0.0339225
0.0306876
0.0250362
0.0111561
0.0091736
0.0208296
0.0266595
0.0306607
0.0336447
0.0359294
0.0376922
0.0390493
0.0400827
0.0408519
0.0413998
0.0417556
0.0419364
0.0419473
0.0417804
0.0414127
0.0408018
0.0398779
0.0385277
0.0365537
0.0335415
0.0282152
0.0136338
0.00973731
0.0220261
0.0281045
0.0322494
0.0353372
0.0377047
0.0395361
0.0409507
0.0420321
0.0428409
0.0434211
0.043803
0.0440047
0.0440331
0.0438825
0.0435337
0.0429503
0.0420731
0.0408077
0.0389942
0.0363079
0.0317543
0.0193024
0.00190263
0.00543762
0.0074539
0.00865838
0.00939275
0.00984249
0.0101091
0.0102478
0.0102879
0.0102425
0.0101136
0.00989438
0.00956941
0.00911377
0.00848925
0.00763566
0.00644861
0.00471306
0.00239005
0.00482196
0.0125534
0.0167224
0.0192338
0.0207741
0.0217205
0.0222819
0.0225735
0.0226563
0.022558
0.0222826
0.0218152
0.0211227
0.0201512
0.0188183
0.0169958
0.0144666
0.0107998
0.00447504
0.00672133
0.0166506
0.0216683
0.0246632
0.0265068
0.0276451
0.0283219
0.0286715
0.0287656
0.0286364
0.0282882
0.0277022
0.0268381
0.0256299
0.0239776
0.0217269
0.0186191
0.0141232
0.00594013
0.0083536
0.0199396
0.0253938
0.0285831
0.0305489
0.0317695
0.0324972
0.0328703
0.0329627
0.0328072
0.0324072
0.0317416
0.0307654
0.0294062
0.0275546
0.0250422
0.0215865
0.0165741
0.00711329
0.00989946
0.0229517
0.0286042
0.0318218
0.0338073
0.0350484
0.0357905
0.0361669
0.0362489
0.0360674
0.0356241
0.0348956
0.0338338
0.0323622
0.0303652
0.0276657
0.0239611
0.0185579
0.00806738
0.0116415
0.0259383
0.0315479
0.0346641
0.0365971
0.037816
0.0385471
0.0389125
0.0389771
0.0387686
0.0382859
0.0375036
0.0363711
0.0348088
0.0326971
0.0298511
0.0259496
0.0202217
0.00886099
0.0142953
0.0290874
0.0343352
0.0372369
0.0390634
0.0402292
0.0409305
0.0412736
0.0413153
0.0410782
0.0405582
0.0397277
0.038534
0.036895
0.0346875
0.03172
0.0276525
0.0216422
0.00953284
0.0200996
0.0325066
0.0370013
0.0396013
0.041284
0.0423745
0.0430319
0.0433443
0.0433584
0.0430911
0.0425351
0.0416601
0.0404115
0.0387052
0.0364149
0.0333423
0.0291293
0.0228677
0.0101088
0.0105003
0.0236512
0.0300781
0.0344248
0.0376568
0.0401388
0.0420655
0.0435605
0.0447098
0.0455759
0.0462039
0.0466256
0.0468613
0.0469203
0.0468012
0.046491
0.0459637
0.0451775
0.0440691
0.0425408
0.0404234
0.0373533
0.0322907
0.0112706
0.0253062
0.0321109
0.0366827
0.0400763
0.0426864
0.0447199
0.0463063
0.0475345
0.0484689
0.0491564
0.0496311
0.0499157
0.0500237
0.0499594
0.0497187
0.0492891
0.0486502
0.0477742
0.0466263
0.0451648
0.0433409
0.0411122
0.0118499
0.0265581
0.0336653
0.038425
0.0419563
0.0446767
0.046803
0.0484693
0.0497676
0.0507641
0.0515076
0.0520339
0.0523689
0.0525297
0.0525259
0.0523611
0.052034
0.0515403
0.0508759
0.0500418
0.0490539
0.0479595
0.0468774
0.0122863
0.0275077
0.0348569
0.0397734
0.0434231
0.0462399
0.0484479
0.0501856
0.0515473
0.0526009
0.053397
0.0539735
0.0543587
0.0545729
0.0546306
0.0545413
0.0543119
0.0539488
0.0534613
0.052867
0.0521991
0.0515173
0.0509205
0.0126139
0.0282262
0.0357685
0.0408155
0.0445668
0.0474678
0.0497485
0.0515502
0.0529694
0.0540756
0.0549211
0.0555454
0.0559792
0.0562455
0.0563624
0.0563441
0.0562029
0.0559515
0.055606
0.0551893
0.0547357
0.054295
0.0539331
0.0128578
0.0287666
0.0364624
0.0416174
0.0454553
0.0484298
0.0507746
0.0526336
0.0541048
0.0552593
0.0561506
0.0568199
0.0572995
0.0576151
0.0577871
0.0578332
0.057769
0.0576108
0.0573771
0.0570913
0.0567836
0.0564918
0.0562587
0.0130376
0.0291697
0.0369868
0.0422305
0.0461416
0.0491795
0.0515806
0.0534905
0.0550085
0.0562068
0.0571401
0.0578509
0.0583731
0.0587339
0.0589561
0.0590591
0.0590608
0.0589791
0.0588331
0.0586445
0.0584387
0.0582438
0.0580887
0.0131685
0.0294673
0.0373794
0.0426954
0.0466678
0.0497599
0.0522099
0.0541645
0.0557241
0.0569617
0.057933
0.0586816
0.0592424
0.0596441
0.0599108
0.0600633
0.0601207
0.0601015
0.0600242
0.0599086
0.0597757
0.059647
0.0595427
0.0132626
0.0296845
0.0376704
0.0430446
0.0470678
0.0502056
0.0526975
0.054691
0.0562871
0.0575595
0.0585647
0.059347
0.0599423
0.0603803
0.0606859
0.0608809
0.0609849
0.0610164
0.0609932
0.060933
0.0608535
0.0607716
0.0607021
0.0133293
0.0298411
0.0378837
0.0433042
0.0473688
0.0505447
0.053072
0.0550988
0.0567265
0.0580293
0.0590642
0.0598763
0.0605019
0.0609715
0.0613106
0.0615417
0.0616844
0.0617569
0.0617763
0.0617586
0.061719
0.0616712
0.0616263
0.013376
0.0299526
0.0380382
0.0434951
0.0475931
0.0508002
0.053357
0.0554119
0.0570665
0.0583954
0.059456
0.0602938
0.0609457
0.0614424
0.0618101
0.0620713
0.0622459
0.0623516
0.0624046
0.0624198
0.0624103
0.0623876
0.0623606
0.0134081
0.030031
0.0381488
0.0436339
0.0477583
0.0509906
0.0535717
0.0556499
0.0573271
0.0586781
0.0597605
0.0606202
0.0612944
0.0618141
0.0622058
0.062492
0.0626926
0.0628249
0.0629045
0.0629451
0.0629586
0.0629548
0.0629411
0.01343
0.0300854
0.038227
0.0437336
0.0478786
0.0511311
0.0537317
0.0558289
0.0575247
0.0588941
0.0599948
0.0608728
0.0615657
0.0621047
0.0625162
0.0628229
0.0630445
0.0631981
0.0632987
0.063359
0.0633901
0.0634005
0.0633968
0.0134447
0.0301227
0.0382816
0.0438044
0.0479653
0.0512334
0.0538496
0.0559621
0.057673
0.0590574
0.0601732
0.0610664
0.0617746
0.0623294
0.0627571
0.0630805
0.063319
0.0634895
0.0636064
0.0636821
0.0637265
0.0637478
0.0637516
0.0134545
0.030148
0.0383194
0.0438541
0.048027
0.0513073
0.0539355
0.0560601
0.0577831
0.0591796
0.0603075
0.061213
0.0619338
0.0625013
0.0629421
0.0632788
0.0635307
0.0637145
0.0638442
0.0639316
0.0639864
0.0640159
0.0640253
0.0134609
0.030165
0.0383452
0.0438886
0.0480705
0.0513599
0.0539974
0.0561315
0.057864
0.05927
0.0604076
0.0613229
0.0620537
0.0626314
0.0630825
0.0634297
0.0636922
0.0638863
0.0640259
0.0641224
0.064185
0.0642207
0.0642343
0.0134651
0.0301763
0.0383626
0.0439123
0.0481008
0.051397
0.0540416
0.0561828
0.0579227
0.0593362
0.0604813
0.0614043
0.0621429
0.0627286
0.0631879
0.0635433
0.063814
0.064016
0.0641632
0.0642665
0.0643351
0.0643755
0.0643922
0.0134678
0.0301837
0.0383743
0.0439284
0.0481217
0.0514229
0.0540727
0.0562194
0.0579648
0.059384
0.060535
0.0614639
0.0622086
0.0628006
0.0632661
0.0636279
0.0639047
0.0641129
0.0642657
0.0643743
0.0644473
0.0644911
0.0645102
0.0134695
0.0301885
0.038382
0.0439393
0.0481359
0.0514408
0.0540945
0.0562452
0.0579948
0.0594183
0.0605737
0.0615072
0.0622565
0.0628531
0.0633235
0.06369
0.0639716
0.0641843
0.0643415
0.0644539
0.0645302
0.0645766
0.0645975
0.0134706
0.0301916
0.0383871
0.0439465
0.0481455
0.051453
0.0541095
0.0562631
0.0580158
0.0594425
0.0606012
0.0615381
0.0622909
0.0628911
0.0633651
0.0637351
0.0640203
0.0642364
0.0643968
0.0645121
0.0645908
0.0646391
0.0646612
0.0134713
0.0301936
0.0383904
0.0439513
0.048152
0.0514613
0.0541197
0.0562755
0.0580304
0.0594595
0.0606206
0.06156
0.0623154
0.0629182
0.0633949
0.0637676
0.0640553
0.064274
0.0644366
0.064554
0.0646345
0.0646842
0.0647072
0.0134717
0.0301948
0.0383925
0.0439544
0.0481562
0.0514668
0.0541267
0.056284
0.0580405
0.0594713
0.0606342
0.0615754
0.0623327
0.0629374
0.063416
0.0637906
0.0640803
0.0643007
0.0644651
0.064584
0.0646657
0.0647164
0.0647401
0.013472
0.0301956
0.0383939
0.0439565
0.048159
0.0514705
0.0541313
0.0562897
0.0580474
0.0594793
0.0606435
0.0615861
0.0623447
0.0629508
0.0634308
0.0638068
0.0640979
0.0643196
0.0644852
0.0646051
0.0646878
0.0647392
0.0647633
0.0134721
0.0301961
0.0383948
0.0439578
0.0481609
0.0514729
0.0541344
0.0562935
0.058052
0.0594848
0.0606499
0.0615934
0.062353
0.0629601
0.063441
0.0638181
0.0641101
0.0643327
0.0644992
0.0646199
0.0647032
0.0647551
0.0647795
0.0134722
0.0301964
0.0383953
0.0439586
0.048162
0.0514745
0.0541365
0.0562961
0.0580551
0.0594885
0.0606542
0.0615984
0.0623586
0.0629664
0.0634481
0.0638259
0.0641185
0.0643418
0.0645088
0.0646301
0.0647138
0.064766
0.0647907
0.0134723
0.0301966
0.0383957
0.0439591
0.0481628
0.0514755
0.0541378
0.0562978
0.0580572
0.059491
0.0606571
0.0616017
0.0623625
0.0629707
0.0634529
0.0638311
0.0641243
0.064348
0.0645154
0.0646371
0.0647211
0.0647736
0.0647984
0.0134723
0.0301967
0.0383959
0.0439595
0.0481633
0.0514762
0.0541387
0.0562989
0.0580585
0.0594926
0.060659
0.0616039
0.062365
0.0629736
0.0634561
0.0638347
0.0641281
0.0643522
0.0645199
0.0646418
0.064726
0.0647786
0.0648036
0.0134724
0.0301968
0.038396
0.0439597
0.0481636
0.0514766
0.0541392
0.0562996
0.0580594
0.0594937
0.0606603
0.0616054
0.0623667
0.0629756
0.0634583
0.0638371
0.0641307
0.064355
0.0645229
0.0646449
0.0647293
0.0647821
0.064807
0.0134724
0.0301969
0.0383961
0.0439598
0.0481638
0.0514769
0.0541396
0.0563
0.05806
0.0594944
0.0606611
0.0616064
0.0623678
0.0629768
0.0634597
0.0638386
0.0641324
0.0643569
0.0645249
0.064647
0.0647315
0.0647843
0.0648093
0.0134724
0.0301969
0.0383961
0.0439599
0.0481639
0.0514771
0.0541398
0.0563003
0.0580603
0.0594948
0.0606617
0.061607
0.0623686
0.0629777
0.0634606
0.0638397
0.0641336
0.0643581
0.0645262
0.0646484
0.064733
0.0647858
0.0648109
0.0134724
0.0301969
0.0383962
0.04396
0.048164
0.0514772
0.05414
0.0563005
0.0580606
0.0594951
0.060662
0.0616074
0.062369
0.0629782
0.0634612
0.0638403
0.0641343
0.0643589
0.064527
0.0646493
0.0647339
0.0647868
0.0648119
0.0134724
0.0301969
0.0383962
0.04396
0.048164
0.0514772
0.05414
0.0563006
0.0580607
0.0594953
0.0606622
0.0616077
0.0623693
0.0629785
0.0634616
0.0638408
0.0641348
0.0643594
0.0645276
0.0646499
0.0647345
0.0647874
0.0648125
0.0134724
0.0301969
0.0383962
0.04396
0.0481641
0.0514773
0.0541401
0.0563007
0.0580608
0.0594954
0.0606624
0.0616078
0.0623695
0.0629788
0.0634618
0.063841
0.0641351
0.0643597
0.0645279
0.0646503
0.0647349
0.0647878
0.0648129
0.0134724
0.0301969
0.0383962
0.04396
0.0481641
0.0514773
0.0541401
0.0563007
0.0580609
0.0594955
0.0606625
0.0616079
0.0623696
0.0629789
0.063462
0.0638412
0.0641353
0.0643599
0.0645282
0.0646505
0.0647351
0.0647881
0.0648132
0.0134724
0.0301969
0.0383962
0.04396
0.0481641
0.0514773
0.0541402
0.0563008
0.0580609
0.0594955
0.0606625
0.061608
0.0623697
0.062979
0.0634621
0.0638413
0.0641354
0.0643601
0.0645283
0.0646507
0.0647353
0.0647882
0.0648133
0.0134724
0.0301969
0.0383962
0.04396
0.0481641
0.0514773
0.0541402
0.0563008
0.0580609
0.0594956
0.0606625
0.0616081
0.0623698
0.062979
0.0634622
0.0638414
0.0641355
0.0643601
0.0645284
0.0646507
0.0647354
0.0647883
0.0648134
0.0134724
0.0301969
0.0383962
0.04396
0.0481641
0.0514773
0.0541402
0.0563008
0.0580609
0.0594956
0.0606626
0.0616081
0.0623698
0.0629791
0.0634622
0.0638414
0.0641355
0.0643602
0.0645284
0.0646508
0.0647354
0.0647884
0.0648135
0.0134724
0.0301969
0.0383962
0.04396
0.0481641
0.0514773
0.0541402
0.0563008
0.0580609
0.0594956
0.0606626
0.0616081
0.0623698
0.0629791
0.0634622
0.0638415
0.0641355
0.0643602
0.0645285
0.0646508
0.0647355
0.0647884
0.0648135
0.0134724
0.0301969
0.0383962
0.04396
0.0481641
0.0514773
0.0541402
0.0563008
0.0580609
0.0594956
0.0606626
0.0616081
0.0623698
0.0629791
0.0634622
0.0638415
0.0641356
0.0643602
0.0645285
0.0646508
0.0647355
0.0647884
0.0648135
0.0134724
0.0301969
0.0383962
0.04396
0.0481641
0.0514773
0.0541402
0.0563008
0.0580609
0.0594956
0.0606626
0.0616081
0.0623698
0.0629791
0.0634622
0.0638415
0.0641356
0.0643602
0.0645285
0.0646508
0.0647355
0.0647884
0.0648135
0.0134724
0.0301969
0.0383962
0.04396
0.0481641
0.0514773
0.0541402
0.0563008
0.0580609
0.0594956
0.0606626
0.0616081
0.0623698
0.0629791
0.0634622
0.0638415
0.0641356
0.0643602
0.0645285
0.0646508
0.0647355
0.0647884
0.0648135
0.0134724
0.0301969
0.0383962
0.04396
0.0481641
0.0514773
0.0541402
0.0563008
0.0580609
0.0594956
0.0606626
0.0616081
0.0623698
0.0629791
0.0634623
0.0638415
0.0641356
0.0643602
0.0645285
0.0646508
0.0647355
0.0647884
0.0648135
0.0219649
0.0185641
0.0185362
0.0218198
0.0392637
0.0385185
0.0385061
0.039227
0.0462917
0.04607
0.0460618
0.0462676
0.0506498
0.0505528
0.0505449
0.0506259
0.053779
0.0537236
0.0537154
0.053754
0.0561603
0.0561238
0.056115
0.0561341
0.0580218
0.0579955
0.0579863
0.0579943
0.0594954
0.0594753
0.0594658
0.0594666
0.0606679
0.0606518
0.0606419
0.0606379
0.0616011
0.0615879
0.0615776
0.0615701
0.062342
0.0623307
0.0623201
0.06231
0.0629272
0.0629173
0.0629064
0.0628943
0.0633864
0.0633775
0.0633664
0.0633528
0.0637438
0.0637356
0.0637243
0.0637095
0.0640194
0.0640118
0.0640003
0.0639846
0.0642298
0.0642226
0.064211
0.0641946
0.0643889
0.0643819
0.0643701
0.0643532
0.0645077
0.064501
0.0644891
0.0644718
0.0645955
0.0645889
0.0645769
0.0645593
0.0646596
0.0646531
0.0646411
0.0646233
0.0647059
0.0646995
0.0646875
0.0646695
0.064739
0.0647327
0.0647206
0.0647025
0.0647624
0.0647561
0.0647439
0.0647257
0.0647787
0.0647724
0.0647602
0.064742
0.06479
0.0647837
0.0647715
0.0647532
0.0647977
0.0647914
0.0647792
0.0647609
0.0648029
0.0647967
0.0647845
0.0647661
0.0648064
0.0648002
0.064788
0.0647696
0.0648087
0.0648025
0.0647903
0.0647719
0.0648102
0.064804
0.0647918
0.0647735
0.0648112
0.064805
0.0647928
0.0647744
0.0648119
0.0648057
0.0647935
0.0647751
0.0648123
0.0648061
0.0647939
0.0647755
0.0648126
0.0648063
0.0647941
0.0647758
0.0648127
0.0648065
0.0647943
0.0647759
0.0648128
0.0648066
0.0647944
0.064776
0.0648129
0.0648066
0.0647944
0.064776
0.0648129
0.0648066
0.0647944
0.0647761
0.0648129
0.0648066
0.0647944
0.0647761
0.0648129
0.0648066
0.0647944
0.064776
0.0648128
0.0648066
0.0647944
0.064776
0.0648128
0.0648066
0.0647944
0.064776
0.0326335
0.0378335
0.0409373
0.0430143
0.0444405
0.0453909
0.0459641
0.046218
0.046183
0.0458665
0.0452553
0.0443151
0.0429884
0.0411878
0.0387824
0.0355639
0.0311469
0.0245326
0.0108882
0.0411905
0.0435722
0.0454657
0.0469215
0.0479951
0.0487323
0.0491679
0.0493247
0.0492117
0.0488237
0.0481391
0.0471183
0.0456993
0.0437907
0.0412553
0.0378727
0.0332273
0.0262285
0.0116745
0.0468738
0.0480485
0.0492004
0.0501888
0.0509599
0.0514957
0.0517921
0.0518464
0.0516513
0.05119
0.0504336
0.0493372
0.0478347
0.0458306
0.043182
0.0396583
0.0348207
0.0275118
0.0122651
0.0508902
0.0515292
0.0522413
0.0528994
0.0534295
0.0537903
0.0539573
0.053912
0.0536353
0.0531018
0.0522762
0.0511087
0.0495296
0.0474394
0.0446906
0.0410443
0.0360446
0.0284856
0.0127095
0.053891
0.0542624
0.0547073
0.0551351
0.0554794
0.0556943
0.0557467
0.0556093
0.0552552
0.0546526
0.0537612
0.0525273
0.0508777
0.0487099
0.0458721
0.0421193
0.0369832
0.0292231
0.0130428
0.0562095
0.0564308
0.0567057
0.0569714
0.0571739
0.0572697
0.0572234
0.0570034
0.0565779
0.0559109
0.0549582
0.0536629
0.051949
0.0497113
0.0467948
0.04295
0.0376998
0.0297785
0.0132909
0.0580345
0.0581631
0.0583246
0.058474
0.0585679
0.0585675
0.0584377
0.0581452
0.0576555
0.0569296
0.0559207
0.0545693
0.0527974
0.0504973
0.047512
0.0435884
0.0382433
0.0301937
0.0134736
0.0594843
0.0595517
0.0596343
0.0596984
0.0597088
0.0596309
0.0594312
0.059076
0.0585294
0.0577508
0.0566912
0.0552895
0.0534657
0.0511108
0.0480657
0.0440752
0.0386521
0.030501
0.0136068
0.0606402
0.060665
0.0606909
0.0606913
0.0606368
0.0604965
0.0602388
0.0598301
0.0592341
0.0584088
0.0573043
0.055858
0.0539887
0.051586
0.0484898
0.0444434
0.0389566
0.030726
0.0137025
0.0615614
0.0615555
0.0615395
0.0614917
0.0613866
0.0611962
0.0608905
0.0604367
0.0597981
0.0589325
0.0577887
0.0563035
0.0543947
0.0519512
0.0488119
0.0447191
0.0391811
0.0308889
0.0137705
0.0622932
0.0622646
0.0622173
0.0621324
0.0619876
0.061757
0.061412
0.0609205
0.0602459
0.0593456
0.0581682
0.0566496
0.0547072
0.0522292
0.049054
0.0449235
0.0393449
0.0310055
0.0138182
0.0628714
0.0628258
0.0627547
0.0626413
0.0624653
0.0622025
0.0618255
0.0613028
0.0605981
0.0596687
0.0584627
0.056916
0.0549454
0.0524387
0.0492343
0.0450735
0.0394629
0.0310879
0.0138512
0.0633253
0.0632667
0.0631774
0.063042
0.0628414
0.062553
0.0621502
0.061602
0.0608724
0.0599187
0.0586891
0.057119
0.0551251
0.0525951
0.049367
0.0451822
0.0395471
0.0311454
0.0138737
0.0636785
0.0636101
0.0635068
0.0633543
0.0631347
0.062826
0.0624024
0.0618336
0.0610838
0.0601103
0.0588613
0.057272
0.0552593
0.0527105
0.0494637
0.0452603
0.0396065
0.0311852
0.0138889
0.0639509
0.063875
0.063761
0.0635954
0.0633608
0.0630362
0.0625963
0.062011
0.0612449
0.0602555
0.0589908
0.0573862
0.0553583
0.0527947
0.0495334
0.0453157
0.0396479
0.0312124
0.0138991
0.0641588
0.0640773
0.0639551
0.0637794
0.0635334
0.0631964
0.0627436
0.0621454
0.0613664
0.0603642
0.0590871
0.0574704
0.0554307
0.0528556
0.049583
0.0453546
0.0396765
0.0312308
0.0139058
0.0643159
0.0642301
0.0641017
0.0639183
0.0636635
0.063317
0.0628542
0.0622459
0.0614569
0.0604448
0.059158
0.0575319
0.055483
0.0528991
0.0496181
0.0453816
0.039696
0.0312431
0.0139102
0.0644333
0.0643442
0.0642112
0.064022
0.0637605
0.0634067
0.0629364
0.0623203
0.0615235
0.0605038
0.0592096
0.0575762
0.0555204
0.0529298
0.0496425
0.0454002
0.0397092
0.0312512
0.0139131
0.06452
0.0644285
0.0642921
0.0640985
0.063832
0.0634728
0.0629967
0.0623747
0.0615721
0.0605466
0.0592467
0.0576079
0.0555469
0.0529513
0.0496594
0.0454129
0.039718
0.0312566
0.0139149
0.0645833
0.06449
0.064351
0.0641543
0.0638841
0.0635208
0.0630404
0.0624141
0.061607
0.0605772
0.0592731
0.0576302
0.0555654
0.0529662
0.049671
0.0454214
0.0397239
0.0312601
0.0139161
0.064629
0.0645344
0.0643936
0.0641945
0.0639216
0.0635553
0.0630717
0.0624422
0.0616319
0.0605988
0.0592916
0.0576458
0.0555782
0.0529764
0.0496788
0.0454271
0.0397278
0.0312623
0.0139168
0.0646616
0.0645661
0.064424
0.0642232
0.0639483
0.0635798
0.063094
0.062462
0.0616494
0.060614
0.0593046
0.0576566
0.055587
0.0529833
0.0496841
0.0454309
0.0397303
0.0312638
0.0139173
0.0646847
0.0645885
0.0644454
0.0642434
0.0639671
0.063597
0.0631096
0.0624759
0.0616616
0.0606246
0.0593135
0.057664
0.0555929
0.052988
0.0496876
0.0454334
0.0397319
0.0312647
0.0139176
0.0647008
0.0646041
0.0644603
0.0642575
0.0639802
0.063609
0.0631204
0.0624856
0.06167
0.0606318
0.0593196
0.057669
0.0555969
0.0529911
0.0496899
0.0454351
0.039733
0.0312653
0.0139178
0.0647119
0.0646149
0.0644706
0.0642672
0.0639892
0.0636173
0.0631278
0.0624921
0.0616757
0.0606367
0.0593237
0.0576724
0.0555996
0.0529932
0.0496914
0.0454361
0.0397336
0.0312656
0.0139179
0.0647195
0.0646223
0.0644777
0.0642738
0.0639953
0.0636229
0.0631329
0.0624966
0.0616796
0.06064
0.0593264
0.0576746
0.0556014
0.0529945
0.0496924
0.0454368
0.0397341
0.0312659
0.0139179
0.0647246
0.0646273
0.0644824
0.0642783
0.0639995
0.0636267
0.0631362
0.0624996
0.0616822
0.0606422
0.0593283
0.0576761
0.0556025
0.0529954
0.049693
0.0454372
0.0397343
0.031266
0.013918
0.0647281
0.0646306
0.0644856
0.0642813
0.0640022
0.0636292
0.0631385
0.0625016
0.0616839
0.0606436
0.0593295
0.0576771
0.0556033
0.052996
0.0496934
0.0454375
0.0397345
0.0312661
0.013918
0.0647304
0.0646328
0.0644877
0.0642833
0.0640041
0.0636309
0.06314
0.0625029
0.061685
0.0606446
0.0593303
0.0576777
0.0556038
0.0529963
0.0496937
0.0454376
0.0397346
0.0312661
0.013918
0.0647319
0.0646343
0.0644891
0.0642846
0.0640053
0.063632
0.063141
0.0625037
0.0616858
0.0606452
0.0593308
0.0576781
0.0556041
0.0529965
0.0496939
0.0454378
0.0397347
0.0312662
0.013918
0.0647328
0.0646352
0.06449
0.0642854
0.0640061
0.0636327
0.0631416
0.0625043
0.0616862
0.0606456
0.0593311
0.0576783
0.0556043
0.0529967
0.049694
0.0454378
0.0397347
0.0312662
0.013918
0.0647335
0.0646359
0.0644906
0.064286
0.0640066
0.0636331
0.063142
0.0625047
0.0616865
0.0606459
0.0593313
0.0576785
0.0556044
0.0529968
0.049694
0.0454379
0.0397347
0.0312662
0.013918
0.0647339
0.0646362
0.064491
0.0642863
0.0640069
0.0636334
0.0631423
0.0625049
0.0616867
0.060646
0.0593314
0.0576786
0.0556045
0.0529968
0.0496941
0.0454379
0.0397347
0.0312662
0.013918
0.0647341
0.0646365
0.0644912
0.0642866
0.0640071
0.0636336
0.0631424
0.062505
0.0616868
0.0606461
0.0593315
0.0576787
0.0556045
0.0529969
0.0496941
0.0454379
0.0397348
0.0312662
0.013918
0.0647343
0.0646366
0.0644914
0.0642867
0.0640072
0.0636337
0.0631426
0.0625051
0.0616869
0.0606462
0.0593315
0.0576787
0.0556046
0.0529969
0.0496941
0.0454379
0.0397348
0.0312662
0.013918
0.0647344
0.0646367
0.0644915
0.0642868
0.0640073
0.0636338
0.0631426
0.0625052
0.061687
0.0606462
0.0593316
0.0576787
0.0556046
0.0529969
0.0496941
0.0454379
0.0397348
0.0312662
0.013918
0.0647344
0.0646368
0.0644915
0.0642868
0.0640074
0.0636338
0.0631427
0.0625052
0.061687
0.0606462
0.0593316
0.0576788
0.0556046
0.0529969
0.0496941
0.0454379
0.0397348
0.0312662
0.0139181
0.0647344
0.0646368
0.0644915
0.0642868
0.0640074
0.0636339
0.0631427
0.0625052
0.061687
0.0606463
0.0593316
0.0576788
0.0556046
0.0529969
0.0496941
0.0454379
0.0397348
0.0312662
0.0139181
0.0647344
0.0646368
0.0644915
0.0642869
0.0640074
0.0636339
0.0631427
0.0625052
0.061687
0.0606463
0.0593316
0.0576788
0.0556046
0.0529969
0.0496941
0.0454379
0.0397348
0.0312662
0.0139181
0.0647344
0.0646368
0.0644915
0.0642869
0.0640074
0.0636339
0.0631427
0.0625052
0.061687
0.0606463
0.0593316
0.0576788
0.0556046
0.0529969
0.0496941
0.0454379
0.0397348
0.0312662
0.0139181
0.0647344
0.0646368
0.0644915
0.0642869
0.0640074
0.0636339
0.0631427
0.0625052
0.061687
0.0606463
0.0593316
0.0576788
0.0556046
0.0529969
0.0496941
0.0454379
0.0397348
0.0312662
0.0139181
0.0647344
0.0646368
0.0644915
0.0642869
0.0640074
0.0636339
0.0631427
0.0625052
0.061687
0.0606463
0.0593316
0.0576788
0.0556046
0.0529969
0.0496941
0.0454379
0.0397348
0.0312662
0.0139181
)
;

boundaryField
{
    leftWall
    {
        type            kqRWallFunction;
        value           nonuniform List<scalar> 
50
(
0.00219429
0.00419446
0.00564658
0.00680209
0.00773834
0.00851583
0.0091736
0.00973731
0.0105003
0.0112706
0.0118499
0.0122863
0.0126139
0.0128578
0.0130376
0.0131685
0.0132626
0.0133293
0.013376
0.0134081
0.01343
0.0134447
0.0134545
0.0134609
0.0134651
0.0134678
0.0134695
0.0134706
0.0134713
0.0134717
0.013472
0.0134721
0.0134722
0.0134723
0.0134723
0.0134724
0.0134724
0.0134724
0.0134724
0.0134724
0.0134724
0.0134724
0.0134724
0.0134724
0.0134724
0.0134724
0.0134724
0.0134724
0.0134724
0.0134724
)
;
    }
    rightWall
    {
        type            kqRWallFunction;
        value           nonuniform List<scalar> 
50
(
0.00239005
0.00447504
0.00594013
0.00711329
0.00806738
0.00886099
0.00953284
0.0101088
0.0108882
0.0116745
0.0122651
0.0127095
0.0130428
0.0132909
0.0134736
0.0136068
0.0137025
0.0137705
0.0138182
0.0138512
0.0138737
0.0138889
0.0138991
0.0139058
0.0139102
0.0139131
0.0139149
0.0139161
0.0139168
0.0139173
0.0139176
0.0139178
0.0139179
0.0139179
0.013918
0.013918
0.013918
0.013918
0.013918
0.013918
0.013918
0.013918
0.013918
0.013918
0.0139181
0.0139181
0.0139181
0.0139181
0.0139181
0.0139181
)
;
    }
    lowerWall
    {
        type            kqRWallFunction;
        value           nonuniform List<scalar> 
62
(
0.00219429
0.00446549
0.00615153
0.00732527
0.00818854
0.00883876
0.00933236
0.00970601
0.00998522
0.0101883
0.0103284
0.0104141
0.01045
0.0104364
0.0103685
0.0102349
0.0100154
0.00967529
0.00915665
0.00836093
0.0071191
0.00513289
0.00178934
0.00178934
0.00455803
0.00642389
0.00801639
0.00950849
0.0111561
0.0136338
0.0193024
0.0219649
0.0185641
0.0185362
0.0218198
0.00190263
0.00482196
0.00672133
0.0083536
0.00989946
0.0116415
0.0142953
0.0200996
0.00190263
0.00543762
0.0074539
0.00865838
0.00939275
0.00984249
0.0101091
0.0102478
0.0102879
0.0102425
0.0101136
0.00989438
0.00956941
0.00911377
0.00848925
0.00763566
0.00644861
0.00471306
0.00239005
)
;
    }
    atmosphere
    {
        type            inletOutlet;
        inletValue      uniform 0.1;
        value           nonuniform List<scalar> 
46
(
0.0134724
0.0301969
0.0383962
0.04396
0.0481641
0.0514773
0.0541402
0.0563008
0.0580609
0.0594956
0.0606626
0.0616081
0.0623698
0.0629791
0.0634623
0.0638415
0.0641356
0.0643602
0.0645285
0.0646508
0.0647355
0.0647884
0.0648135
0.0648128
0.0648066
0.0647944
0.064776
0.0647344
0.0646368
0.0644915
0.0642869
0.0640074
0.0636339
0.0631427
0.0625052
0.061687
0.0606463
0.0593316
0.0576788
0.0556046
0.0529969
0.0496941
0.0454379
0.0397348
0.0312662
0.0139181
)
;
    }
    defaultFaces
    {
        type            empty;
    }
}


// ************************************************************************* //
