/*--------------------------------*- C++ -*----------------------------------*\
| =========                 |                                                 |
| \\      /  F ield         | OpenFOAM: The Open Source CFD Toolbox           |
|  \\    /   O peration     | Version:  2406                                  |
|   \\  /    A nd           | Website:  www.openfoam.com                      |
|    \\/     M anipulation  |                                                 |
\*---------------------------------------------------------------------------*/
FoamFile
{
    version     2.0;
    format      ascii;
    arch        "LSB;label=32;scalar=64";
    class       volScalarField;
    location    "0.55";
    object      nut;
}
// * * * * * * * * * * * * * * * * * * * * * * * * * * * * * * * * * * * * * //

dimensions      [0 2 -1 0 0 0 0];

internalField   nonuniform List<scalar> 
2268
(
3.92823e-05
4.19551e-05
4.9437e-05
5.41143e-05
5.73701e-05
5.9751e-05
6.1533e-05
6.28769e-05
6.38849e-05
6.46252e-05
6.51439e-05
6.54705e-05
6.56205e-05
6.55956e-05
6.53815e-05
6.49428e-05
6.42125e-05
6.30711e-05
6.13044e-05
5.85125e-05
5.38996e-05
4.56208e-05
2.64801e-05
8.52421e-05
0.000321533
0.000425794
0.000489117
0.000533024
0.000565303
0.000589679
0.000608252
0.000622335
0.000632793
0.00064021
0.000644965
0.000647261
0.000647128
0.000644394
0.000638614
0.00062892
0.000613712
0.000590013
0.000552051
0.000487878
0.000368633
9.00478e-05
9.94326e-05
0.000534873
0.000768188
0.000914966
0.00101853
0.0010957
0.00115467
0.00120008
0.00123483
0.00126084
0.00127945
0.00129151
0.00129748
0.00129743
0.00129096
0.001277
0.00125345
0.00121638
0.00115841
0.00106536
0.000908997
0.000629258
0.000107564
0.000109512
0.000683093
0.00103341
0.00126221
0.00142657
0.00155048
0.001646
0.00172009
0.00177714
0.00182009
0.001851
0.00187117
0.00188136
0.00188166
0.00187142
0.0018489
0.00181066
0.0017503
0.00165581
0.00150441
0.00125277
0.000819531
0.000120662
0.000117098
0.000793533
0.00124515
0.00154994
0.00177256
0.00194213
0.00207387
0.00217666
0.00225622
0.00231642
0.00235996
0.00238862
0.00240338
0.00240438
0.00239073
0.00236005
0.00230766
0.0022248
0.00209516
0.00188805
0.00154647
0.000973115
0.000131835
0.000123088
0.000880286
0.00141924
0.00179319
0.00207046
0.00228371
0.00245053
0.00258142
0.00268321
0.0027606
0.00281686
0.0028542
0.00287385
0.002876
0.00285954
0.00282158
0.00275634
0.00265308
0.0024919
0.0022354
0.00181374
0.00111169
0.000143217
0.000127975
0.000950977
0.00156564
0.00200214
0.00233019
0.00258477
0.00278521
0.00294331
0.00306683
0.00316117
0.00323014
0.00327632
0.00330119
0.00330499
0.00328652
0.00324244
0.00316619
0.0030456
0.00285827
0.00256207
0.00207583
0.00125609
0.000158806
0.000132056
0.00101006
0.00169086
0.00218386
0.00255886
0.00285228
0.00308473
0.00326901
0.00341364
0.00352461
0.00360621
0.00366136
0.00369178
0.00369782
0.00367823
0.00362945
0.00354443
0.00341026
0.0032035
0.00288062
0.00235574
0.00144693
0.000189557
2.72857e-05
4.69756e-05
5.5166e-05
5.95468e-05
6.2079e-05
6.35861e-05
6.44613e-05
6.4902e-05
6.50062e-05
6.48156e-05
6.4335e-05
6.35391e-05
6.23714e-05
6.07354e-05
5.84707e-05
5.5296e-05
5.06512e-05
4.31223e-05
4.23284e-05
0.000102739
0.000388225
0.000505411
0.000565948
0.000600139
0.000620195
0.000631708
0.000637369
0.000638465
0.000635529
0.000628612
0.000617388
0.000601142
0.000578642
0.000547816
0.000504924
0.000442132
0.000337845
9.76861e-05
0.000122073
0.000673131
0.000951105
0.00109913
0.00118289
0.0012318
0.00125967
0.00127318
0.00127547
0.00126783
0.00125042
0.00122252
0.00118254
0.00112777
0.00105363
0.000951895
0.000805522
0.000569965
0.000113165
0.000136709
0.000884822
0.00131962
0.00155891
0.00169533
0.00177492
0.00182009
0.00184171
0.00184494
0.00183191
0.0018029
0.00175684
0.00169132
0.0016022
0.00148262
0.0013204
0.00109092
0.000734085
0.000124302
0.000149345
0.00105687
0.00163621
0.00196197
0.00214874
0.0022578
0.00231949
0.00234864
0.00235231
0.00233342
0.0022924
0.00222784
0.00213655
0.0020132
0.00184892
0.00162827
0.00132098
0.000857564
0.000132738
0.000162463
0.00121193
0.0019236
0.00232611
0.0025575
0.0026929
0.00276934
0.00280492
0.00280831
0.00278312
0.00272987
0.00264683
0.00253015
0.00237341
0.00216611
0.00189023
0.00151144
0.000955082
0.000139416
0.00018061
0.00137172
0.0022018
0.00266566
0.002933
0.00309018
0.00317883
0.00321936
0.0032216
0.00318963
0.00312399
0.00302266
0.0028812
0.00269224
0.00244398
0.00211641
0.00167243
0.00103479
0.000144873
0.00021485
0.00157621
0.00249108
0.00299189
0.0032838
0.00345712
0.00355493
0.00359866
0.00359873
0.00355946
0.00348133
0.00336198
0.00319645
0.00297661
0.00268959
0.00231392
0.00181064
0.00110152
0.000149431
0.000137434
0.00108861
0.00186096
0.00243479
0.00287869
0.00323022
0.00351127
0.00373577
0.00391318
0.00405026
0.00415195
0.00422169
0.00426154
0.00427213
0.00425224
0.00419825
0.00410292
0.00395328
0.00372689
0.00338543
0.00286648
0.0020907
0.00107542
0.000142771
0.00116758
0.00203601
0.00269755
0.00321838
0.00363642
0.00397435
0.00424689
0.00446425
0.00463391
0.00476144
0.00485087
0.00490484
0.00492447
0.00490913
0.00485597
0.00475907
0.00460827
0.00438751
0.00407327
0.00363613
0.00305433
0.00235534
0.000146747
0.00122768
0.00217193
0.00290468
0.00348964
0.00396449
0.00435209
0.00466746
0.00492123
0.0051213
0.00527372
0.00538304
0.0054525
0.00548391
0.00547758
0.00543198
0.00534346
0.00520584
0.0050104
0.00474696
0.00440846
0.00400277
0.00357702
0.000149746
0.00127406
0.00227851
0.00306909
0.00370724
0.00423021
0.00466074
0.00501389
0.00530044
0.00552856
0.00570464
0.00583372
0.00591961
0.00596495
0.00597111
0.00593816
0.00586487
0.00574888
0.00558744
0.00537932
0.0051289
0.00485376
0.00459575
0.000152017
0.00131
0.00236222
0.00319958
0.00388159
0.00444498
0.00491224
0.00529836
0.0056141
0.00586777
0.00606603
0.00621434
0.00631709
0.00637769
0.00639863
0.00638148
0.00632715
0.0062363
0.0061102
0.00595248
0.00577186
0.00558594
0.0054248
0.000153735
0.00133779
0.00242773
0.00330266
0.00402054
0.00461757
0.00511598
0.00553053
0.00587195
0.0061486
0.00636735
0.00653398
0.00665343
0.00672982
0.00676662
0.00676668
0.00673258
0.00666703
0.00657368
0.00645827
0.0063302
0.00620405
0.00609994
0.000155025
0.00135915
0.0024786
0.00338345
0.00413038
0.00475514
0.00527965
0.00571846
0.0060822
0.00637924
0.00661658
0.0068003
0.00693577
0.00702775
0.00708046
0.00709779
0.00708347
0.00704151
0.00697671
0.00689542
0.00680625
0.00672047
0.00665144
0.000155987
0.0013754
0.00251771
0.00344612
0.00421633
0.00486369
0.00540982
0.00586909
0.00625198
0.00656684
0.00682077
0.00702008
0.00717049
0.00727723
0.00734516
0.00737887
0.00738286
0.00736186
0.00732111
0.00726682
0.00720643
0.0071485
0.00710209
0.000156695
0.00138763
0.00254741
0.00349416
0.00428279
0.00494835
0.0055122
0.00598849
0.00638758
0.00671779
0.00698627
0.0071995
0.00736345
0.00748375
0.00756567
0.0076143
0.0076346
0.00763163
0.00761072
0.00757763
0.00753866
0.00750042
0.00746922
0.000157211
0.0013967
0.00256967
0.0035305
0.00433356
0.00501359
0.00559175
0.00608202
0.00649463
0.00683784
0.00711885
0.00734424
0.00752019
0.00765257
0.00774696
0.00780876
0.00784318
0.00785539
0.0078506
0.00783409
0.00781122
0.00778718
0.00776657
0.000157581
0.00140335
0.00258613
0.00355763
0.00437181
0.00506321
0.00565279
0.00615438
0.0065781
0.00693216
0.00722377
0.00745958
0.0076459
0.00778878
0.00789399
0.00796711
0.00801347
0.00803823
0.00804641
0.00804284
0.00803214
0.00801852
0.00800549
0.000157844
0.00140814
0.00259812
0.00357761
0.00440026
0.00510046
0.00569903
0.00620965
0.00664237
0.00700534
0.00730575
0.00755032
0.00774542
0.0078972
0.00801159
0.00809422
0.00815049
0.00818547
0.00820398
0.00821047
0.00820902
0.00820314
0.00819562
0.000158028
0.00141155
0.00260674
0.00359212
0.00442114
0.00512806
0.0057336
0.00625133
0.00669123
0.00706138
0.00736899
0.00762077
0.00782315
0.00798235
0.00810434
0.00819482
0.00825915
0.00830234
0.008329
0.00834329
0.00834886
0.00834876
0.0083453
0.000158154
0.00141394
0.00261285
0.00360252
0.00443626
0.00514825
0.00575911
0.00628236
0.00672789
0.00710376
0.00741714
0.00767475
0.00788306
0.0080483
0.00817649
0.00827331
0.00834411
0.0083938
0.00842683
0.00844711
0.00845802
0.00846225
0.00846179
0.000158241
0.00141559
0.00261713
0.00360987
0.00444707
0.00516282
0.00577771
0.00630517
0.00675506
0.0071354
0.00745334
0.00771559
0.00792862
0.0080987
0.00823183
0.0083337
0.0084096
0.00846437
0.00850232
0.00852719
0.00854213
0.00854959
0.00855135
0.000158299
0.00141672
0.00262008
0.00361501
0.0044547
0.00517322
0.00579109
0.00632174
0.00677495
0.00715873
0.0074802
0.00774608
0.00796283
0.0081367
0.00827372
0.00837953
0.0084594
0.00851808
0.00855979
0.00858813
0.00860609
0.00861596
0.00861936
0.000158338
0.00141748
0.00262209
0.00361856
0.00446002
0.00518055
0.00580062
0.00633362
0.00678933
0.00717571
0.00749989
0.00776855
0.00798817
0.00816498
0.00830499
0.00841384
0.00849674
0.0085584
0.00860295
0.0086339
0.00865411
0.00866576
0.00867037
0.000158363
0.00141799
0.00262345
0.00362098
0.0044637
0.00518565
0.00580731
0.00634204
0.0067996
0.00718793
0.00751415
0.00778492
0.00800671
0.00818576
0.00832804
0.00843919
0.00852439
0.00858828
0.00863495
0.00866783
0.0086897
0.00870266
0.00870814
0.00015838
0.00141833
0.00262436
0.00362261
0.0044662
0.00518917
0.00581197
0.00634795
0.00680686
0.00719663
0.00752435
0.0077967
0.00802011
0.00820083
0.00834482
0.00845769
0.00854459
0.00861014
0.00865837
0.00869267
0.00871574
0.00872965
0.00873576
0.000158391
0.00141855
0.00262496
0.00362371
0.0044679
0.00519157
0.00581517
0.00635205
0.00681193
0.00720274
0.00753157
0.00780507
0.00802968
0.00821164
0.00835688
0.00847101
0.00855916
0.00862593
0.0086753
0.00871062
0.00873457
0.00874916
0.00875573
0.000158398
0.00141869
0.00262536
0.00362443
0.00446903
0.00519319
0.00581735
0.00635486
0.00681544
0.007207
0.00753662
0.00781095
0.00803644
0.00821929
0.00836545
0.0084805
0.00856956
0.0086372
0.00868739
0.00872344
0.00874802
0.00876309
0.00876998
0.000158402
0.00141878
0.00262561
0.0036249
0.00446978
0.00519427
0.00581883
0.00635678
0.00681783
0.00720993
0.00754011
0.00781505
0.00804116
0.00822465
0.00837147
0.00848718
0.00857688
0.00864515
0.00869592
0.0087325
0.00875751
0.00877293
0.00878004
0.000158405
0.00141884
0.00262578
0.00362521
0.00447027
0.00519499
0.00581981
0.00635806
0.00681946
0.00721192
0.00754251
0.00781787
0.00804442
0.00822837
0.00837565
0.00849182
0.00858199
0.00865069
0.00870187
0.00873881
0.00876414
0.00877979
0.00878706
0.000158406
0.00141888
0.00262588
0.00362541
0.00447059
0.00519546
0.00582046
0.00635892
0.00682055
0.00721327
0.00754413
0.00781979
0.00804665
0.00823092
0.00837852
0.00849502
0.00858551
0.00865452
0.00870598
0.00874318
0.00876871
0.00878453
0.00879191
0.000158407
0.0014189
0.00262595
0.00362554
0.0044708
0.00519577
0.00582089
0.00635949
0.00682128
0.00721417
0.00754522
0.00782108
0.00804816
0.00823265
0.00838048
0.0084972
0.00858791
0.00865713
0.00870879
0.00874616
0.00877184
0.00878777
0.00879522
0.000158408
0.00141892
0.00262599
0.00362562
0.00447093
0.00519597
0.00582117
0.00635986
0.00682176
0.00721477
0.00754595
0.00782195
0.00804917
0.00823381
0.0083818
0.00849867
0.00858953
0.00865889
0.00871069
0.00874817
0.00877395
0.00878996
0.00879746
0.000158409
0.00141892
0.00262601
0.00362567
0.00447102
0.0051961
0.00582135
0.0063601
0.00682207
0.00721516
0.00754643
0.00782252
0.00804984
0.00823459
0.00838268
0.00849966
0.00859061
0.00866008
0.00871196
0.00874952
0.00877537
0.00879143
0.00879896
0.000158409
0.00141893
0.00262603
0.0036257
0.00447107
0.00519618
0.00582146
0.00636026
0.00682227
0.00721542
0.00754675
0.0078229
0.00805028
0.0082351
0.00838326
0.00850031
0.00859133
0.00866086
0.0087128
0.00875042
0.00877631
0.0087924
0.00879996
0.000158409
0.00141893
0.00262604
0.00362572
0.00447111
0.00519623
0.00582154
0.00636036
0.00682241
0.00721558
0.00754695
0.00782314
0.00805057
0.00823543
0.00838364
0.00850074
0.00859181
0.00866138
0.00871336
0.00875101
0.00877693
0.00879304
0.00880061
0.000158409
0.00141894
0.00262605
0.00362574
0.00447113
0.00519626
0.00582158
0.00636042
0.00682249
0.00721569
0.00754708
0.0078233
0.00805076
0.00823565
0.00838389
0.00850101
0.00859211
0.00866171
0.00871372
0.0087514
0.00877733
0.00879346
0.00880104
0.000158409
0.00141894
0.00262605
0.00362574
0.00447114
0.00519628
0.00582161
0.00636046
0.00682254
0.00721576
0.00754716
0.0078234
0.00805088
0.00823579
0.00838405
0.00850119
0.00859231
0.00866193
0.00871395
0.00875164
0.00877759
0.00879373
0.00880132
0.000158409
0.00141894
0.00262605
0.00362575
0.00447115
0.00519629
0.00582163
0.00636049
0.00682258
0.0072158
0.00754722
0.00782347
0.00805096
0.00823588
0.00838415
0.00850131
0.00859244
0.00866207
0.0087141
0.00875181
0.00877776
0.0087939
0.00880149
0.000158409
0.00141894
0.00262605
0.00362575
0.00447115
0.0051963
0.00582164
0.00636051
0.0068226
0.00721583
0.00754725
0.00782351
0.00805101
0.00823594
0.00838421
0.00850138
0.00859252
0.00866216
0.0087142
0.00875191
0.00877787
0.00879402
0.00880161
0.000158409
0.00141894
0.00262606
0.00362575
0.00447116
0.00519631
0.00582165
0.00636052
0.00682261
0.00721585
0.00754727
0.00782354
0.00805104
0.00823597
0.00838425
0.00850143
0.00859258
0.00866222
0.00871426
0.00875197
0.00877794
0.00879409
0.00880168
0.000158409
0.00141894
0.00262606
0.00362575
0.00447116
0.00519631
0.00582165
0.00636052
0.00682262
0.00721586
0.00754729
0.00782355
0.00805106
0.008236
0.00838428
0.00850146
0.00859261
0.00866225
0.0087143
0.00875201
0.00877798
0.00879413
0.00880173
0.000158409
0.00141894
0.00262606
0.00362575
0.00447116
0.00519631
0.00582166
0.00636052
0.00682262
0.00721586
0.00754729
0.00782356
0.00805107
0.00823601
0.0083843
0.00850148
0.00859263
0.00866228
0.00871433
0.00875204
0.00877801
0.00879416
0.00880176
0.000158409
0.00141894
0.00262606
0.00362575
0.00447116
0.00519631
0.00582166
0.00636053
0.00682263
0.00721587
0.0075473
0.00782357
0.00805108
0.00823602
0.00838431
0.00850149
0.00859264
0.00866229
0.00871434
0.00875206
0.00877803
0.00879418
0.00880178
0.000158409
0.00141894
0.00262606
0.00362575
0.00447116
0.00519631
0.00582166
0.00636053
0.00682263
0.00721587
0.0075473
0.00782357
0.00805108
0.00823602
0.00838431
0.0085015
0.00859265
0.0086623
0.00871435
0.00875207
0.00877804
0.00879419
0.00880179
0.000158409
0.00141894
0.00262606
0.00362575
0.00447116
0.00519631
0.00582166
0.00636053
0.00682263
0.00721587
0.00754731
0.00782357
0.00805109
0.00823603
0.00838432
0.0085015
0.00859266
0.00866231
0.00871436
0.00875208
0.00877805
0.0087942
0.0088018
0.000158409
0.00141894
0.00262606
0.00362576
0.00447116
0.00519631
0.00582166
0.00636053
0.00682263
0.00721587
0.00754731
0.00782358
0.00805109
0.00823603
0.00838432
0.00850151
0.00859266
0.00866231
0.00871436
0.00875208
0.00877805
0.0087942
0.0088018
0.000158409
0.00141894
0.00262606
0.00362576
0.00447116
0.00519631
0.00582166
0.00636053
0.00682263
0.00721587
0.00754731
0.00782358
0.00805109
0.00823603
0.00838432
0.00850151
0.00859266
0.00866231
0.00871437
0.00875208
0.00877806
0.00879421
0.0088018
0.000158409
0.00141894
0.00262606
0.00362576
0.00447116
0.00519631
0.00582166
0.00636053
0.00682263
0.00721587
0.00754731
0.00782358
0.00805109
0.00823603
0.00838432
0.00850151
0.00859266
0.00866231
0.00871437
0.00875208
0.00877806
0.00879421
0.0088018
0.000203964
0.000187702
0.000187556
0.000203275
0.00182515
0.00174055
0.00174023
0.00182358
0.00333849
0.00326663
0.00326573
0.00333563
0.00447345
0.00443214
0.00443077
0.00446927
0.00535452
0.00533021
0.00532847
0.00534922
0.0060561
0.00604059
0.00603855
0.00604991
0.00662246
0.00661181
0.00660952
0.00661553
0.00708215
0.0070744
0.00707189
0.00707457
0.00745513
0.0074492
0.0074465
0.00744696
0.00775644
0.00775172
0.00774883
0.00774773
0.00799811
0.00799422
0.00799118
0.00798893
0.00819021
0.00818689
0.00818371
0.00818061
0.00834132
0.0083384
0.00833511
0.00833137
0.00845885
0.00845622
0.00845282
0.0084486
0.00854917
0.00854675
0.00854327
0.00853868
0.00861774
0.00861546
0.00861192
0.00860704
0.00866914
0.00866697
0.00866337
0.00865829
0.0087072
0.0087051
0.00870147
0.00869623
0.00873504
0.00873299
0.00872932
0.00872397
0.00875515
0.00875314
0.00874944
0.00874401
0.00876951
0.00876752
0.00876381
0.00875831
0.00877964
0.00877767
0.00877394
0.0087684
0.00878671
0.00878475
0.00878102
0.00877545
0.00879159
0.00878964
0.0087859
0.00878031
0.00879492
0.00879298
0.00878923
0.00878362
0.00879718
0.00879523
0.00879149
0.00878587
0.00879869
0.00879675
0.008793
0.00878737
0.00879969
0.00879775
0.008794
0.00878837
0.00880035
0.00879841
0.00879466
0.00878903
0.00880078
0.00879884
0.00879509
0.00878945
0.00880106
0.00879912
0.00879537
0.00878973
0.00880124
0.0087993
0.00879554
0.00878991
0.00880135
0.00879941
0.00879566
0.00879002
0.00880143
0.00879949
0.00879573
0.0087901
0.00880147
0.00879953
0.00879578
0.00879014
0.0088015
0.00879956
0.00879581
0.00879017
0.00880152
0.00879958
0.00879583
0.00879019
0.00880154
0.0087996
0.00879584
0.0087902
0.00880154
0.0087996
0.00879585
0.00879021
0.00880155
0.00879961
0.00879585
0.00879022
0.00880155
0.00879961
0.00879585
0.00879022
0.00880155
0.00879961
0.00879585
0.00879022
0.0011277
0.00220663
0.00299777
0.00349917
0.00381008
0.00399973
0.00410712
0.00415307
0.00414801
0.00409619
0.00399782
0.00385006
0.00364718
0.00338008
0.00303463
0.00258782
0.00199905
0.00119039
0.00015544
0.00238863
0.00313822
0.00373974
0.00416898
0.00445791
0.00464189
0.00474602
0.00478549
0.00476825
0.00469723
0.00457168
0.00438794
0.00413943
0.00381615
0.00340299
0.00287593
0.00219361
0.00127984
0.0001614
0.00358904
0.00405274
0.00447838
0.00481481
0.00505773
0.0052177
0.00530616
0.00533123
0.00529714
0.0052047
0.00505185
0.00483394
0.00454369
0.00417047
0.0036987
0.00310403
0.00234513
0.00134798
0.000165837
0.00459587
0.00487785
0.00516827
0.00541762
0.00560739
0.00573399
0.00579889
0.00580395
0.00574958
0.00563426
0.00545442
0.00520445
0.00487637
0.00445918
0.00393709
0.00328577
0.00246425
0.00140063
0.000169182
0.00541854
0.00559207
0.00578649
0.00596363
0.00610249
0.00619304
0.00623065
0.00621256
0.00613598
0.00599722
0.00579126
0.00551155
0.00514957
0.00469401
0.00412906
0.00343057
0.00255806
0.00144147
0.000171713
0.00608983
0.00619775
0.00632558
0.00644605
0.00654024
0.00659608
0.00660577
0.00656354
0.00646422
0.00630234
0.00607166
0.0057648
0.00537275
0.00488405
0.00428291
0.00354544
0.00263167
0.00147311
0.000173626
0.00663865
0.00670527
0.0067867
0.00686367
0.00692039
0.00694488
0.00692798
0.00686222
0.00674079
0.00655691
0.00630335
0.00597208
0.00555371
0.00503666
0.00440526
0.00363589
0.00268903
0.00149746
0.000175064
0.00708723
0.00712664
0.00717519
0.00721894
0.007245
0.00724225
0.00720122
0.00711356
0.00697148
0.00676729
0.00649304
0.00614018
0.00569908
0.00515809
0.00450164
0.00370641
0.00273327
0.00151603
0.000176136
0.00745265
0.00747338
0.00749815
0.0075165
0.00751779
0.00749197
0.00742975
0.00732245
0.00716172
0.00693929
0.00664671
0.0062751
0.00581464
0.00525366
0.00457674
0.00376078
0.00276702
0.00153004
0.000176926
0.00774857
0.00775603
0.00776328
0.00776211
0.00774356
0.00769857
0.00761822
0.00749378
0.00731666
0.00707824
0.00676977
0.00638215
0.00590545
0.00532802
0.00463456
0.00380219
0.00279245
0.00154048
0.000177503
0.00798626
0.00798405
0.00797822
0.00796201
0.00792768
0.00786698
0.00777142
0.00763239
0.00744121
0.00718909
0.00686713
0.00646608
0.00597596
0.00538517
0.00467852
0.00383333
0.00281134
0.00154814
0.000177918
0.00817536
0.00816598
0.00815028
0.00812247
0.00807566
0.00800227
0.00789419
0.00774298
0.00754
0.0072764
0.00694318
0.00653105
0.00603003
0.00542855
0.00471153
0.00385644
0.0028252
0.0015537
0.000178213
0.00832418
0.00830944
0.00828627
0.00824951
0.00819292
0.00810939
0.00799116
0.00782999
0.0076173
0.00734425
0.00700183
0.00658073
0.00607097
0.00546106
0.004736
0.00387337
0.00283523
0.00155767
0.00017842
0.00843995
0.00842119
0.00839235
0.00834873
0.00828453
0.00819301
0.00806669
0.0078975
0.00767697
0.00739629
0.00704648
0.00661822
0.00610159
0.00548512
0.00475391
0.00388561
0.0028424
0.00156047
0.000178564
0.00852894
0.00850715
0.00847403
0.00842518
0.00835511
0.00825736
0.00812468
0.00794916
0.0077224
0.00743568
0.00708003
0.00664616
0.00612419
0.00550271
0.00476685
0.00389436
0.00284745
0.00156243
0.000178662
0.00859648
0.00857243
0.0085361
0.0084833
0.00840875
0.00830622
0.00816861
0.00798816
0.00775655
0.00746511
0.00710492
0.00666673
0.00614068
0.00551541
0.0047761
0.00390053
0.00285097
0.00156377
0.000178729
0.00864712
0.00862139
0.00858266
0.00852689
0.00844897
0.0083428
0.00820144
0.0080172
0.00778187
0.00748682
0.00712315
0.00668168
0.00615257
0.00552447
0.00478263
0.00390484
0.0028534
0.00156468
0.000178774
0.00868461
0.00865764
0.00861714
0.00855917
0.00847873
0.00836984
0.00822565
0.00803856
0.00780041
0.00750262
0.00713635
0.00669242
0.00616103
0.00553087
0.00478719
0.00390781
0.00285505
0.0015653
0.000178803
0.00871202
0.00868414
0.00864235
0.00858277
0.00850047
0.00838957
0.00824328
0.00805407
0.00781382
0.007514
0.00714579
0.00670005
0.00616699
0.00553533
0.00479033
0.00390984
0.00285616
0.00156571
0.000178823
0.00873181
0.00870329
0.00866056
0.0085998
0.00851616
0.00840379
0.00825596
0.00806519
0.0078234
0.00752209
0.00715247
0.00670541
0.00617115
0.00553841
0.00479248
0.00391121
0.00285691
0.00156598
0.000178836
0.00874595
0.00871695
0.00867355
0.00861195
0.00852734
0.00841391
0.00826497
0.00807307
0.00783016
0.00752778
0.00715714
0.00670913
0.00617401
0.00554052
0.00479394
0.00391213
0.0028574
0.00156615
0.000178844
0.00875591
0.00872659
0.00868271
0.00862052
0.00853522
0.00842103
0.00827129
0.00807859
0.00783488
0.00753173
0.00716037
0.00671169
0.00617597
0.00554194
0.00479492
0.00391274
0.00285772
0.00156627
0.000178849
0.00876287
0.00873331
0.0086891
0.00862649
0.0085407
0.00842598
0.00827569
0.00808241
0.00783815
0.00753445
0.00716258
0.00671343
0.00617729
0.0055429
0.00479557
0.00391314
0.00285793
0.00156634
0.000178853
0.00876767
0.00873795
0.00869351
0.00863061
0.00854448
0.00842939
0.00827871
0.00808504
0.00784038
0.00753631
0.00716407
0.00671461
0.00617817
0.00554353
0.00479599
0.0039134
0.00285807
0.00156639
0.000178855
0.00877095
0.00874112
0.00869652
0.00863342
0.00854706
0.00843171
0.00828076
0.00808682
0.00784189
0.00753755
0.00716508
0.00671539
0.00617876
0.00554395
0.00479627
0.00391357
0.00285816
0.00156642
0.000178856
0.00877316
0.00874326
0.00869855
0.00863532
0.0085488
0.00843328
0.00828214
0.00808801
0.0078429
0.00753839
0.00716575
0.00671591
0.00617915
0.00554423
0.00479645
0.00391368
0.00285821
0.00156644
0.000178857
0.00877465
0.00874469
0.00869991
0.00863659
0.00854996
0.00843433
0.00828307
0.00808881
0.00784357
0.00753894
0.00716619
0.00671625
0.0061794
0.0055444
0.00479657
0.00391375
0.00285825
0.00156645
0.000178857
0.00877563
0.00874564
0.00870082
0.00863743
0.00855073
0.00843502
0.00828368
0.00808933
0.00784401
0.0075393
0.00716648
0.00671647
0.00617956
0.00554452
0.00479664
0.00391379
0.00285827
0.00156646
0.000178858
0.00877628
0.00874627
0.00870141
0.00863798
0.00855124
0.00843547
0.00828408
0.00808968
0.0078443
0.00753954
0.00716667
0.00671661
0.00617967
0.00554459
0.00479669
0.00391382
0.00285828
0.00156646
0.000178858
0.0087767
0.00874667
0.0087018
0.00863834
0.00855157
0.00843577
0.00828434
0.0080899
0.00784449
0.00753969
0.00716679
0.00671671
0.00617973
0.00554464
0.00479672
0.00391384
0.00285829
0.00156646
0.000178858
0.00877698
0.00874694
0.00870205
0.00863858
0.00855178
0.00843596
0.0082845
0.00809004
0.00784461
0.00753979
0.00716686
0.00671676
0.00617978
0.00554466
0.00479674
0.00391385
0.0028583
0.00156646
0.000178858
0.00877715
0.00874711
0.00870221
0.00863873
0.00855192
0.00843608
0.00828461
0.00809014
0.00784468
0.00753985
0.00716691
0.0067168
0.0061798
0.00554468
0.00479675
0.00391385
0.0028583
0.00156647
0.000178858
0.00877727
0.00874722
0.00870231
0.00863882
0.00855201
0.00843616
0.00828468
0.00809019
0.00784473
0.00753989
0.00716694
0.00671682
0.00617982
0.00554469
0.00479676
0.00391386
0.0028583
0.00156647
0.000178858
0.00877734
0.00874729
0.00870238
0.00863888
0.00855206
0.00843621
0.00828472
0.00809023
0.00784476
0.00753992
0.00716696
0.00671684
0.00617983
0.0055447
0.00479676
0.00391386
0.0028583
0.00156647
0.000178858
0.00877738
0.00874733
0.00870242
0.00863892
0.0085521
0.00843624
0.00828475
0.00809025
0.00784478
0.00753993
0.00716697
0.00671685
0.00617984
0.0055447
0.00479676
0.00391386
0.0028583
0.00156647
0.000178858
0.00877741
0.00874736
0.00870245
0.00863895
0.00855212
0.00843626
0.00828477
0.00809027
0.0078448
0.00753994
0.00716698
0.00671685
0.00617984
0.00554471
0.00479677
0.00391386
0.0028583
0.00156647
0.000178858
0.00877743
0.00874738
0.00870246
0.00863896
0.00855214
0.00843628
0.00828478
0.00809028
0.0078448
0.00753995
0.00716699
0.00671686
0.00617984
0.00554471
0.00479677
0.00391386
0.0028583
0.00156647
0.000178858
0.00877744
0.00874739
0.00870247
0.00863897
0.00855215
0.00843628
0.00828479
0.00809028
0.00784481
0.00753995
0.00716699
0.00671686
0.00617984
0.00554471
0.00479677
0.00391386
0.0028583
0.00156647
0.000178858
0.00877745
0.0087474
0.00870248
0.00863898
0.00855215
0.00843629
0.00828479
0.00809029
0.00784481
0.00753995
0.00716699
0.00671686
0.00617985
0.00554471
0.00479677
0.00391386
0.0028583
0.00156647
0.000178858
0.00877746
0.0087474
0.00870249
0.00863898
0.00855216
0.00843629
0.00828479
0.00809029
0.00784481
0.00753996
0.00716699
0.00671686
0.00617985
0.00554471
0.00479677
0.00391386
0.0028583
0.00156647
0.000178858
0.00877746
0.0087474
0.00870249
0.00863899
0.00855216
0.00843629
0.00828479
0.00809029
0.00784481
0.00753996
0.00716699
0.00671686
0.00617985
0.00554471
0.00479677
0.00391386
0.0028583
0.00156647
0.000178858
0.00877746
0.0087474
0.00870249
0.00863899
0.00855216
0.0084363
0.0082848
0.00809029
0.00784481
0.00753996
0.00716699
0.00671686
0.00617985
0.00554471
0.00479677
0.00391386
0.0028583
0.00156647
0.000178858
)
;

boundaryField
{
    leftWall
    {
        type            nutkWallFunction;
        blending        stepwise;
        value           nonuniform List<scalar> 
50
(
0
3.64738e-06
5.98635e-06
7.60947e-06
8.8118e-06
9.74832e-06
1.05031e-05
1.11257e-05
1.19363e-05
1.27214e-05
1.32918e-05
1.37111e-05
1.40202e-05
1.42475e-05
1.44134e-05
1.45335e-05
1.46193e-05
1.46799e-05
1.47222e-05
1.47513e-05
1.47711e-05
1.47844e-05
1.47932e-05
1.4799e-05
1.48028e-05
1.48052e-05
1.48068e-05
1.48078e-05
1.48084e-05
1.48088e-05
1.4809e-05
1.48091e-05
1.48092e-05
1.48093e-05
1.48093e-05
1.48093e-05
1.48094e-05
1.48094e-05
1.48094e-05
1.48094e-05
1.48094e-05
1.48094e-05
1.48094e-05
1.48094e-05
1.48094e-05
1.48094e-05
1.48094e-05
1.48094e-05
1.48094e-05
1.48094e-05
)
;
    }
    rightWall
    {
        type            nutkWallFunction;
        blending        stepwise;
        value           nonuniform List<scalar> 
50
(
1.23501e-06
5.80332e-06
8.30142e-06
1.0056e-05
1.13641e-05
1.23863e-05
1.32114e-05
1.38927e-05
1.47804e-05
1.56399e-05
1.6264e-05
1.67225e-05
1.70603e-05
1.73086e-05
1.74898e-05
1.7621e-05
1.77149e-05
1.77813e-05
1.78277e-05
1.78598e-05
1.78817e-05
1.78965e-05
1.79064e-05
1.79129e-05
1.79172e-05
1.792e-05
1.79217e-05
1.79229e-05
1.79236e-05
1.7924e-05
1.79243e-05
1.79245e-05
1.79246e-05
1.79247e-05
1.79247e-05
1.79247e-05
1.79248e-05
1.79248e-05
1.79248e-05
1.79248e-05
1.79248e-05
1.79248e-05
1.79248e-05
1.79248e-05
1.79248e-05
1.79248e-05
1.79248e-05
1.79248e-05
1.79248e-05
1.79248e-05
)
;
    }
    lowerWall
    {
        type            nutkWallFunction;
        blending        stepwise;
        value           nonuniform List<scalar> 
62
(
0
0
0
0
0
0
0
0
0
0
0
0
0
0
0
0
0
0
0
0
0
0
0
0
4.27187e-06
7.09694e-06
9.15266e-06
1.08755e-05
1.26067e-05
1.49545e-05
1.95367e-05
2.15793e-05
1.91336e-05
1.91125e-05
2.14796e-05
0
6.43287e-06
9.48959e-06
1.17391e-05
1.36478e-05
1.56046e-05
1.82878e-05
2.33e-05
0
0
0
0
0
0
0
0
0
0
0
0
0
0
0
0
0
0
0
)
;
    }
    atmosphere
    {
        type            calculated;
        value           nonuniform List<scalar> 
46
(
0.000158409
0.00141894
0.00262606
0.00362576
0.00447116
0.00519631
0.00582166
0.00636053
0.00682263
0.00721587
0.00754731
0.00782358
0.00805109
0.00823603
0.00838432
0.00850151
0.00859266
0.00866231
0.00871437
0.00875208
0.00877806
0.00879421
0.0088018
0.00880155
0.00879961
0.00879585
0.00879022
0.00877746
0.0087474
0.00870249
0.00863899
0.00855216
0.0084363
0.0082848
0.00809029
0.00784481
0.00753996
0.00716699
0.00671686
0.00617985
0.00554471
0.00479677
0.00391386
0.0028583
0.00156647
0.000178858
)
;
    }
    defaultFaces
    {
        type            empty;
    }
}


// ************************************************************************* //
