/*--------------------------------*- C++ -*----------------------------------*\
| =========                 |                                                 |
| \\      /  F ield         | OpenFOAM: The Open Source CFD Toolbox           |
|  \\    /   O peration     | Version:  2406                                  |
|   \\  /    A nd           | Website:  www.openfoam.com                      |
|    \\/     M anipulation  |                                                 |
\*---------------------------------------------------------------------------*/
FoamFile
{
    version     2.0;
    format      ascii;
    arch        "LSB;label=32;scalar=64";
    class       volScalarField;
    location    "0.55";
    object      nut;
}
// * * * * * * * * * * * * * * * * * * * * * * * * * * * * * * * * * * * * * //

dimensions      [0 2 -1 0 0 0 0];

internalField   nonuniform List<scalar> 
2268
(
0.000289337
0.000213038
0.000213038
0.000213038
0.000213038
0.000213038
0.000213038
0.000213038
0.000213038
0.000213038
0.000213038
0.000213038
0.000213038
5.78528e-05
4.02874e-05
4.62723e-05
4.95898e-05
5.12243e-05
5.15529e-05
5.05056e-05
4.75713e-05
4.12892e-05
2.53862e-05
0.000450785
0.000254306
0.000232321
0.000225511
0.000222385
0.000220634
0.000219545
0.000218827
0.000218345
0.000218025
0.00021783
0.000217737
0.000217737
5.14938e-05
0.00024737
0.000361486
0.000410024
0.000433157
0.000438898
0.000426858
0.000390025
0.000306818
8.4072e-05
0.000450785
0.000288167
0.000251962
0.000238672
0.000232268
0.000228639
0.000226375
0.000224885
0.000223885
0.000223224
0.000222819
0.000222627
0.000222627
6.70765e-05
0.000373806
0.000601997
0.000710177
0.00076296
0.000777452
0.000752942
0.000674382
0.000498368
9.87019e-05
0.000450785
0.000314823
0.000270613
0.00025196
0.00024245
0.000236938
0.000233468
0.000231177
0.000229635
0.000228616
0.000227993
0.000227696
0.000227696
8.28419e-05
0.000459119
0.0007697
0.000930679
0.00101211
0.00103636
0.00100204
0.00088705
0.000631897
0.000109479
0.000450785
0.000335499
0.000287639
0.000264953
0.00025271
0.000245414
0.000240757
0.00023766
0.00023557
0.000234184
0.000233336
0.000232932
0.000232932
9.76213e-05
0.000525139
0.000898351
0.00110536
0.00121418
0.00124949
0.00120881
0.00106355
0.000740029
0.000118812
0.000450785
0.000351572
0.000302834
0.000277373
0.000262866
0.000253958
0.000248176
0.000244294
0.000241659
0.000239908
0.000238833
0.000238321
0.000238321
0.000111602
0.000580812
0.00100617
0.0012551
0.00139102
0.0014393
0.00139633
0.00122706
0.000841365
0.000128718
0.000450785
0.000364209
0.000316232
0.000289058
0.00027278
0.000262475
0.000255662
0.000251036
0.000247873
0.000245763
0.000244464
0.000243845
0.000243845
0.000125049
0.000630789
0.00110379
0.0013932
0.00155704
0.00162092
0.0015805
0.00139503
0.000951953
0.000142913
0.000450785
0.00037429
0.000327979
0.000299934
0.000282353
0.000270887
0.000263158
0.000257844
0.000254182
0.000251726
0.000250211
0.000249486
0.000249486
0.000138186
0.000678093
0.00119846
0.00152921
0.00172285
0.00180551
0.00177352
0.00158412
0.00109971
0.000171027
2.65769e-05
4.42342e-05
5.14523e-05
5.53359e-05
5.76126e-05
5.89936e-05
5.98159e-05
6.02494e-05
6.03799e-05
6.02443e-05
5.98452e-05
5.91569e-05
5.81256e-05
5.66632e-05
5.46287e-05
5.17794e-05
4.76295e-05
4.09324e-05
4.1568e-05
9.86654e-05
0.000347363
0.000444019
0.000494152
0.000523138
0.000540704
0.000551191
0.000556681
0.000558189
0.000556134
0.000550533
0.000541073
0.000527125
0.00050767
0.000481075
0.000444431
0.0003915
0.000304135
9.46343e-05
0.00011616
0.000581625
0.000793301
0.000904807
0.000969509
0.00100886
0.00103241
0.00104468
0.00104785
0.00104282
0.00102961
0.00100761
0.000975529
0.000931391
0.000872031
0.000791781
0.000678181
0.000495173
0.000108633
0.000129411
0.000751159
0.00106642
0.00123529
0.00133365
0.00139359
0.00142946
0.00144802
0.0014525
0.00144424
0.00142329
0.00138873
0.00133876
0.0012706
0.00117991
0.00105886
0.000890222
0.00062553
0.00011866
0.000141085
0.000890969
0.00129939
0.00151968
0.00164802
0.00172629
0.00177306
0.00179702
0.00180229
0.00179056
0.00176186
0.00171503
0.0016478
0.00155674
0.00143654
0.00127765
0.00105918
0.000724101
0.000126356
0.000153531
0.00102187
0.00151717
0.00178265
0.00193689
0.00203099
0.0020871
0.00211546
0.00212089
0.00210533
0.00206877
0.00200978
0.00192569
0.00181247
0.00166398
0.00146918
0.00120408
0.000805395
0.000132628
0.000170933
0.00116187
0.00173864
0.00204161
0.00221727
0.00232461
0.00238846
0.00242019
0.0024251
0.00240526
0.00236058
0.00228935
0.00218849
0.00205345
0.00187723
0.00164733
0.00133691
0.000877448
0.000137982
0.000203189
0.0013417
0.00198136
0.00230993
0.00250196
0.00261995
0.00268998
0.00272403
0.00272769
0.00270305
0.00264987
0.00256615
0.0024484
0.00229149
0.00208751
0.00182236
0.00146617
0.000945443
0.000142704
0.000450785
0.000387195
0.000344345
0.000315956
0.000296959
0.000284002
0.000275003
0.000268693
0.00026429
0.000261311
0.000259464
0.000258579
0.000258579
0.000158621
0.000751588
0.00135038
0.00175042
0.00199562
0.00211374
0.00210546
0.00194185
0.00155705
0.000891133
0.000450785
0.000399213
0.000361271
0.000333994
0.000314484
0.000300479
0.000290379
0.000283101
0.000277923
0.000274374
0.000272154
0.000271085
0.000271085
0.000183397
0.000827586
0.0015051
0.00198266
0.00229374
0.00246817
0.00251564
0.00242939
0.00219361
0.00181089
0.000450785
0.00040801
0.000374622
0.000349177
0.000330022
0.000315683
0.000304997
0.0002971
0.000291376
0.000287401
0.000284892
0.000283678
0.000283679
0.000205814
0.000886806
0.00162335
0.00216488
0.00253669
0.0027697
0.00288062
0.00287724
0.0027677
0.00257834
0.000450785
0.000414731
0.000385376
0.00036202
0.000343727
0.000329559
0.000318698
0.000310492
0.000304442
0.000300187
0.000297479
0.000296162
0.000296162
0.000226358
0.000935019
0.0017183
0.0023137
0.00274015
0.00302876
0.00320008
0.00326863
0.0032498
0.0031683
0.000450785
0.000420036
0.000394196
0.000372954
0.000355793
0.000342127
0.000331401
0.000323138
0.000316953
0.000312553
0.000309731
0.000308352
0.000308352
0.000245253
0.000974992
0.00179605
0.00243693
0.00291123
0.00324949
0.00347367
0.0036003
0.00364509
0.00362648
0.000450785
0.000424322
0.000401533
0.000382318
0.000366407
0.000353447
0.000343072
0.000334946
0.000328782
0.000324352
0.00032149
0.000320086
0.000320086
0.000262586
0.0010083
0.00185991
0.00253886
0.00305404
0.00343488
0.00370335
0.00387581
0.0039663
0.0039882
0.000450785
0.000427844
0.000407701
0.000390372
0.000375735
0.000363592
0.00035371
0.000345859
0.000339835
0.000335467
0.000332627
0.000331228
0.000331229
0.00027839
0.00103599
0.00191207
0.00262244
0.00317174
0.00358806
0.00389266
0.00410097
0.00422518
0.00427531
0.000450785
0.000430772
0.000412924
0.000397316
0.000383921
0.000372638
0.000363329
0.000355846
0.000350047
0.00034581
0.000343039
0.000341671
0.000341671
0.000292694
0.00105891
0.00195429
0.00269019
0.0032674
0.00371256
0.00404604
0.00428218
0.00443158
0.00450218
0.000450785
0.000433225
0.000417362
0.000403306
0.000391084
0.000380659
0.00037196
0.000364897
0.000359377
0.000355318
0.000352651
0.000351329
0.000351329
0.000305548
0.00107783
0.00198826
0.00274459
0.00334421
0.00381237
0.00416851
0.00442597
0.00459416
0.00467968
0.000450785
0.000435286
0.000421137
0.000408464
0.000397323
0.000387724
0.000379637
0.000373016
0.000367805
0.000363951
0.000361409
0.000360146
0.000360147
0.000317031
0.00109354
0.00201562
0.00278819
0.00340559
0.00389179
0.00426538
0.00453888
0.00472086
0.00481708
0.000450785
0.000437019
0.000424343
0.000412886
0.000402725
0.000393896
0.000386399
0.000380218
0.000375325
0.000371689
0.000369282
0.000368084
0.000368084
0.000327257
0.00110684
0.00203812
0.00282365
0.00345511
0.00395527
0.00434203
0.00462731
0.0048191
0.00492269
0.000450785
0.000438471
0.00042705
0.000416651
0.000407362
0.000399232
0.000392286
0.000386525
0.000381942
0.000378523
0.000376253
0.000375122
0.000375122
0.000336389
0.0011186
0.00205757
0.00285377
0.00349644
0.00400734
0.0044038
0.00469736
0.00489573
0.00500398
0.000450785
0.000439678
0.000429315
0.000419823
0.000411293
0.000403786
0.000397336
0.000391962
0.00038767
0.000384457
0.00038232
0.000381252
0.000381253
0.000344666
0.00112989
0.00207605
0.00288158
0.00353349
0.00405259
0.00445586
0.00475476
0.00495695
0.00506756
0.000450785
0.000440669
0.000431184
0.000422454
0.000414571
0.000407601
0.000401588
0.000396558
0.000392527
0.000389502
0.000387486
0.000386478
0.000386478
0.000352461
0.00114209
0.00209607
0.00291063
0.0035705
0.00409573
0.00450327
0.0048048
0.00500828
0.00511909
0.000450785
0.000441464
0.000432692
0.000424586
0.000417239
0.000410719
0.000405075
0.000400339
0.000396534
0.000393673
0.000391762
0.000390806
0.000390806
0.000360426
0.00115724
0.00212119
0.00294552
0.00361253
0.00414187
0.00455101
0.00485237
0.00505452
0.00516335
0.000450785
0.000442082
0.000433867
0.000426254
0.000419332
0.000413173
0.000407826
0.00040333
0.000399711
0.000396984
0.000395161
0.000394249
0.000394249
0.000369822
0.00117898
0.00215716
0.00299293
0.00366603
0.00419675
0.00460412
0.00490195
0.0050998
0.00520422
0.000450785
0.000442535
0.00043473
0.000427482
0.000420878
0.000414989
0.000409868
0.000405554
0.000402075
0.000399452
0.000397697
0.000396818
0.000396818
0.000383484
0.00121501
0.00221502
0.00306362
0.0037397
0.00426694
0.00466759
0.00495752
0.00514752
0.00524477
0.000450785
0.000442832
0.000435298
0.00042829
0.000421897
0.000416188
0.000411218
0.000407026
0.000403643
0.00040109
0.000399381
0.000398524
0.000398524
0.000409349
0.00128609
0.00231836
0.00317538
0.00384496
0.00435953
0.00474597
0.00502229
0.00520019
0.00528717
0.000450785
0.000442979
0.000435579
0.000428691
0.000422404
0.000416785
0.00041189
0.000407759
0.000404424
0.000401906
0.00040022
0.000399375
0.000399375
0.000481985
0.00146205
0.00251808
0.00335449
0.00399418
0.00448039
0.00484232
0.00509813
0.00525922
0.0053327
0.000450785
0.000442979
0.000435579
0.000428692
0.000422404
0.000416785
0.00041189
0.000407759
0.000404424
0.000401907
0.00040022
0.000399375
0.00038873
0.00103564
0.00199822
0.00289368
0.00362207
0.0041925
0.00463048
0.00495661
0.00518496
0.00532473
0.0053817
0.000194856
0.000241233
0.000279807
0.000306677
0.000325493
0.000338963
0.000349103
0.000357726
0.000366959
0.000380319
0.000406317
0.00048013
0.00103444
0.00181659
0.00261982
0.00333906
0.00394048
0.00442469
0.00480249
0.00508491
0.00528057
0.00539555
0.00543371
0.000120234
0.000495091
0.000682659
0.00080614
0.000896526
0.000966442
0.0010232
0.00107248
0.00112037
0.00117644
0.00126293
0.00145049
0.00199161
0.00261696
0.00323313
0.00379274
0.00427407
0.00467118
0.00498553
0.00522096
0.00538135
0.00546966
0.00548767
0.000122979
0.000773268
0.00115163
0.00139575
0.00157352
0.00171227
0.00182629
0.00192553
0.00201985
0.00212316
0.00226122
0.00248614
0.00287719
0.0033326
0.003792
0.00422033
0.00459798
0.00491545
0.0051691
0.00535827
0.00548335
0.00554475
0.0055424
0.000130995
0.000935131
0.00147617
0.00183761
0.00210362
0.00231255
0.0024848
0.00263398
0.00277233
0.00291447
0.00308112
0.00330077
0.00359628
0.00393321
0.00427749
0.00460429
0.00489713
0.00514597
0.0053451
0.00549144
0.00558317
0.00561884
0.00559686
0.000136914
0.00103632
0.00169584
0.00215426
0.00249843
0.00277158
0.00299757
0.00319204
0.00336797
0.00353866
0.00371919
0.00392503
0.00416417
0.00442429
0.00468769
0.00493842
0.00516416
0.00535614
0.00550842
0.0056169
0.00567855
0.00569068
0.00565056
0.000141198
0.00110598
0.00185139
0.00238577
0.00279476
0.0031231
0.00339588
0.00362933
0.0038361
0.00402777
0.00421557
0.00440912
0.00461282
0.00482242
0.0050292
0.00522368
0.00539742
0.0055436
0.00565692
0.00573314
0.00576866
0.00576004
0.00570375
0.000144349
0.00115657
0.00196571
0.00255897
0.00302032
0.00339455
0.00370677
0.00397292
0.00420484
0.0044126
0.00460516
0.00478969
0.00496997
0.00514539
0.0053122
0.00546526
0.00559928
0.00570935
0.00579113
0.00584066
0.00585418
0.00582784
0.00575758
0.000146701
0.00119448
0.00205203
0.00269124
0.00319465
0.00360655
0.00395156
0.00424491
0.00449752
0.00471827
0.00491483
0.00509336
0.00525786
0.00540971
0.0055481
0.00567079
0.00577482
0.00585694
0.00591377
0.00594179
0.00593728
0.00589622
0.00581424
0.000148495
0.00122379
0.00211917
0.002795
0.00333258
0.00377559
0.00414794
0.00446405
0.00473396
0.00496569
0.00516615
0.00534115
0.00549508
0.00563061
0.00574879
0.00584934
0.00593102
0.00599187
0.00602935
0.00604042
0.00602151
0.00596852
0.00587697
0.00014993
0.00124763
0.00217409
0.00288035
0.00344666
0.00391605
0.00431167
0.00464718
0.0049319
0.00517325
0.00537773
0.00555109
0.00569811
0.00582241
0.0059263
0.00601087
0.00607609
0.00612101
0.00614379
0.00614179
0.00611163
0.00604926
0.00595014
0.000151192
0.00126891
0.00222317
0.0029567
0.00354873
0.00404158
0.00445776
0.0048103
0.00510801
0.00535796
0.0055665
0.0057395
0.00588215
0.00599879
0.00609263
0.00616573
0.00621898
0.00625216
0.00626398
0.00625215
0.00621348
0.00614399
0.00603918
0.000152479
0.00129071
0.00227312
0.00303384
0.00365093
0.00416608
0.00460127
0.00496918
0.00527841
0.00553598
0.00574832
0.00592158
0.00606142
0.00617273
0.00625944
0.00632432
0.00636892
0.00639357
0.0063974
0.00637841
0.00633358
0.00625904
0.00615037
0.000154034
0.00131668
0.00233168
0.00312272
0.00376656
0.00430432
0.00475779
0.00513971
0.0054589
0.00572272
0.00593803
0.00611139
0.00624898
0.00635623
0.00643762
0.00649644
0.00653475
0.00655328
0.00655147
0.00652756
0.00647868
0.0064011
0.00629048
0.000156179
0.00135137
0.00240817
0.00323618
0.00391061
0.00447235
0.00494356
0.00533775
0.00566466
0.00593253
0.00614899
0.00632131
0.0064562
0.00655963
0.0066365
0.00669054
0.00672411
0.00673826
0.00673267
0.00670578
0.00665487
0.00657633
0.00646595
0.000159356
0.00140044
0.00251376
0.00338912
0.00409984
0.00468722
0.00517492
0.00557841
0.00590937
0.00617765
0.00639215
0.00656105
0.00669171
0.00679055
0.00686283
0.00691254
0.00694229
0.0069533
0.00694545
0.00691734
0.00686641
0.00678921
0.00668171
0.000164153
0.00147041
0.00266113
0.0035981
0.00435213
0.00496607
0.00546708
0.00587457
0.00620364
0.00646673
0.00667451
0.00683627
0.00696004
0.00705261
0.00711945
0.00716466
0.00719095
0.00719967
0.00719082
0.00716316
0.00711432
0.00704107
0.00693958
0.000171312
0.00156799
0.00286382
0.00388095
0.00468564
0.0053246
0.00583215
0.00623476
0.00655299
0.00680295
0.00699751
0.00714714
0.00726041
0.00734427
0.0074042
0.00744425
0.00746708
0.00747405
0.00746526
0.00743963
0.00739507
0.00732859
0.00723667
0.000181739
0.00170006
0.00313781
0.0042585
0.00511926
0.00577605
0.00627724
0.00666107
0.00695594
0.00718249
0.00735586
0.00748743
0.00758599
0.0076583
0.00770954
0.00774349
0.0077626
0.00776815
0.00776029
0.00773814
0.00769991
0.00764302
0.00756437
0.000196708
0.00187717
0.00351096
0.00476283
0.0056761
0.00633108
0.00680286
0.00714747
0.00740286
0.007594
0.00773752
0.00784496
0.00792462
0.0079826
0.00802343
0.00805031
0.00806535
0.00806965
0.00806337
0.00804584
0.00801566
0.00797075
0.00790858
0.000218819
0.00212573
0.00405048
0.00545585
0.00638908
0.0069969
0.00740088
0.00767874
0.00787616
0.00801975
0.00812552
0.00820368
0.00826111
0.00830264
0.00833175
0.00835087
0.00836156
0.00836465
0.00836031
0.00834808
0.00832698
0.00829553
0.00825191
0.000251866
0.00253145
0.00494001
0.00645995
0.00729946
0.00776913
0.00804952
0.0082294
0.0083518
0.00843851
0.00850136
0.00854734
0.00858091
0.00860509
0.00862201
0.00863311
0.00863935
0.00864123
0.00863887
0.00863202
0.00862012
0.00860233
0.00857755
0.000230435
0.00358018
0.00677656
0.00798321
0.00841853
0.00860662
0.00870475
0.00876377
0.00880274
0.00882996
0.00884954
0.00886383
0.00887423
0.00888173
0.00888698
0.00889044
0.0088924
0.00889303
0.00889237
0.00889035
0.0088868
0.00888146
0.0088739
0.00018597
0.000172368
0.00017355
0.000190074
0.00146657
0.00140946
0.00142382
0.00150913
0.00243513
0.00239344
0.0024206
0.00251282
0.00309445
0.00307376
0.00310936
0.00319533
0.00358487
0.00357709
0.0036191
0.00370414
0.00396611
0.00396709
0.00401436
0.00410083
0.00426689
0.00427442
0.00432605
0.00441454
0.00450379
0.00451631
0.00457152
0.00466207
0.00468862
0.00470488
0.00476293
0.00485536
0.00483119
0.00485013
0.00491036
0.00500441
0.00494024
0.00496099
0.00502278
0.00511808
0.00502355
0.00504534
0.0051081
0.00520426
0.00508788
0.00511004
0.0051732
0.00526976
0.00513898
0.00516084
0.00522381
0.00532026
0.00518156
0.00520243
0.00526459
0.00536039
0.00521942
0.00523853
0.00529922
0.00539379
0.00525543
0.00527196
0.00533047
0.00542319
0.00529166
0.00530474
0.00536032
0.00545059
0.00532938
0.00533812
0.00539008
0.0054773
0.00536907
0.00537271
0.0054204
0.00550408
0.00541061
0.00540855
0.00545151
0.00553126
0.00545345
0.00544534
0.00548331
0.00555892
0.00549691
0.00548268
0.00551561
0.00558706
0.00554047
0.00552032
0.00554837
0.00561579
0.00558402
0.00555837
0.00558186
0.00564553
0.00562809
0.00559748
0.00561688
0.00567717
0.005674
0.00563907
0.00565489
0.00571222
0.00572396
0.00568538
0.00569817
0.00575298
0.00578123
0.00573964
0.00574992
0.00580263
0.00585012
0.00580616
0.00581441
0.00586538
0.00593603
0.00589033
0.00589696
0.00594646
0.00604533
0.00599849
0.00600386
0.00605204
0.00618492
0.00613763
0.00614204
0.00618886
0.00636157
0.00631462
0.0063183
0.00636352
0.00658063
0.00653502
0.00653814
0.00658124
0.00684448
0.00680143
0.00680409
0.00684425
0.00715071
0.00711166
0.00711391
0.00715006
0.00749088
0.00745738
0.00745924
0.00749013
0.00785057
0.00782401
0.00782547
0.00784994
0.00821136
0.0081927
0.00819373
0.00821098
0.00855477
0.00854421
0.00854483
0.0085547
0.00886706
0.00886398
0.00886421
0.00886732
0.00100685
0.00186214
0.0024255
0.00276518
0.00297517
0.00310652
0.00318421
0.00322045
0.00322098
0.00318777
0.00312024
0.0030159
0.00287054
0.00267797
0.0024286
0.00210535
0.00167304
0.00105019
0.000149259
0.0019797
0.0025707
0.00301513
0.00332183
0.00352746
0.00366087
0.00373962
0.00377328
0.0037664
0.00372018
0.00363334
0.00350269
0.00332325
0.00308781
0.00278518
0.00239557
0.00187942
0.00115072
0.000155681
0.00279436
0.00320943
0.00355539
0.00381723
0.00400399
0.00412867
0.00420121
0.00422764
0.00421059
0.00415006
0.00404394
0.00388833
0.00367765
0.00340404
0.00305545
0.00261069
0.00202822
0.00122109
0.000160237
0.0034261
0.00375218
0.00403175
0.00425318
0.00441659
0.00452675
0.00458832
0.00460414
0.00457493
0.00449939
0.00437448
0.00419567
0.0039569
0.00364998
0.00326245
0.00277258
0.00213805
0.00127209
0.000163517
0.0039207
0.00420303
0.00444036
0.00462969
0.00477033
0.00486386
0.00491197
0.00491528
0.00487287
0.00478226
0.00463959
0.00443972
0.00417627
0.00384088
0.00342102
0.00289485
0.00221984
0.00130958
0.000165896
0.0043136
0.00457341
0.00478378
0.00494869
0.00506918
0.00514624
0.00518022
0.00517038
0.00511464
0.00500957
0.00485056
0.00463204
0.00434737
0.00398814
0.00354192
0.00298697
0.00228075
0.0013372
0.000167618
0.00462697
0.00487454
0.00506729
0.00521386
0.00531741
0.00537939
0.00539979
0.00537719
0.00530873
0.00519029
0.00501672
0.00478205
0.00447951
0.00410072
0.00363337
0.00305589
0.00232586
0.00135746
0.000168857
0.0048755
0.00511625
0.00529727
0.00543016
0.00551991
0.00556879
0.00557692
0.00554261
0.00546258
0.00533223
0.00514601
0.0048977
0.00458041
0.00418582
0.0037018
0.00310694
0.00235895
0.00137218
0.000169739
0.00507039
0.00530742
0.00548056
0.00560334
0.00568214
0.00572007
0.0057176
0.00567303
0.00558287
0.00544224
0.00524532
0.00498572
0.00465649
0.00424938
0.00375239
0.00314431
0.00238292
0.00138274
0.000170361
0.00522121
0.00545633
0.00562419
0.00573955
0.00580983
0.00583888
0.00582758
0.00577435
0.00567562
0.00552637
0.00532062
0.00505185
0.00471313
0.00429624
0.00378933
0.0031713
0.00240006
0.00139021
0.000170792
0.0053365
0.00557069
0.00573498
0.00584491
0.00590867
0.00593071
0.00591226
0.00585192
0.00574615
0.00558985
0.00537696
0.00510091
0.00475476
0.00433035
0.00381594
0.00319055
0.00241215
0.00139543
0.000171088
0.0054239
0.00565754
0.00581931
0.00592525
0.00598406
0.00600063
0.00597652
0.0059105
0.00579908
0.00563715
0.0054186
0.00513686
0.00478498
0.00435488
0.00383488
0.0032041
0.00242056
0.00139901
0.000171288
0.00549002
0.00572309
0.00588291
0.00598582
0.00604084
0.00605319
0.00602467
0.00595418
0.00583831
0.00567195
0.00544901
0.00516289
0.00480666
0.0043723
0.00384819
0.00321351
0.00242634
0.00140144
0.000171421
0.00554044
0.00577261
0.00593069
0.00603115
0.00608322
0.00609229
0.00606034
0.00598638
0.00586706
0.00569729
0.00547097
0.00518152
0.00482205
0.00438454
0.00385744
0.00321997
0.00243025
0.00140307
0.000171509
0.00557969
0.00581043
0.00596673
0.00606505
0.00611469
0.00612118
0.00608656
0.00600992
0.00588794
0.00571556
0.00548669
0.00519475
0.00483286
0.00439305
0.00386379
0.00322436
0.00243288
0.00140415
0.000171566
0.00561135
0.00584
0.00599427
0.00609056
0.00613812
0.00614249
0.00610575
0.00602703
0.00590301
0.00572865
0.00549785
0.00520405
0.00484039
0.00439892
0.00386813
0.00322732
0.00243462
0.00140485
0.000171603
0.00563813
0.00586396
0.00601589
0.00611009
0.00615574
0.0061583
0.00611985
0.00603947
0.00591388
0.005738
0.00550576
0.00521059
0.00484563
0.00440295
0.00387107
0.00322929
0.00243577
0.00140531
0.000171627
0.00566204
0.0058843
0.00603348
0.00612549
0.0061693
0.00617024
0.00613033
0.00604862
0.00592178
0.00574474
0.0055114
0.00521519
0.00484928
0.00440573
0.00387308
0.00323062
0.00243654
0.00140561
0.000171642
0.00568443
0.00590243
0.0060485
0.00613815
0.00618011
0.00617954
0.00613835
0.00605552
0.00592767
0.00574971
0.00551551
0.00521853
0.00485189
0.0044077
0.00387447
0.00323154
0.00243705
0.00140581
0.000171652
0.0057062
0.00591935
0.00606196
0.00614912
0.0061892
0.00618719
0.00614482
0.00606101
0.00593231
0.00575358
0.0055187
0.00522108
0.00485388
0.00440917
0.00387551
0.0032322
0.00243742
0.00140595
0.000171659
0.00572787
0.00593574
0.00607466
0.0061592
0.00619739
0.00619396
0.00615049
0.00606578
0.00593632
0.00575693
0.00552144
0.00522328
0.00485558
0.00441043
0.00387638
0.00323276
0.00243772
0.00140606
0.000171664
0.00574974
0.0059521
0.00608721
0.00616909
0.00620538
0.00620056
0.00615603
0.00607047
0.00594029
0.00576026
0.0055242
0.0052255
0.00485731
0.00441172
0.00387728
0.00323333
0.00243803
0.00140617
0.00017167
0.00577206
0.00596889
0.0061002
0.00617944
0.00621387
0.00620768
0.00616212
0.00607572
0.00594482
0.00576414
0.00552746
0.00522818
0.00485942
0.00441331
0.0038784
0.00323405
0.00243842
0.00140632
0.000171677
0.00579516
0.00598666
0.00611431
0.00619101
0.00622364
0.00621613
0.00616954
0.00608228
0.00595062
0.00576921
0.00553182
0.00523182
0.00486236
0.00441556
0.00388001
0.0032351
0.00243901
0.00140654
0.000171687
0.00581966
0.0060062
0.00613043
0.00620475
0.00623568
0.0062269
0.00617928
0.00609113
0.00595862
0.00577636
0.00553807
0.00523714
0.00486672
0.00441896
0.0038825
0.00323675
0.00243994
0.00140689
0.000171704
0.00584658
0.00602864
0.00614979
0.00622196
0.00625132
0.00624132
0.00619267
0.00610355
0.00597006
0.00578675
0.00554733
0.00524515
0.00487339
0.00442426
0.00388643
0.0032394
0.00244146
0.00140748
0.000171733
0.00587749
0.00605564
0.0061741
0.00624436
0.0062723
0.00626114
0.00621145
0.00612128
0.00598665
0.00580205
0.00556114
0.00525728
0.00488367
0.00443255
0.0038927
0.00324371
0.00244397
0.00140847
0.000171782
0.0059147
0.00608951
0.00620567
0.00627429
0.00630097
0.00628872
0.00623797
0.00614666
0.0060107
0.00582452
0.00558171
0.00527561
0.00489944
0.0044455
0.00390267
0.00325069
0.00244813
0.00141013
0.000171866
0.00596133
0.00613332
0.00624756
0.00631479
0.00634036
0.0063271
0.0062753
0.00618276
0.0060453
0.00585723
0.00561206
0.00530307
0.00492346
0.00446558
0.00391843
0.00326195
0.00245497
0.00141293
0.000172009
0.00602146
0.006191
0.0063036
0.00636965
0.00639425
0.00638009
0.00632728
0.00623351
0.00609444
0.00590424
0.00565627
0.0053437
0.00495963
0.00449641
0.00394314
0.00328001
0.00246619
0.00141761
0.000172253
0.0061001
0.00626736
0.00637844
0.00644341
0.00646717
0.00645223
0.00639854
0.00630366
0.00616304
0.00597065
0.00571964
0.0054029
0.00501333
0.00454315
0.00398148
0.00330871
0.00248446
0.0014254
0.000172669
0.0062031
0.00636786
0.00647729
0.00654116
0.00656415
0.0065486
0.00649432
0.00639867
0.00625687
0.00606262
0.00580869
0.00548757
0.00509172
0.00461295
0.00404015
0.00335378
0.00251394
0.00143831
0.000173375
0.00633675
0.00649824
0.00660554
0.00666804
0.00669025
0.00667435
0.00661995
0.00652423
0.00638213
0.00618697
0.00593101
0.00560606
0.00520379
0.00471518
0.00412838
0.00342349
0.00256087
0.00145946
0.000174568
0.00650699
0.00666374
0.00676789
0.00682847
0.00684979
0.00683384
0.00678008
0.00668545
0.00654463
0.00635044
0.00609448
0.00576758
0.00536009
0.00486142
0.00425812
0.00352901
0.00263406
0.0014935
0.000176569
0.00671825
0.00686791
0.00696728
0.00702501
0.00704517
0.00702957
0.00697749
0.00688569
0.00674855
0.00655843
0.00630608
0.00598101
0.0055716
0.00506461
0.00444352
0.00368421
0.00274487
0.00154665
0.000179862
0.00697191
0.00711115
0.00720349
0.00725705
0.00727562
0.0072608
0.00721174
0.00712506
0.00699494
0.00681333
0.00657008
0.00625309
0.00584799
0.00533747
0.00469961
0.0039045
0.00290613
0.00162605
0.000185122
0.00726469
0.00738942
0.00747196
0.00751973
0.00753614
0.00752258
0.00747806
0.00739923
0.00728025
0.00711284
0.00688611
0.0065862
0.00619535
0.00569034
0.00504056
0.00420549
0.00313055
0.00173813
0.000193173
0.0075877
0.00769354
0.00776337
0.00780363
0.00781729
0.00780542
0.00776705
0.00769896
0.00759563
0.00744894
0.0072477
0.0069766
0.00661419
0.00612974
0.00547946
0.00460424
0.00343218
0.00188835
0.000204953
0.00792676
0.00800985
0.00806446
0.00809578
0.00810617
0.00809643
0.00806563
0.00801098
0.00792762
0.0078082
0.00764208
0.00741353
0.00709835
0.00665791
0.00603097
0.00512727
0.00383763
0.00208702
0.000221822
0.00826465
0.00832259
0.0083605
0.00838207
0.00838898
0.00838173
0.00835958
0.00832037
0.00826032
0.00817362
0.00805138
0.0078795
0.00763401
0.00727192
0.00671463
0.00582611
0.00441497
0.00236707
0.000247364
0.0085849
0.00861756
0.00863881
0.00865076
0.00865439
0.00864994
0.00863693
0.00861401
0.00857889
0.00852791
0.00845528
0.00835123
0.00819756
0.00795722
0.00754942
0.00679522
0.00534189
0.00283894
0.000298641
0.00887636
0.00888608
0.00889238
0.00889587
0.00889684
0.00889536
0.00889126
0.00888412
0.00887319
0.00885733
0.00883467
0.00880194
0.00875264
0.00867184
0.00851899
0.00816332
0.00712718
0.0040591
0.000465846
)
;

boundaryField
{
    leftWall
    {
        type            nutkWallFunction;
        blending        stepwise;
        value           nonuniform List<scalar> 
50
(
0
0
0
0
0
0
0
0
0
0
0
0
0
0
0
0
0
0
0
0
0
0
0
0
0
0
0
5.36008e-05
1.9343e-05
9.27036e-06
9.88269e-06
1.10906e-05
1.19603e-05
1.25762e-05
1.3018e-05
1.33378e-05
1.35729e-05
1.37528e-05
1.39033e-05
1.40507e-05
1.42257e-05
1.44687e-05
1.48367e-05
1.54105e-05
1.62996e-05
1.76461e-05
1.96484e-05
2.27151e-05
2.84238e-05
4.16979e-05
)
;
    }
    rightWall
    {
        type            nutkWallFunction;
        blending        stepwise;
        value           nonuniform List<scalar> 
50
(
1.06244e-06
5.38941e-06
7.68277e-06
9.28377e-06
1.04907e-05
1.14599e-05
1.22771e-05
1.29912e-05
1.39753e-05
1.4913e-05
1.5559e-05
1.60112e-05
1.63299e-05
1.65541e-05
1.67109e-05
1.68193e-05
1.68935e-05
1.69435e-05
1.69768e-05
1.69988e-05
1.7013e-05
1.70222e-05
1.7028e-05
1.70317e-05
1.7034e-05
1.70355e-05
1.70364e-05
1.7037e-05
1.70375e-05
1.70379e-05
1.70385e-05
1.70394e-05
1.70409e-05
1.70435e-05
1.7048e-05
1.70558e-05
1.70692e-05
1.70926e-05
1.71332e-05
1.72037e-05
1.73259e-05
1.75367e-05
1.78967e-05
1.84977e-05
1.94669e-05
2.09633e-05
2.31988e-05
2.66553e-05
3.35976e-05
5.55373e-05
)
;
    }
    lowerWall
    {
        type            nutkWallFunction;
        blending        stepwise;
        value           nonuniform List<scalar> 
62
(
0
0
0
0
0
0
0
0
0
0
0
0
2.16739e-05
0
0
0
0
0
0
0
0
0
0
0
3.48013e-06
5.92387e-06
7.67498e-06
9.16217e-06
1.07157e-05
1.29163e-05
1.72333e-05
1.93778e-05
1.72319e-05
1.73771e-05
1.98757e-05
0
5.89408e-06
8.70579e-06
1.07729e-05
1.25613e-05
1.4447e-05
1.70691e-05
2.18944e-05
0
0
0
0
0
0
0
0
0
0
0
0
0
0
0
0
0
0
0
)
;
    }
    atmosphere
    {
        type            calculated;
        value           nonuniform List<scalar> 
46
(
0.000230435
0.009
0.009
0.009
0.009
0.009
0.009
0.009
0.009
0.009
0.009
0.009
0.009
0.009
0.009
0.009
0.009
0.009
0.009
0.009
0.009
0.009
0.009
0.009
0.009
0.009
0.009
0.009
0.009
0.009
0.009
0.009
0.009
0.009
0.009
0.009
0.009
0.009
0.009
0.009
0.009
0.009
0.009
0.009
0.009
0.009
)
;
    }
    defaultFaces
    {
        type            empty;
    }
}


// ************************************************************************* //
