/*--------------------------------*- C++ -*----------------------------------*\
| =========                 |                                                 |
| \\      /  F ield         | OpenFOAM: The Open Source CFD Toolbox           |
|  \\    /   O peration     | Version:  2406                                  |
|   \\  /    A nd           | Website:  www.openfoam.com                      |
|    \\/     M anipulation  |                                                 |
\*---------------------------------------------------------------------------*/
FoamFile
{
    version     2.0;
    format      ascii;
    arch        "LSB;label=32;scalar=64";
    class       surfaceScalarField;
    location    "0.55";
    object      phi;
}
// * * * * * * * * * * * * * * * * * * * * * * * * * * * * * * * * * * * * * //

dimensions      [0 3 -1 0 0 0 0];

oriented        oriented;

internalField   nonuniform List<scalar> 
4432
(
-2.69428e-304
-1.33634e-304
-5.38459e-304
-6.31882e-304
-8.26186e-304
-8.44905e-304
-1.14094e-303
-8.47021e-304
-1.49114e-303
-5.9753e-304
-1.87845e-303
6.07475e-306
-2.29399e-303
1.13075e-303
-2.70832e-303
3.03517e-303
-3.04181e-303
6.12389e-303
-3.03737e-303
1.10719e-302
-1.63295e-303
1.9105e-302
6.71953e-303
3.22825e-302
9.46762e-303
5.41231e-302
-3.68509e-303
1.92479e-302
-5.86172e-303
3.1548e-303
-3.55456e-303
-1.11135e-303
-2.02232e-303
-1.49432e-303
-1.14115e-303
-1.07577e-303
-6.41954e-304
-6.05762e-304
-3.53226e-304
-2.61317e-304
-1.79828e-304
-4.74852e-305
-6.75243e-305
6.00017e-305
6.38462e-305
-8.36163e-304
-2.44169e-304
-1.6552e-303
-1.13272e-303
-2.52095e-303
-1.53859e-303
-3.46737e-303
-1.5254e-303
-4.51612e-303
-1.00339e-303
-5.66976e-303
2.27694e-304
-6.89925e-303
2.49247e-303
-8.1158e-303
6.28567e-303
-9.10125e-303
1.23691e-302
-9.31072e-303
2.19622e-302
-7.08445e-303
3.71767e-302
-2.43809e-303
6.2181e-302
5.05567e-303
1.00454e-301
-7.6659e-303
3.16424e-302
-7.91438e-303
4.7718e-303
-5.04276e-303
-4.15437e-304
-3.0841e-303
-1.23955e-303
-1.85277e-303
-9.99218e-304
-1.10328e-303
-5.80858e-304
-6.45299e-304
-2.34859e-304
-3.57405e-304
-4.54469e-308
-1.57103e-304
1.33481e-304
1.44331e-304
-1.41666e-303
-3.75616e-304
-2.81704e-303
-1.61348e-303
-4.29796e-303
-2.2037e-303
-5.91786e-303
-2.1703e-303
-7.7161e-303
-1.3686e-303
-9.70314e-303
4.98144e-304
-1.18428e-302
3.90196e-303
-1.40153e-302
9.55654e-303
-1.5938e-302
1.85418e-302
-1.69936e-302
3.25521e-302
-1.55511e-302
5.44297e-302
-1.55901e-302
8.95716e-302
-1.56188e-303
1.40857e-301
-1.14823e-302
4.07031e-302
-9.40937e-303
6.39227e-303
-6.16067e-303
3.5678e-304
-3.92328e-303
-8.60575e-304
-2.4515e-303
-8.2207e-304
-1.51473e-303
-4.91958e-304
-9.21313e-304
-1.74154e-304
-5.36999e-304
6.29032e-305
-2.58693e-304
2.15604e-304
2.41266e-304
-2.03552e-303
-5.17121e-304
-4.06404e-303
-2.10152e-303
-6.21135e-303
-2.87837e-303
-8.56142e-303
-2.82604e-303
-1.11751e-302
-1.74019e-303
-1.40781e-302
7.68938e-304
-1.72406e-302
5.31262e-303
-2.05391e-302
1.28022e-302
-2.36854e-302
2.45997e-302
-2.61057e-302
4.27974e-302
-2.63707e-302
7.07916e-302
-3.15579e-302
1.1454e-301
-9.6061e-303
1.75316e-301
-1.53831e-302
4.81871e-302
-1.10712e-302
8.08651e-303
-7.33086e-303
1.11072e-303
-4.78468e-303
-4.71119e-304
-3.07605e-303
-6.23071e-304
-1.95739e-303
-3.86034e-304
-1.23055e-303
-1.04896e-304
-7.49489e-304
1.28156e-304
-3.89371e-304
3.00085e-304
3.54008e-304
-2.71483e-303
-6.71179e-304
-5.43473e-303
-2.62446e-303
-8.31503e-303
-3.60357e-303
-1.14668e-302
-3.54162e-303
-1.49759e-302
-2.17295e-303
-1.88901e-302
9.83478e-304
-2.31981e-302
6.66762e-303
-2.77943e-302
1.59698e-302
-3.24218e-302
3.04938e-302
-3.65945e-302
5.26566e-302
-3.9052e-302
8.62457e-302
-4.94991e-302
1.37415e-301
-1.87903e-302
2.05903e-301
-1.96429e-302
5.50961e-302
-1.30492e-302
9.79896e-303
-8.66689e-303
1.83001e-303
-5.74715e-303
-1.01073e-304
-3.77531e-303
-4.29033e-304
-2.46158e-303
-2.82086e-304
-1.59289e-303
-4.06243e-305
-1.00985e-303
1.83494e-304
-5.61121e-304
3.72027e-304
4.64051e-304
-3.47523e-303
-8.44222e-304
-6.96714e-303
-3.20768e-303
-1.06631e-302
-4.41876e-303
-1.47028e-302
-4.3672e-303
-1.92007e-302
-2.72366e-303
-2.42319e-302
1.08098e-303
-2.98133e-302
7.90708e-303
-3.5873e-302
1.90025e-302
-4.22052e-302
3.61754e-302
-4.84191e-302
6.20921e-302
-5.33449e-302
1.00801e-301
-6.90445e-302
1.58545e-301
-2.90237e-302
2.34296e-301
-2.43664e-302
6.17737e-302
-1.5369e-302
1.15181e-302
-1.02107e-302
2.52556e-303
-6.84772e-303
2.4802e-304
-4.57536e-303
-2.47383e-304
-3.04441e-303
-1.88172e-304
-2.01997e-303
1.0311e-305
-1.3284e-303
2.1709e-304
-7.88175e-304
4.08815e-304
5.21712e-304
-4.33679e-303
-1.04658e-303
-8.69943e-303
-3.87605e-303
-1.33106e-302
-5.36531e-303
-1.83397e-302
-5.35685e-303
-2.39323e-302
-3.45586e-303
-3.01956e-302
9.93677e-304
-3.71816e-302
8.96285e-303
-4.48616e-302
2.18386e-302
-5.30921e-302
4.15943e-302
-6.15761e-302
7.10775e-302
-6.91882e-302
1.1449e-301
-9.01594e-302
1.78139e-301
-4.03489e-302
2.6106e-301
-2.95841e-302
6.82146e-302
-1.80221e-302
1.32494e-302
-1.19787e-302
3.21941e-303
-8.10731e-303
5.86758e-304
-5.49334e-303
-7.6326e-305
-3.71754e-303
-1.06604e-304
-2.51855e-303
4.30531e-305
-1.70988e-303
2.18739e-304
-1.0876e-303
3.79103e-304
4.19394e-304
-5.3193e-303
-1.2889e-303
-1.06705e-302
-4.64624e-303
-1.63138e-302
-6.47484e-303
-2.24494e-302
-6.55761e-303
-2.92557e-302
-4.43103e-303
-3.6875e-302
6.46855e-304
-4.53989e-302
9.74849e-303
-5.48479e-302
2.43823e-302
-6.51457e-302
4.66496e-302
-7.60917e-302
7.95178e-302
-8.65011e-302
1.27241e-301
-1.13144e-301
1.96017e-301
-5.24619e-302
2.84364e-301
-3.52701e-302
7.41468e-302
-2.09675e-302
1.50026e-302
-1.39587e-302
3.9426e-303
-9.52518e-303
9.37149e-304
-6.53088e-303
9.68144e-305
-4.48073e-303
-3.06206e-305
-3.08344e-303
6.06374e-305
-2.14083e-303
1.88299e-304
-1.4749e-303
2.78301e-304
1.96336e-304
-5.59363e-308
-3.10982e-307
-7.23132e-308
-1.48674e-306
-4.86593e-308
-1.21977e-306
-5.09183e-308
-6.27335e-307
-4.86801e-308
-2.49833e-307
-3.72419e-308
-7.99804e-308
-2.394e-308
-1.827e-308
-1.35655e-308
-2.42709e-310
-6.98871e-309
3.12606e-309
-3.33499e-309
2.61799e-309
-1.48977e-309
1.59553e-309
-6.26073e-310
8.45802e-310
-2.47583e-310
4.11043e-310
-9.16891e-311
1.86617e-310
-3.14163e-311
7.94405e-311
-9.70349e-312
3.14846e-311
-2.53967e-312
1.1361e-311
-4.63409e-313
3.43821e-312
5.05808e-313
-1.23222e-307
-9.63538e-307
-2.24071e-307
-3.12209e-306
-2.10934e-307
-2.30433e-306
-1.95201e-307
-1.13715e-306
-1.55965e-307
-4.40598e-307
-1.07316e-307
-1.34385e-307
-6.54521e-308
-2.52287e-308
-3.63233e-308
5.0257e-309
-1.8682e-308
9.16347e-309
-9.01043e-309
6.81464e-309
-4.10319e-309
4.0337e-309
-1.76954e-309
2.12581e-309
-7.22344e-310
1.0369e-309
-2.77839e-310
4.7531e-310
-9.96272e-311
2.05545e-310
-3.25614e-311
8.34969e-311
-9.19248e-312
3.13763e-311
-1.85943e-312
1.0263e-311
1.84535e-312
-2.59109e-307
-2.51153e-306
-5.14428e-307
-5.84104e-306
-5.16613e-307
-3.85875e-306
-4.47349e-307
-1.80118e-306
-3.29972e-307
-6.7222e-307
-2.14446e-307
-1.94789e-307
-1.2637e-307
-2.92307e-308
-6.89124e-308
1.43355e-308
-3.52453e-308
1.83184e-308
-1.70488e-308
1.30153e-308
-7.83653e-309
7.63742e-309
-3.42893e-309
4.03852e-309
-1.42673e-309
1.98806e-309
-5.61993e-310
9.23617e-310
-2.07537e-310
4.06665e-310
-7.04159e-311
1.69329e-310
-2.09186e-311
6.6012e-311
-4.56401e-312
2.29995e-311
4.81066e-312
-6.11985e-307
-6.23958e-306
-1.12943e-306
-1.05283e-305
-1.11638e-306
-6.19939e-306
-9.05495e-307
-2.72198e-306
-6.29055e-307
-9.76087e-307
-3.91612e-307
-2.69257e-307
-2.24587e-307
-3.10904e-308
-1.20676e-307
2.86974e-308
-6.13814e-308
3.17183e-308
-2.97357e-308
2.20477e-308
-1.37633e-308
1.29265e-308
-6.09142e-309
6.88249e-309
-2.57401e-309
3.42571e-309
-1.03386e-309
1.6144e-309
-3.91137e-310
7.23636e-310
-1.36845e-310
3.08386e-310
-4.23734e-311
1.2422e-310
-9.83323e-312
4.56438e-311
1.07953e-311
-1.5594e-306
-1.52084e-305
-2.42726e-306
-1.83483e-305
-2.26925e-306
-9.60551e-306
-1.72035e-306
-3.97017e-306
-1.13532e-306
-1.3729e-306
-6.82609e-307
-3.63514e-307
-3.83169e-307
-3.14738e-308
-2.03567e-307
4.89328e-308
-1.03158e-307
5.03659e-308
-5.00777e-308
3.47005e-308
-2.33332e-308
2.04256e-308
-1.04356e-308
1.09749e-308
-4.47148e-309
5.52905e-309
-1.82746e-309
2.64368e-309
-7.06309e-310
1.20573e-309
-2.53842e-310
5.25069e-310
-8.14785e-311
2.17787e-310
-1.99432e-311
8.37715e-311
2.20706e-311
-4.12767e-306
-3.63053e-305
-5.12033e-306
-3.06061e-305
-4.40361e-306
-1.42693e-305
-3.11493e-306
-5.58709e-306
-1.96333e-306
-1.87844e-306
-1.14692e-306
-4.83407e-307
-6.33163e-307
-3.15759e-308
-3.33708e-307
7.56082e-308
-1.68833e-307
7.52144e-308
-8.22213e-308
5.17995e-308
-3.85797e-308
3.07156e-308
-1.74317e-308
1.66805e-308
-7.56787e-309
8.51032e-309
-3.14302e-309
4.12804e-309
-1.23868e-309
1.91407e-309
-4.561e-310
8.50211e-310
-1.51196e-310
3.61812e-310
-3.8835e-311
1.44508e-310
4.1677e-311
-1.10524e-305
-8.74682e-305
-1.06143e-305
-4.77922e-305
-8.19939e-306
-2.00961e-305
-5.40993e-306
-7.5628e-306
-3.27353e-306
-2.50341e-306
-1.86812e-306
-6.36474e-307
-1.01876e-306
-3.44372e-308
-5.34403e-307
1.08113e-307
-2.70539e-307
1.06578e-307
-1.32363e-307
7.38525e-308
-6.25937e-308
4.42293e-308
-2.85799e-308
2.42989e-308
-1.25692e-308
1.25545e-308
-5.30117e-309
6.17298e-309
-2.12785e-309
2.90522e-309
-8.01252e-310
1.31261e-309
-2.73475e-310
5.70148e-310
-7.33849e-311
2.33852e-310
7.19011e-311
-2.86842e-305
-1.47304e-304
-2.14139e-305
-6.56547e-305
-1.44717e-305
-2.6246e-305
-8.95029e-306
-9.71608e-306
-5.23509e-306
-3.20132e-306
-2.93505e-306
-8.09325e-307
-1.58759e-306
-3.59023e-308
-8.3115e-307
1.47853e-307
-4.21746e-307
1.45005e-307
-2.07485e-307
1.01121e-307
-9.89095e-308
6.11107e-308
-4.5622e-308
3.39131e-308
-2.03077e-308
1.77083e-308
-8.68585e-309
8.80335e-309
-3.54375e-309
4.19125e-309
-1.36078e-309
1.91721e-309
-4.76272e-310
8.43918e-310
-1.33098e-310
3.50777e-310
1.10374e-310
-1.49532e-302
-1.92159e-303
-2.99887e-302
-6.57799e-303
-4.57876e-302
-9.34506e-303
-6.28806e-302
-9.85636e-303
-8.17624e-302
-7.49727e-303
-1.0286e-301
-1.36036e-303
-1.2651e-301
9.81117e-303
-1.52928e-301
2.77138e-302
-1.82186e-301
5.46153e-302
-2.14179e-301
9.3552e-302
-2.43981e-301
1.48616e-301
-3.25223e-301
2.25214e-301
-1.52832e-301
3.19303e-301
-9.50004e-302
8.40804e-302
-5.4989e-302
1.84223e-302
-3.67117e-302
5.45708e-303
-2.5306e-302
1.69837e-303
-1.75896e-302
4.79574e-304
-1.22456e-302
1.32458e-304
-8.53861e-303
8.18969e-305
-5.98067e-303
9.48646e-305
-4.20041e-303
5.59048e-305
-1.22677e-304
-2.6029e-303
-2.01637e-302
-2.73555e-303
-4.04277e-302
-9.02488e-303
-6.16718e-302
-1.31116e-302
-8.459e-302
-1.44778e-302
-1.09855e-301
-1.23646e-302
-1.38084e-301
-5.72137e-303
-1.69825e-301
6.84692e-303
-2.05539e-301
2.71487e-302
-2.4559e-301
5.74978e-302
-2.90237e-301
1.00825e-301
-3.33375e-301
1.60824e-301
-4.43629e-301
2.41894e-301
-2.17575e-301
3.38186e-301
-1.23779e-301
9.02917e-302
-6.96505e-302
2.096e-302
-4.63271e-302
6.66753e-303
-3.20499e-302
2.33765e-303
-2.24261e-302
8.10216e-304
-1.57098e-302
2.72401e-304
-1.09649e-302
9.55154e-305
-7.58121e-303
2.20729e-305
-5.10167e-303
-6.27776e-305
-2.01953e-304
-3.1188e-303
-2.56108e-302
-3.82603e-303
-5.12978e-302
-1.23071e-302
-7.81843e-302
-1.82859e-302
-1.07144e-301
-2.11001e-302
-1.39039e-301
-1.98539e-302
-1.74686e-301
-1.33687e-302
-2.14838e-301
-1.41998e-304
-2.60175e-301
2.17014e-302
-3.11293e-301
5.44576e-302
-3.68695e-301
1.00886e-301
-4.25353e-301
1.64237e-301
-5.62847e-301
2.48009e-301
-2.84001e-301
3.45155e-301
-1.53818e-301
9.33806e-302
-8.49293e-302
2.24266e-302
-5.61056e-302
7.38116e-303
-3.8748e-302
2.72106e-303
-2.71241e-302
1.00919e-303
-1.90025e-302
3.53303e-304
-1.32219e-302
9.97184e-305
-9.05099e-303
-1.578e-305
-5.97521e-303
-1.01758e-304
-1.8449e-304
-3.62466e-303
-3.13245e-302
-5.30847e-303
-6.26366e-302
-1.67746e-302
-9.53511e-302
-2.54335e-302
-1.30534e-301
-3.04785e-302
-1.69247e-301
-3.08776e-302
-2.12504e-301
-2.53305e-302
-2.61251e-301
-1.22381e-302
-3.16356e-301
1.03241e-302
-3.78589e-301
4.46239e-302
-4.48612e-301
9.326e-302
-5.18342e-301
1.59126e-301
-6.82337e-301
2.45065e-301
-3.51149e-301
3.43315e-301
-1.85004e-301
9.40259e-302
-1.00894e-301
2.28623e-302
-6.61766e-302
7.54429e-303
-4.55328e-302
2.78953e-303
-3.18056e-302
1.03209e-303
-2.22387e-302
3.47324e-304
-1.54249e-302
7.75719e-305
-1.05022e-302
-3.79867e-305
-6.88643e-303
-1.0261e-304
-1.42591e-304
-4.17622e-303
-3.73273e-302
-7.31523e-303
-7.44734e-302
-2.28205e-302
-1.13198e-301
-3.51928e-302
-1.54772e-301
-4.34708e-302
-2.00467e-301
-4.64777e-302
-2.51496e-301
-4.27847e-302
-3.08988e-301
-3.0693e-302
-3.73975e-301
-8.21768e-303
-4.47368e-301
2.69054e-302
-5.29939e-301
7.71805e-302
-6.12503e-301
1.45281e-301
-8.02645e-301
2.33668e-301
-4.19421e-301
3.3417e-301
-2.17357e-301
9.25194e-302
-1.17554e-301
2.22644e-302
-7.66004e-302
7.10699e-303
-5.24823e-302
2.48951e-303
-3.65511e-302
8.33192e-304
-2.54933e-302
2.1781e-304
-1.76371e-302
-2.22609e-306
-1.19748e-302
-7.67566e-305
-7.83523e-303
-1.02135e-304
-1.05706e-304
-4.75969e-303
-4.36363e-302
-1e-302
-8.68291e-302
-3.08984e-302
-1.31746e-301
-4.8302e-302
-1.79883e-301
-6.10723e-302
-2.32736e-301
-6.78668e-302
-2.91725e-301
-6.71127e-302
-3.58162e-301
-5.69922e-302
-4.33234e-301
-3.5435e-302
-5.17976e-301
-1.29125e-304
-6.13253e-301
5.14257e-302
-7.08758e-301
1.21843e-301
-9.25152e-301
2.13452e-301
-4.89756e-301
3.17877e-301
-2.51033e-301
8.87408e-302
-1.34931e-301
2.05016e-302
-8.7408e-302
5.96369e-303
-5.96381e-302
1.73886e-303
-4.14048e-302
3.48911e-304
-2.88064e-302
-8.50813e-305
-1.98873e-302
-1.80484e-304
-1.34802e-302
-1.67369e-304
-8.81428e-303
-1.297e-304
-9.00606e-305
-5.36328e-303
-5.02556e-302
-1.35447e-302
-9.96996e-302
-4.15401e-302
-1.50989e-301
-6.56273e-302
-2.0587e-301
-8.44511e-302
-2.66092e-301
-9.64725e-302
-3.33299e-301
-9.99482e-302
-4.08997e-301
-9.29187e-302
-4.94527e-301
-7.31922e-302
-5.91046e-301
-3.83511e-302
-6.9951e-301
1.42046e-302
-8.08486e-301
8.71879e-302
-1.05173e-300
1.8303e-301
-5.63438e-301
2.93315e-301
-2.86305e-301
8.21316e-302
-1.5307e-301
1.72683e-302
-9.86213e-302
3.91996e-303
-6.702e-302
4.0585e-304
-4.63869e-302
-5.13061e-304
-3.21951e-302
-6.27909e-304
-2.21858e-302
-5.06637e-304
-1.50197e-302
-3.47009e-304
-9.81755e-303
-2.11464e-304
-1.09309e-304
-5.98066e-303
-5.71603e-302
-1.81671e-302
-1.13021e-301
-5.53777e-302
-1.70837e-301
-8.81954e-302
-2.32647e-301
-1.1499e-301
-3.0049e-301
-1.33981e-301
-3.76267e-301
-1.43228e-301
-4.61696e-301
-1.40604e-301
-5.58284e-301
-1.23768e-301
-6.67311e-301
-9.01388e-302
-7.89827e-301
-3.69211e-302
-9.13273e-301
3.88551e-302
-1.1845e-300
1.39947e-301
-6.41938e-301
2.58056e-301
-3.23517e-301
7.1648e-302
-1.72033e-301
1.20536e-302
-1.10253e-301
6.73286e-304
-7.46311e-302
-1.70166e-303
-5.14992e-302
-1.87869e-303
-3.56603e-302
-1.49515e-303
-2.45315e-302
-1.03841e-303
-1.65893e-302
-6.55178e-304
-1.08395e-302
-3.73041e-304
-1.77367e-304
-6.60767e-303
-6.42686e-302
-2.4133e-302
-1.26616e-301
-7.3172e-302
-1.91041e-301
-1.17237e-301
-2.59933e-301
-1.54335e-301
-3.3568e-301
-1.82388e-301
-4.20478e-301
-1.99231e-301
-5.16283e-301
-2.02566e-301
-6.24786e-301
-1.89887e-301
-7.47396e-301
-1.58414e-301
-8.85256e-301
-1.05071e-301
-1.02468e-300
-2.64952e-302
-1.32559e-300
8.06197e-302
-7.26773e-301
2.08274e-301
-3.63035e-301
5.56903e-302
-1.91874e-301
4.11397e-303
-1.22299e-301
-4.19663e-303
-8.24553e-302
-4.83812e-303
-5.67265e-302
-3.90609e-303
-3.91898e-302
-2.78664e-303
-2.69143e-302
-1.83971e-303
-1.81806e-302
-1.13284e-303
-1.18735e-302
-6.39831e-304
-3.08474e-304
-7.24011e-303
-7.14053e-302
-3.17731e-302
-1.40119e-301
-9.58557e-302
-2.11082e-301
-1.54243e-301
-2.87122e-301
-2.04455e-301
-3.71049e-301
-2.4405e-301
-4.65405e-301
-2.70627e-301
-5.72413e-301
-2.81735e-301
-6.93957e-301
-2.74731e-301
-8.31586e-301
-2.46633e-301
-9.86534e-301
-1.94039e-301
-1.144e-300
-1.13075e-301
-1.47688e-300
3.1595e-304
-8.19301e-301
1.38652e-301
-4.05165e-301
3.20243e-302
-2.12596e-301
-7.54506e-303
-1.34719e-301
-1.12242e-302
-9.04516e-302
-9.31022e-303
-6.20359e-302
-6.77518e-303
-4.27591e-302
-4.60938e-303
-2.93162e-302
-2.975e-303
-1.97806e-302
-1.81918e-303
-1.29105e-302
-1.03536e-303
-5.15969e-304
-7.87248e-303
-7.82445e-302
-4.15114e-302
-1.52864e-301
-1.24598e-301
-2.30021e-301
-2.01055e-301
-3.13105e-301
-2.67731e-301
-4.05434e-301
-3.21751e-301
-5.09943e-301
-3.60499e-301
-6.29145e-301
-3.81452e-301
-7.65124e-301
-3.81907e-301
-9.19562e-301
-3.58739e-301
-1.09379e-300
-3.08218e-301
-1.27187e-300
-2.25897e-301
-1.63962e-300
-1.068e-301
-9.20473e-301
4.23454e-302
-4.50051e-301
-2.27279e-303
-2.34115e-301
-2.41573e-302
-1.47421e-301
-2.10281e-302
-9.85466e-302
-1.54469e-302
-6.73739e-302
-1.06642e-302
-4.63302e-302
-7.06125e-303
-3.17105e-302
-4.49918e-303
-2.13704e-302
-2.7457e-303
-1.39379e-302
-1.57794e-303
-8.10319e-304
-8.497e-303
-8.42287e-302
-5.3916e-302
-1.63726e-301
-1.60915e-301
-2.46297e-301
-2.59993e-301
-3.36042e-301
-3.47073e-301
-4.36884e-301
-4.18779e-301
-5.52178e-301
-4.72383e-301
-6.84715e-301
-5.05449e-301
-8.3676e-301
-5.15388e-301
-1.01012e-300
-4.99053e-301
-1.2062e-300
-4.52463e-301
-1.40797e-300
-3.70603e-301
-1.814e-300
-2.47498e-301
-1.03048e-300
-8.88969e-302
-4.97535e-301
-5.07803e-302
-2.56208e-301
-4.71163e-302
-1.60239e-301
-3.42308e-302
-1.06626e-301
-2.35374e-302
-7.2663e-302
-1.57077e-302
-4.98496e-302
-1.02051e-302
-3.40597e-302
-6.44235e-303
-2.2924e-302
-3.92777e-303
-1.49378e-302
-2.27612e-303
-1.19664e-303
-9.10249e-303
-8.843e-302
-6.97978e-302
-1.70875e-301
-2.06851e-301
-2.57419e-301
-3.34068e-301
-3.53069e-301
-4.46083e-301
-4.62401e-301
-5.39027e-301
-5.89147e-301
-6.1028e-301
-7.36304e-301
-6.57803e-301
-9.06253e-301
-6.79396e-301
-1.10088e-300
-6.72112e-301
-1.32169e-300
-6.31862e-301
-1.55055e-300
-5.5318e-301
-1.99864e-300
-4.29137e-301
-1.14837e-300
-2.64369e-301
-5.46996e-301
-1.17515e-301
-2.78458e-301
-7.77589e-302
-1.72917e-301
-5.1295e-302
-1.14528e-301
-3.37245e-302
-7.77952e-302
-2.19331e-302
-5.32428e-302
-1.40331e-302
-3.6311e-302
-8.79086e-303
-2.4404e-302
-5.35471e-303
-1.58849e-302
-3.12351e-303
-1.67204e-303
-9.67264e-303
-8.93027e-302
-9.04178e-302
-1.7134e-301
-2.65305e-301
-2.5952e-301
-4.27296e-301
-3.59907e-301
-5.69285e-301
-4.77644e-301
-6.8708e-301
-6.16633e-301
-7.78644e-301
-7.79876e-301
-8.42836e-301
-9.69736e-301
-8.78259e-301
-1.18813e-300
-8.82452e-301
-1.43664e-300
-8.51446e-301
-1.69609e-300
-7.79534e-301
-2.19008e-300
-6.591e-301
-1.27159e-300
-4.93702e-301
-5.97134e-301
-2.06353e-301
-3.00198e-301
-1.16905e-301
-1.85083e-301
-7.22347e-302
-1.22023e-301
-4.58434e-302
-8.26174e-302
-2.91779e-302
-5.64019e-302
-1.84264e-302
-3.8387e-302
-1.14679e-302
-2.57553e-302
-6.98039e-303
-1.67412e-302
-4.09412e-303
-2.22318e-303
-1.01833e-302
-8.41579e-302
-1.17945e-301
-1.60223e-301
-3.406e-301
-2.46621e-301
-5.45178e-301
-3.50357e-301
-7.22377e-301
-4.76649e-301
-8.68279e-301
-6.29038e-301
-9.82301e-301
-8.10134e-301
-1.06496e-300
-1.02207e-300
-1.11619e-300
-1.26673e-300
-1.13436e-300
-1.54575e-300
-1.11584e-300
-1.83903e-300
-1.05498e-300
-2.38247e-300
-9.44011e-301
-1.39558e-300
-7.85787e-301
-6.45669e-301
-3.19761e-301
-3.2041e-301
-1.63983e-301
-1.96195e-301
-9.61706e-302
-1.28771e-301
-5.92222e-302
-8.68962e-302
-3.70067e-302
-5.916e-302
-2.31221e-302
-4.01684e-302
-1.43203e-302
-2.68945e-302
-8.71754e-303
-1.74508e-302
-5.13943e-303
-2.82453e-303
-1.05996e-302
-6.79171e-302
-1.56396e-301
-1.29112e-301
-4.39455e-301
-2.09452e-301
-6.95321e-301
-3.15675e-301
-9.12439e-301
-4.51648e-301
-1.08863e-300
-6.19456e-301
-1.22624e-300
-8.2071e-301
-1.32844e-300
-1.05706e-300
-1.39708e-300
-1.33031e-300
-1.4316e-300
-1.64225e-300
-1.42892e-300
-1.97191e-300
-1.3837e-300
-2.56749e-300
-1.28877e-300
-1.51323e-300
-1.14729e-300
-6.88675e-301
-4.55946e-301
-3.37486e-301
-2.15481e-301
-2.05397e-301
-1.20756e-301
-1.34222e-301
-7.25029e-302
-9.02504e-302
-4.46665e-302
-6.12505e-302
-2.77062e-302
-4.14716e-302
-1.71193e-302
-2.76988e-302
-1.04386e-302
-1.79348e-302
-6.18842e-303
-3.43782e-303
-1.08739e-302
-2.96935e-302
-2.13203e-301
-6.28146e-302
-5.72333e-301
-1.33601e-301
-8.87916e-301
-2.43995e-301
-1.14774e-300
-3.93224e-301
-1.35438e-300
-5.80137e-301
-1.51515e-300
-8.04675e-301
-1.637e-300
-1.06795e-300
-1.72415e-300
-1.37183e-300
-1.77725e-300
-1.71838e-300
-1.79359e-300
-2.08584e-300
-1.76824e-300
-2.73483e-300
-1.69553e-300
-1.61373e-300
-1.58075e-300
-7.18726e-301
-6.0166e-301
-3.48683e-301
-2.6253e-301
-2.11209e-301
-1.41698e-301
-1.37429e-301
-8.36362e-302
-9.20534e-302
-5.11463e-302
-6.2263e-302
-3.16556e-302
-4.20332e-302
-1.95818e-302
-2.80029e-302
-1.19856e-302
-1.80924e-302
-7.15148e-303
-4.01332e-303
-1.09479e-302
5.78325e-302
-2.7194e-301
6.739e-302
-7.28233e-301
2.93506e-303
-1.10917e-300
-1.20377e-301
-1.41055e-300
-2.91289e-301
-1.64487e-300
-5.0356e-301
-1.82653e-300
-7.55469e-301
-1.96713e-300
-1.04823e-300
-2.07347e-300
-1.38437e-300
-2.14719e-300
-1.76649e-300
-2.18553e-300
-2.17168e-300
-2.18323e-300
-2.87359e-300
-2.13176e-300
-1.67921e-300
-2.08119e-300
-7.19845e-301
-7.06352e-301
-3.49173e-301
-2.87183e-301
-2.10995e-301
-1.53024e-301
-1.36811e-301
-9.03086e-302
-9.13594e-302
-5.53974e-302
-6.16395e-302
-3.44349e-302
-4.15271e-302
-2.14126e-302
-2.76177e-302
-1.31881e-302
-1.78158e-302
-7.92881e-303
-4.49369e-303
-1.07628e-302
2.72516e-301
-6.25317e-301
3.15546e-301
-1.20993e-300
2.29922e-301
-1.65511e-300
6.99413e-302
-1.99356e-300
-1.38376e-301
-2.25157e-300
-3.84825e-301
-2.45162e-300
-6.6833e-301
-2.61007e-300
-9.92443e-301
-2.73615e-300
-1.36199e-300
-2.83219e-300
-1.78052e-300
-2.89483e-300
-2.21805e-300
-2.91771e-300
-2.97715e-300
-2.89964e-300
-1.68342e-300
-1.76192e-300
-6.61107e-301
-6.16323e-301
-3.29947e-301
-2.71639e-301
-2.00049e-301
-1.5096e-301
-1.30067e-301
-9.11095e-302
-8.70267e-302
-5.66949e-302
-5.88033e-302
-3.56241e-302
-3.9656e-302
-2.23578e-302
-2.63878e-302
-1.38903e-302
-1.70236e-302
-8.42478e-303
-4.82188e-303
-1.02771e-302
8.06267e-301
-8.56442e-302
7.31407e-301
-5.48602e-301
5.52979e-301
-8.67327e-301
3.19526e-301
-1.10003e-300
5.62485e-302
-1.27415e-300
-2.30869e-301
-1.40775e-300
-5.46749e-301
-1.51301e-300
-9.01111e-301
-1.59642e-300
-1.30386e-300
-1.65875e-300
-1.76088e-300
-1.69463e-300
-2.26872e-300
-1.69081e-300
-1.88172e-300
-1.63031e-300
-8.97404e-301
-8.6482e-301
-4.4674e-301
-4.13593e-301
-2.67685e-301
-2.2796e-301
-1.7247e-301
-1.37389e-301
-1.15377e-301
-8.61378e-302
-7.84333e-302
-5.48404e-302
-5.35249e-302
-3.5023e-302
-3.63322e-302
-2.22654e-302
-2.42801e-302
-1.39864e-302
-1.57046e-302
-8.56902e-303
-4.95329e-303
-9.48885e-303
3.9888e-301
-3.07037e-301
2.84031e-301
-4.80757e-301
1.88401e-301
-5.75214e-301
9.04333e-302
-6.43436e-301
-1.01492e-302
-6.94261e-301
-1.17014e-301
-7.3167e-301
-2.34692e-301
-7.58435e-301
-3.67005e-301
-7.75849e-301
-5.13596e-301
-7.83023e-301
-6.61691e-301
-7.75355e-301
-7.58382e-301
-7.40544e-301
-6.48304e-301
-6.55958e-301
-4.27017e-301
-4.39183e-301
-2.87009e-301
-2.81714e-301
-1.97309e-301
-1.80453e-301
-1.37e-301
-1.17229e-301
-9.56353e-302
-7.67154e-302
-6.67529e-302
-5.02305e-302
-4.63516e-302
-3.27382e-302
-3.18367e-302
-2.1146e-302
-2.14484e-302
-1.34582e-302
-1.39456e-302
-8.33866e-303
-4.8687e-303
-8.44662e-303
4.796e-302
-2.00758e-301
2.64403e-302
-2.76117e-301
8.09454e-303
-3.10349e-301
-1.72636e-302
-3.38038e-301
-4.90076e-302
-3.59625e-301
-8.71163e-302
-3.75031e-301
-1.31722e-301
-3.84692e-301
-1.82065e-301
-3.89036e-301
-2.34705e-301
-3.88046e-301
-2.80883e-301
-3.80775e-301
-3.02682e-301
-3.64699e-301
-2.82639e-301
-3.33795e-301
-2.3444e-301
-2.66889e-301
-1.83802e-301
-1.95572e-301
-1.39206e-301
-1.37692e-301
-1.03063e-301
-9.51273e-302
-7.51137e-302
-6.48973e-302
-5.40139e-302
-4.37767e-302
-3.83042e-302
-2.91801e-302
-2.67095e-302
-1.91848e-302
-1.81887e-302
-1.23879e-302
-1.19118e-302
-7.76825e-303
-4.58099e-303
-7.24113e-303
-3.34501e-302
-1.10107e-301
-3.00844e-302
-1.65269e-301
-3.04207e-302
-1.91301e-301
-3.67784e-302
-2.09554e-301
-4.85212e-302
-2.22784e-301
-6.49613e-302
-2.31725e-301
-8.53998e-302
-2.36877e-301
-1.08586e-301
-2.38663e-301
-1.32029e-301
-2.37278e-301
-1.51423e-301
-2.32403e-301
-1.60862e-301
-2.22722e-301
-1.5671e-301
-2.04876e-301
-1.41137e-301
-1.73673e-301
-1.19393e-301
-1.36808e-301
-9.62365e-302
-1.02535e-301
-7.48365e-302
-7.43563e-302
-5.66326e-302
-5.26387e-302
-4.19035e-302
-3.65369e-302
-3.03658e-302
-2.49103e-302
-2.15224e-302
-1.66788e-302
-1.48345e-302
-1.09318e-302
-9.79629e-303
-6.93948e-303
-4.13149e-303
-5.98054e-303
-3.78657e-302
-5.90799e-302
-3.62979e-302
-9.95649e-302
-3.47375e-302
-1.21168e-301
-3.60573e-302
-1.35498e-301
-4.06669e-302
-1.45294e-301
-4.8261e-302
-1.51639e-301
-5.82772e-302
-1.55166e-301
-6.97829e-302
-1.56313e-301
-8.1284e-302
-1.553e-301
-9.06878e-302
-1.51969e-301
-9.56992e-302
-1.4554e-301
-9.49603e-302
-1.34416e-301
-8.86535e-302
-1.17092e-301
-7.8196e-302
-9.60809e-302
-6.56722e-302
-7.50852e-302
-5.29805e-302
-5.65023e-302
-4.13564e-302
-4.12615e-302
-3.13873e-302
-2.9385e-302
-2.32135e-302
-2.04641e-302
-1.67197e-302
-1.39454e-302
-1.16668e-302
-9.27476e-303
-7.77134e-303
-5.95782e-303
-3.57837e-303
-4.76471e-303
-2.89624e-302
-3.21751e-302
-2.98863e-302
-5.99991e-302
-2.93151e-302
-7.68322e-302
-2.96295e-302
-8.82698e-302
-3.15827e-302
-9.60435e-302
-3.52075e-302
-1.0105e-301
-4.02215e-302
-1.03868e-301
-4.60758e-302
-1.04891e-301
-5.19461e-302
-1.04317e-301
-5.67936e-302
-1.02074e-301
-5.95766e-302
-9.77303e-302
-5.95982e-302
-9.05557e-302
-5.66981e-302
-8.01082e-302
-5.13032e-302
-6.74174e-302
-4.43179e-302
-5.42258e-302
-3.67525e-302
-4.19651e-302
-2.94168e-302
-3.14327e-302
-2.28169e-302
-2.28874e-302
-1.71869e-302
-1.62463e-302
-1.2566e-302
-1.12528e-302
-8.87239e-303
-7.58714e-303
-5.95958e-303
-4.92797e-303
-2.98286e-303
-3.66805e-303
-1.97914e-302
-1.78009e-302
-2.16397e-302
-3.61338e-302
-2.19301e-302
-4.84622e-302
-2.22435e-302
-5.72774e-302
-2.32296e-302
-6.34313e-302
-2.50446e-302
-6.74828e-302
-2.75969e-302
-6.98528e-302
-3.06112e-302
-7.0843e-302
-3.36601e-302
-7.06147e-302
-3.62195e-302
-6.91496e-302
-3.77671e-302
-6.62348e-302
-3.7906e-302
-6.1555e-302
-3.6461e-302
-5.50014e-302
-3.355e-302
-4.70724e-302
-2.95689e-302
-3.86448e-302
-2.50403e-302
-3.05513e-302
-2.04497e-302
-2.33557e-302
-1.61548e-302
-1.73273e-302
-1.2365e-302
-1.25063e-302
-9.16348e-303
-8.78943e-303
-6.54057e-303
-6.0002e-303
-4.42731e-303
-3.93631e-303
-2.39822e-303
-2.73352e-303
-1.27848e-302
-9.95431e-303
-1.46406e-302
-2.17213e-302
-1.5299e-302
-3.03467e-302
-1.57195e-302
-3.68649e-302
-1.63438e-302
-4.15985e-302
-1.73263e-302
-4.48256e-302
-1.86642e-302
-4.68022e-302
-2.02383e-302
-4.77314e-302
-2.18401e-302
-4.77318e-302
-2.32049e-302
-4.68144e-302
-2.40582e-302
-4.48886e-302
-2.41696e-302
-4.18321e-302
-2.34073e-302
-3.7645e-302
-2.1789e-302
-3.26e-302
-1.94879e-302
-2.71665e-302
-1.67718e-302
-2.18304e-302
-1.39205e-302
-1.6964e-302
-1.11661e-302
-1.27824e-302
-8.66512e-303
-9.35853e-303
-6.49847e-303
-6.66148e-303
-4.68367e-303
-4.59769e-303
-3.19218e-303
-3.04271e-303
-1.86347e-303
-1.97533e-303
-7.95495e-303
-5.59982e-303
-9.46572e-303
-1.30131e-302
-1.01645e-302
-1.88446e-302
-1.06093e-302
-2.3487e-302
-1.10679e-302
-2.70032e-302
-1.1652e-302
-2.94943e-302
-1.23863e-302
-3.1091e-302
-1.3228e-302
-3.19139e-302
-1.40815e-302
-3.20419e-302
-1.48148e-302
-3.14966e-302
-1.52822e-302
-3.02489e-302
-1.53504e-302
-2.82628e-302
-1.49316e-302
-2.5571e-302
-1.40145e-302
-2.23357e-302
-1.26737e-302
-1.88219e-302
-1.10456e-302
-1.53168e-302
-9.28839e-303
-1.20589e-302
-7.54567e-303
-9.20352e-303
-5.92472e-303
-6.81991e-303
-4.4895e-303
-4.9079e-303
-3.26348e-303
-3.41974e-303
-2.23744e-303
-2.28012e-303
-1.40187e-303
-1.38626e-303
-4.80598e-303
-3.15768e-303
-5.9085e-303
-7.7561e-303
-6.49919e-303
-1.15921e-302
-6.89391e-303
-1.47922e-302
-7.24438e-303
-1.73162e-302
-7.62005e-303
-1.9173e-302
-8.04608e-303
-2.04141e-302
-8.51184e-303
-2.11017e-302
-8.97628e-303
-2.12833e-302
-9.3751e-303
-2.09796e-302
-9.63114e-303
-2.0189e-302
-9.66882e-303
-1.89109e-302
-9.43297e-303
-1.7183e-302
-8.90763e-303
-1.51071e-302
-8.12389e-303
-1.28391e-302
-7.1512e-303
-1.05513e-302
-6.07769e-303
-8.39433e-303
-4.98973e-303
-6.47419e-303
-3.957e-303
-4.84602e-303
-3.02526e-303
-3.51995e-303
-2.21543e-303
-2.4726e-303
-1.52646e-303
-1.65891e-303
-1.02259e-303
-9.45991e-304
-2.83108e-303
-1.77969e-303
-3.58032e-303
-4.59073e-303
-4.02311e-303
-7.05524e-303
-4.33456e-303
-9.19829e-303
-4.59692e-303
-1.09528e-302
-4.84918e-303
-1.22898e-302
-5.10928e-303
-1.32182e-302
-5.37747e-303
-1.37635e-302
-5.6374e-303
-1.39511e-302
-5.85843e-303
-1.37967e-302
-6.00028e-303
-1.33078e-302
-6.02078e-303
-1.24961e-302
-5.88669e-303
-1.13945e-302
-5.58474e-303
-1.0069e-302
-5.1273e-303
-8.61397e-303
-4.54958e-303
-7.13388e-303
-3.90029e-303
-5.72323e-303
-3.23034e-303
-4.45206e-303
-2.58337e-303
-3.36043e-303
-1.99017e-303
-2.46001e-303
-1.46668e-303
-1.73985e-303
-1.01467e-303
-1.17322e-303
-7.24209e-304
-6.28359e-304
-1.6308e-303
-1.00002e-303
-2.11374e-303
-2.69345e-303
-2.42042e-303
-4.24293e-303
-2.64622e-303
-5.64053e-303
-2.83438e-303
-6.82416e-303
-3.0052e-303
-7.75592e-303
-3.1694e-303
-8.42548e-303
-3.32951e-303
-8.83858e-303
-3.47953e-303
-9.00622e-303
-3.6051e-303
-8.93846e-303
-3.68544e-303
-8.64425e-303
-3.6974e-303
-8.13694e-303
-3.62156e-303
-7.4423e-303
-3.4486e-303
-6.60351e-303
-3.18306e-303
-5.67871e-303
-2.8428e-303
-4.73185e-303
-2.45457e-303
-3.8218e-303
-2.0479e-303
-2.99381e-303
-1.64942e-303
-2.27542e-303
-1.27894e-303
-1.67659e-303
-9.476e-304
-1.1925e-303
-6.57674e-304
-8.07351e-304
-4.98504e-304
-4.06592e-304
-9.2103e-304
-5.58992e-304
-1.21945e-303
-1.56379e-303
-1.41966e-303
-2.51795e-303
-1.57287e-303
-3.40687e-303
-1.70144e-303
-4.18315e-303
-1.81529e-303
-4.81271e-303
-1.9201e-303
-5.27945e-303
-2.01802e-303
-5.57985e-303
-2.10695e-303
-5.7168e-303
-2.18019e-303
-5.69575e-303
-2.22705e-303
-5.52394e-303
-2.23498e-303
-5.21267e-303
-2.19288e-303
-4.78072e-303
-2.09475e-303
-4.2563e-303
-1.94203e-303
-3.67557e-303
-1.74378e-303
-3.07778e-303
-1.51462e-303
-2.49939e-303
-1.27148e-303