/*--------------------------------*- C++ -*----------------------------------*\
| =========                 |                                                 |
| \\      /  F ield         | OpenFOAM: The Open Source CFD Toolbox           |
|  \\    /   O peration     | Version:  2406                                  |
|   \\  /    A nd           | Website:  www.openfoam.com                      |
|    \\/     M anipulation  |                                                 |
\*---------------------------------------------------------------------------*/
FoamFile
{
    version     2.0;
    format      ascii;
    arch        "LSB;label=32;scalar=64";
    class       volVectorField;
    location    "0.55";
    object      U;
}
// * * * * * * * * * * * * * * * * * * * * * * * * * * * * * * * * * * * * * //

dimensions      [0 1 -1 0 0 0 0];

internalField   nonuniform List<vector> 
2268
(
(-1.58583e-300 -4.65703e-301 0)
(-4.56564e-300 -2.01445e-300 0)
(-7.72821e-300 -2.62507e-300 0)
(-1.11349e-299 -2.66932e-300 0)
(-1.49146e-299 -2.04615e-300 0)
(-1.91304e-299 -4.73473e-301 0)
(-2.37575e-299 2.51848e-300 0)
(-2.86179e-299 7.65705e-300 0)
(-3.32172e-299 1.61204e-299 0)
(-3.6232e-299 2.99777e-299 0)
(-3.31158e-299 5.32995e-299 0)
(-4.86729e-300 9.01951e-299 0)
(1.79901e-298 1.60468e-298 0)
(-1.94146e-300 6.45378e-299 0)
(-8.21948e-299 1.25114e-299 0)
(-5.16372e-299 -7.66701e-300 0)
(-2.95188e-299 -8.46215e-300 0)
(-1.66539e-299 -5.79569e-300 0)
(-9.40042e-300 -3.20353e-300 0)
(-5.25639e-300 -1.41183e-300 0)
(-2.80832e-300 -3.53898e-301 0)
(-1.29744e-300 1.37865e-301 0)
(-2.44247e-301 1.448e-301 0)
(-4.94874e-300 -9.76213e-301 0)
(-1.41422e-299 -4.80356e-300 0)
(-2.36487e-299 -6.49147e-300 0)
(-3.39086e-299 -6.47005e-300 0)
(-4.52569e-299 -4.40121e-300 0)
(-5.78532e-299 5.3902e-301 0)
(-7.15962e-299 9.68235e-300 0)
(-8.59243e-299 2.50925e-299 0)
(-9.9372e-299 4.99565e-299 0)
(-1.08424e-298 8.9488e-299 0)
(-1.04154e-298 1.52844e-298 0)
(-6.05955e-299 2.58133e-298 0)
(7.06805e-299 4.23522e-298 0)
(-6.55222e-299 1.43147e-298 0)
(-1.09502e-298 2.15289e-299 0)
(-7.11953e-299 -4.32452e-300 0)
(-4.39387e-299 -7.66161e-300 0)
(-2.64761e-299 -5.81191e-300 0)
(-1.58256e-299 -3.33266e-300 0)
(-9.36394e-300 -1.40779e-300 0)
(-5.36924e-300 -1.58468e-301 0)
(-2.79087e-300 5.09554e-301 0)
(-7.96045e-301 5.44102e-301 0)
(-8.31483e-300 -1.65837e-300 0)
(-2.40298e-299 -7.41847e-300 0)
(-4.02877e-299 -1.01099e-299 0)
(-5.78415e-299 -9.98905e-300 0)
(-7.72725e-299 -6.42539e-300 0)
(-9.8898e-299 1.91781e-300 0)
(-1.2264e-298 1.72115e-299 0)
(-1.4775e-298 4.273e-299 0)
(-1.72241e-298 8.35066e-299 0)
(-1.91649e-298 1.47484e-298 0)
(-1.96341e-298 2.48293e-298 0)
(-1.63715e-298 4.12801e-298 0)
(-8.26472e-299 6.6038e-298 0)
(-1.32952e-298 1.98274e-298 0)
(-1.29206e-298 2.99589e-299 0)
(-8.56248e-299 -1.58043e-301 0)
(-5.50328e-299 -5.7131e-300 0)
(-3.45416e-299 -4.96967e-300 0)
(-2.14299e-299 -2.93482e-300 0)
(-1.31538e-299 -1.12634e-300 0)
(-7.88119e-300 1.57978e-301 0)
(-4.37933e-300 9.30709e-301 0)
(-1.52704e-300 1.01323e-300 0)
(-1.18651e-299 -2.39454e-300 0)
(-3.4609e-299 -9.99101e-300 0)
(-5.81793e-299 -1.36681e-299 0)
(-8.36355e-299 -1.34285e-299 0)
(-1.11835e-298 -8.34186e-300 0)
(-1.4331e-298 3.45718e-300 0)
(-1.78115e-298 2.48907e-299 0)
(-2.15515e-298 6.03852e-299 0)
(-2.53425e-298 1.1656e-298 0)
(-2.87349e-298 2.03754e-298 0)
(-3.08685e-298 3.39005e-298 0)
(-3.00401e-298 5.53678e-298 0)
(-2.66697e-298 8.59468e-298 0)
(-1.99441e-298 2.40913e-298 0)
(-1.5178e-298 3.90139e-299 0)
(-1.00994e-298 4.0077e-300 0)
(-6.63811e-299 -3.57252e-300 0)
(-4.28605e-299 -3.90048e-300 0)
(-2.73704e-299 -2.37342e-300 0)
(-1.73199e-299 -7.52784e-301 0)
(-1.07753e-299 5.20749e-301 0)
(-6.33668e-300 1.39566e-300 0)
(-2.55327e-300 1.59004e-300 0)
(-1.57526e-299 -3.18521e-300 0)
(-4.62311e-299 -1.26845e-299 0)
(-7.78523e-299 -1.73896e-299 0)
(-1.11993e-298 -1.70645e-299 0)
(-1.49811e-298 -1.04348e-299 0)
(-1.92112e-298 4.83967e-300 0)
(-2.39178e-298 3.24325e-299 0)
(-2.90469e-298 7.77509e-299 0)
(-3.44118e-298 1.48871e-298 0)
(-3.96123e-298 2.58031e-298 0)
(-4.39387e-298 4.24838e-298 0)
(-4.61234e-298 6.82206e-298 0)
(-4.71655e-298 1.03219e-297 0)
(-2.69331e-298 2.79027e-298 0)
(-1.79145e-298 4.82397e-299 0)
(-1.18787e-298 7.97697e-300 0)
(-7.9091e-299 -1.51086e-300 0)
(-5.21253e-299 -2.82247e-300 0)
(-3.40709e-299 -1.7919e-300 0)
(-2.21308e-299 -3.79041e-301 0)
(-1.42374e-299 8.62061e-301 0)
(-8.81909e-300 1.84226e-300 0)
(-3.99218e-300 2.22972e-300 0)
(-2.01106e-299 -4.05682e-300 0)
(-5.92341e-299 -1.56335e-299 0)
(-9.98365e-299 -2.1493e-299 0)
(-1.43619e-298 -2.11496e-299 0)
(-1.9207e-298 -1.30114e-299 0)
(-2.46311e-298 5.77208e-300 0)
(-3.0694e-298 3.95112e-299 0)
(-3.73744e-298 9.45635e-299 0)
(-4.45291e-298 1.80157e-298 0)
(-5.18317e-298 3.10134e-298 0)
(-5.87165e-298 5.05755e-298 0)
(-6.41785e-298 8.00504e-298 0)
(-6.93524e-298 1.18951e-297 0)
(-3.44898e-298 3.15461e-298 0)
(-2.11424e-298 5.74913e-299 0)
(-1.39475e-298 1.17689e-299 0)
(-9.36497e-299 4.20288e-301 0)
(-6.26944e-299 -1.8068e-300 0)
(-4.17682e-299 -1.25181e-300 0)
(-2.77405e-299 -5.92957e-302 0)
(-1.83786e-299 1.11785e-300 0)
(-1.19508e-299 2.17191e-300 0)
(-6.04449e-300 2.7774e-300 0)
(-2.50617e-299 -5.05235e-300 0)
(-7.3954e-299 -1.89774e-299 0)
(-1.24667e-298 -2.61855e-299 0)
(-1.79234e-298 -2.59726e-299 0)
(-2.39491e-298 -1.6377e-299 0)
(-3.06921e-298 5.8917e-300 0)
(-3.82491e-298 4.58063e-299 0)
(-4.66422e-298 1.10474e-298 0)
(-5.57839e-298 2.10176e-298 0)
(-6.54335e-298 3.59841e-298 0)
(-7.51543e-298 5.81891e-298 0)
(-8.41134e-298 9.10196e-298 0)
(-9.32427e-298 1.33855e-297 0)
(-4.2716e-298 3.51079e-298 0)
(-2.48289e-298 6.67889e-299 0)
(-1.63184e-298 1.5482e-299 0)
(-1.10308e-298 2.25585e-300 0)
(-7.47949e-299 -8.62463e-301 0)
(-5.06265e-299 -7.78568e-301 0)
(-3.42508e-299 1.70552e-301 0)
(-2.32516e-299 1.22455e-300 0)
(-1.57877e-299 2.23921e-300 0)
(-9.04388e-300 2.85188e-300 0)
(-3.07188e-299 -6.24022e-300 0)
(-9.0729e-299 -2.28452e-299 0)
(-1.52894e-298 -3.17064e-299 0)
(-2.19575e-298 -3.18279e-299 0)
(-2.9298e-298 -2.09118e-299 0)
(-3.74973e-298 4.83009e-300 0)
(-4.66941e-298 5.0903e-299 0)
(-5.69586e-298 1.25165e-298 0)
(-6.82675e-298 2.38627e-298 0)
(-8.04702e-298 4.07086e-298 0)
(-9.3259e-298 6.53458e-298 0)
(-1.06011e-297 1.01193e-297 0)
(-1.19165e-297 1.47829e-297 0)
(-5.16221e-298 3.84958e-298 0)
(-2.8905e-298 7.61727e-299 0)
(-1.89671e-298 1.92555e-299 0)
(-1.29026e-298 4.07527e-300 0)
(-8.84482e-299 3.89044e-302 0)
(-6.06619e-299 -3.71693e-301 0)
(-4.164e-299 2.93992e-301 0)
(-2.87598e-299 1.13565e-300 0)
(-2.01188e-299 1.85132e-300 0)
(-1.35555e-299 1.67339e-300 0)
(-1.79778e-304 -5.39909e-304 0)
(-1.09734e-303 -4.09994e-303 0)
(-5.53686e-304 -3.65786e-303 0)
(-5.57281e-304 -1.92245e-303 0)
(-6.05263e-304 -7.76297e-304 0)
(-5.0618e-304 -2.57572e-304 0)
(-3.44109e-304 -6.76021e-305 0)
(-2.02478e-304 -9.73345e-306 0)
(-1.07243e-304 3.56988e-306 0)
(-5.23202e-305 4.43172e-306 0)
(-2.38226e-305 2.92389e-306 0)
(-1.01912e-305 1.58969e-306 0)
(-4.10304e-306 7.78165e-307 0)
(-1.54966e-306 3.5248e-307 0)
(-5.43746e-307 1.48348e-307 0)
(-1.73536e-307 5.73755e-308 0)
(-4.80092e-308 1.97302e-308 0)
(-9.97531e-309 5.33776e-309 0)
(-6.05031e-310 5.55344e-310 0)
(-1.18422e-304 -2.48026e-303 0)
(-2.69494e-303 -1.03388e-302 0)
(-2.42094e-303 -8.1882e-303 0)
(-2.395e-303 -4.17004e-303 0)
(-2.06173e-303 -1.65e-303 0)
(-1.49919e-303 -5.19173e-304 0)
(-9.51005e-304 -1.09831e-304 0)
(-5.43368e-304 7.37633e-306 0)
(-2.85949e-304 2.67894e-305 0)
(-1.40591e-304 2.09934e-305 0)
(-6.51311e-305 1.25714e-305 0)
(-2.85511e-305 6.62448e-306 0)
(-1.18503e-305 3.21376e-306 0)
(-4.64198e-306 1.45988e-306 0)
(-1.70151e-306 6.23154e-307 0)
(-5.7313e-307 2.48394e-307 0)
(-1.70298e-307 9.06046e-308 0)
(-3.95804e-308 2.80531e-308 0)
(-2.87331e-309 4.35691e-309 0)
(-2.40882e-304 -6.87733e-303 0)
(-5.67498e-303 -1.99819e-302 0)
(-6.07022e-303 -1.41907e-302 0)
(-5.72486e-303 -6.8736e-303 0)
(-4.48882e-303 -2.62895e-303 0)
(-3.04495e-303 -7.85937e-304 0)
(-1.85119e-303 -1.35183e-304 0)
(-1.03403e-303 4.14318e-305 0)
(-5.39342e-304 6.22034e-305 0)
(-2.65363e-304 4.51883e-305 0)
(-1.23888e-304 2.66026e-305 0)
(-5.50318e-305 1.40207e-305 0)
(-2.32559e-305 6.85632e-306 0)
(-9.31851e-306 3.15619e-306 0)
(-3.51266e-306 1.37304e-306 0)
(-1.22573e-306 5.62502e-307 0)
(-3.81975e-307 2.14113e-307 0)
(-9.5628e-308 7.16178e-308 0)
(-8.57537e-309 1.35646e-308 0)
(-1.73398e-303 -1.75139e-302 0)
(-1.22386e-302 -3.67444e-302 0)
(-1.35479e-302 -2.32843e-302 0)
(-1.19408e-302 -1.0619e-302 0)
(-8.73307e-303 -3.89945e-303 0)
(-5.62923e-303 -1.10579e-303 0)
(-3.31187e-303 -1.48697e-304 0)
(-1.8158e-303 9.779e-305 0)
(-9.39413e-304 1.15699e-304 0)
(-4.62018e-304 8.1212e-305 0)
(-2.16894e-304 4.75697e-305 0)
(-9.73422e-305 2.52001e-305 0)
(-4.17342e-305 1.24511e-305 0)
(-1.70343e-305 5.81371e-306 0)
(-6.57032e-306 2.57637e-306 0)
(-2.35995e-306 1.08197e-306 0)
(-7.64431e-307 4.26976e-307 0)
(-2.03019e-307 1.51746e-307 0)
(-2.14891e-308 3.3155e-308 0)
(-8.73286e-303 -4.3083e-302 0)
(-2.68707e-302 -6.55029e-302 0)
(-2.85474e-302 -3.69223e-302 0)
(-2.32632e-302 -1.58161e-302 0)
(-1.60151e-302 -5.58e-303 0)
(-9.90589e-303 -1.50915e-303 0)
(-5.67912e-303 -1.53243e-304 0)
(-3.06922e-303 1.8091e-304 0)
(-1.57854e-303 1.9234e-304 0)
(-7.76728e-304 1.32909e-304 0)
(-3.66623e-304 7.79681e-305 0)
(-1.66109e-304 4.16405e-305 0)
(-7.21516e-305 2.08184e-305 0)
(-2.99391e-305 9.86482e-306 0)
(-1.17847e-305 4.45137e-306 0)
(-4.34145e-306 1.91298e-306 0)
(-1.45416e-306 7.79415e-307 0)
(-4.06123e-307 2.91533e-307 0)
(-4.92104e-308 7.16855e-308 0)
(-3.48175e-302 -1.04616e-301 0)
(-5.94236e-302 -1.1269e-301 0)
(-5.74814e-302 -5.63636e-302 0)
(-4.30598e-302 -2.2741e-302 0)
(-2.80588e-302 -7.75317e-303 0)
(-1.67671e-302 -2.02118e-303 0)
(-9.41891e-303 -1.5242e-304 0)
(-5.03717e-303 2.9431e-304 0)
(-2.58189e-303 2.96798e-304 0)
(-1.27283e-303 2.04092e-304 0)
(-6.04408e-304 1.20399e-304 0)
(-2.76427e-304 6.49445e-305 0)
(-1.21565e-304 3.28781e-305 0)
(-5.12208e-305 1.58098e-305 0)
(-2.05393e-305 7.25836e-306 0)
(-7.74165e-306 3.18634e-306 0)
(-2.67182e-306 1.33567e-306 0)
(-7.80208e-307 5.22031e-307 0)
(-1.06455e-307 1.42657e-307 0)
(-1.20969e-301 -2.4797e-301 0)
(-1.31375e-301 -1.84548e-301 0)
(-1.10966e-301 -8.22155e-302 0)
(-7.62383e-302 -3.15191e-302 0)
(-4.72787e-302 -1.04897e-302 0)
(-2.74611e-302 -2.67352e-303 0)
(-1.51909e-302 -1.54235e-304 0)
(-8.06888e-303 4.39974e-304 0)
(-4.13237e-303 4.33661e-304 0)
(-2.04445e-303 2.98969e-304 0)
(-9.77604e-304 1.77902e-304 0)
(-4.51506e-304 9.70513e-305 0)
(-2.01017e-304 4.97715e-305 0)
(-8.59565e-305 2.42805e-305 0)
(-3.50774e-305 1.13305e-305 0)
(-1.35046e-305 5.07066e-306 0)
(-4.78926e-306 2.17814e-306 0)
(-1.45459e-306 8.81387e-307 0)
(-2.209e-307 2.62097e-307 0)
(-3.68271e-301 -6.01495e-301 0)
(-2.86633e-301 -2.79595e-301 0)
(-2.02279e-301 -1.12952e-301 0)
(-1.28133e-301 -4.19285e-302 0)
(-7.62163e-302 -1.38226e-302 0)
(-4.33089e-302 -3.50772e-303 0)
(-2.37028e-302 -1.80208e-304 0)
(-1.25444e-302 6.09992e-304 0)
(-6.43202e-303 6.01387e-304 0)
(-3.1971e-303 4.18264e-304 0)
(-1.5401e-303 2.5164e-304 0)
(-7.18161e-304 1.38932e-304 0)
(-3.2346e-304 7.21535e-305 0)
(-1.40196e-304 3.56696e-305 0)
(-5.81156e-305 1.68841e-305 0)
(-2.27937e-305 7.67697e-306 0)
(-8.27488e-306 3.35896e-306 0)
(-2.59913e-306 1.38971e-306 0)
(-4.39711e-307 4.36184e-307 0)
(-4.05689e-299 -8.47105e-300 0)
(-1.19938e-298 -2.97912e-299 0)
(-2.0196e-298 -4.17924e-299 0)
(-2.89524e-298 -4.29302e-299 0)
(-3.85436e-298 -3.0273e-299 0)
(-4.922e-298 6.38915e-301 0)
(-6.11898e-298 5.61882e-299 0)
(-7.46053e-298 1.45109e-298 0)
(-8.95474e-298 2.79428e-298 0)
(-1.0601e-297 4.7561e-298 0)
(-1.2389e-297 7.56681e-298 0)
(-1.42941e-297 1.15448e-297 0)
(-1.63296e-297 1.65296e-297 0)
(-6.63232e-298 4.32065e-298 0)
(-3.56501e-298 9.1077e-299 0)
(-2.3375e-298 2.55559e-299 0)
(-1.60312e-298 7.14181e-300 0)
(-1.11322e-298 1.55054e-300 0)
(-7.74841e-299 2.74023e-301 0)
(-5.39599e-299 3.97646e-301 0)
(-3.76933e-299 7.61114e-301 0)
(-2.6503e-299 7.5723e-301 0)
(-1.8584e-299 -2.47095e-301 0)
(-5.46909e-299 -1.22629e-299 0)
(-1.61746e-298 -4.11854e-299 0)
(-2.72204e-298 -5.90409e-299 0)
(-3.8978e-298 -6.34201e-299 0)
(-5.18207e-298 -5.06227e-299 0)
(-6.6097e-298 -1.53173e-299 0)
(-8.21218e-298 4.96745e-299 0)
(-1.00168e-297 1.53923e-298 0)
(-1.20458e-297 3.09873e-298 0)
(-1.43159e-297 5.33818e-298 0)
(-1.68381e-297 8.46886e-298 0)
(-1.96191e-297 1.27559e-297 0)
(-2.26459e-297 1.79233e-297 0)
(-8.75778e-298 4.75164e-298 0)
(-4.52868e-298 1.077e-298 0)
(-2.94759e-298 3.33261e-299 0)
(-2.02515e-298 1.11836e-299 0)
(-1.41508e-298 3.62407e-300 0)
(-9.92137e-299 1.15521e-300 0)
(-6.94155e-299 4.86023e-301 0)
(-4.82815e-299 2.62477e-301 0)
(-3.30951e-299 -1.54017e-301 0)
(-2.16662e-299 -1.07659e-300 0)
(-6.95516e-299 -1.72537e-299 0)
(-2.05354e-298 -5.61932e-299 0)
(-3.45275e-298 -8.2433e-299 0)
(-4.93953e-298 -9.27952e-299 0)
(-6.56126e-298 -8.27911e-299 0)
(-8.36317e-298 -4.64165e-299 0)
(-1.03876e-297 2.42039e-299 0)
(-1.26731e-297 1.39011e-298 0)
(-1.5254e-297 3.10529e-298 0)
(-1.81601e-297 5.54087e-298 0)
(-2.14155e-297 8.88413e-298 0)
(-2.50424e-297 1.33446e-297 0)
(-2.90017e-297 1.8567e-297 0)
(-1.09686e-297 4.99085e-298 0)
(-5.5422e-298 1.18459e-298 0)
(-3.57409e-298 3.86167e-299 0)
(-2.44827e-298 1.40397e-299 0)
(-1.71093e-298 5.11818e-300 0)
(-1.20056e-298 1.784e-300 0)
(-8.39167e-299 5.44589e-301 0)
(-5.80072e-299 -2.43101e-302 0)
(-3.9146e-299 -5.23354e-301 0)
(-2.49918e-299 -1.10248e-300 0)
(-8.52705e-299 -2.40291e-299 0)
(-2.50967e-298 -7.66004e-299 0)
(-4.21374e-298 -1.14873e-298 0)
(-6.02123e-298 -1.34875e-298 0)
(-7.99025e-298 -1.31433e-298 0)
(-1.01767e-297 -9.78325e-299 0)
(-1.26334e-297 -2.57361e-299 0)
(-1.54092e-297 9.51467e-299 0)
(-1.85483e-297 2.77069e-298 0)
(-2.20894e-297 5.3447e-298 0)
(-2.60645e-297 8.83708e-298 0)
(-3.05028e-297 1.34157e-297 0)
(-3.53497e-297 1.86753e-297 0)
(-1.32519e-297 5.08493e-298 0)
(-6.60637e-298 1.23525e-298 0)
(-4.22354e-298 4.10261e-299 0)
(-2.87984e-298 1.53206e-299 0)
(-2.00764e-298 5.77102e-300 0)
(-1.40637e-298 2.02814e-300 0)
(-9.80728e-299 5.31374e-301 0)
(-6.74981e-299 -1.45957e-301 0)
(-4.52327e-299 -5.74611e-301 0)
(-2.86861e-299 -8.88162e-301 0)
(-1.01935e-298 -3.32493e-299 0)
(-2.98735e-298 -1.04398e-298 0)
(-5.00661e-298 -1.59555e-298 0)
(-7.144e-298 -1.93989e-298 0)
(-9.46916e-298 -2.01737e-298 0)
(-1.20489e-297 -1.75484e-298 0)
(-1.49465e-297 -1.06313e-298 0)
(-1.82202e-297 1.62503e-299 0)
(-2.19222e-297 2.04423e-298 0)
(-2.60982e-297 4.71807e-298 0)
(-3.07854e-297 8.33263e-298 0)
(-3.60169e-297 1.30269e-297 0)
(-4.17318e-297 1.83684e-297 0)
(-1.56112e-297 5.06048e-298 0)
(-7.71983e-298 1.23159e-298 0)
(-4.89841e-298 4.0377e-299 0)
(-3.32386e-298 1.47784e-299 0)
(-2.30959e-298 5.36526e-300 0)
(-1.6138e-298 1.71949e-300 0)
(-1.12265e-298 3.05627e-301 0)
(-7.70514e-299 -2.6392e-301 0)
(-5.14856e-299 -5.32549e-301 0)
(-3.26176e-299 -6.50401e-301 0)
(-1.19621e-298 -4.56821e-299 0)
(-3.48769e-298 -1.41836e-298 0)
(-5.83252e-298 -2.20176e-298 0)
(-8.30909e-298 -2.75062e-298 0)
(-1.09995e-297 -2.99758e-298 0)
(-1.39824e-297 -2.86164e-298 0)
(-1.73313e-297 -2.24865e-298 0)
(-2.11138e-297 -1.04919e-298 0)
(-2.53895e-297 8.58866e-299 0)
(-3.02099e-297 3.60972e-298 0)
(-3.56166e-297 7.34322e-298 0)
(-4.16456e-297 1.21859e-297 0)
(-4.82352e-297 1.76886e-297 0)
(-1.80624e-297 4.92238e-298 0)
(-8.88344e-298 1.17075e-298 0)
(-5.59999e-298 3.63075e-299 0)
(-3.78237e-298 1.20834e-299 0)
(-2.61917e-298 3.62489e-300 0)
(-1.82521e-298 6.30683e-301 0)
(-1.26686e-298 -3.29647e-301 0)
(-8.67834e-299 -5.64285e-301 0)
(-5.79125e-299 -5.69488e-301 0)
(-3.66998e-299 -4.90168e-301 0)
(-1.38377e-298 -6.22185e-299 0)
(-4.01066e-298 -1.91559e-298 0)
(-6.69107e-298 -3.01003e-298 0)
(-9.51607e-298 -3.83909e-298 0)
(-1.2582e-297 -4.32525e-298 0)
(-1.59803e-297 -4.37983e-298 0)
(-1.9796e-297 -3.90082e-298 0)
(-2.41057e-297 -2.77425e-298 0)
(-2.89768e-297 -8.72799e-299 0)
(-3.4466e-297 1.93912e-298 0)
(-4.06193e-297 5.80366e-298 0)
(-4.74755e-297 1.08455e-297 0)
(-5.49746e-297 1.66104e-297 0)
(-2.0631e-297 4.65277e-298 0)
(-1.01009e-297 1.04138e-298 0)
(-6.32959e-298 2.80408e-299 0)
(-4.2564e-298 6.67893e-300 0)
(-2.93751e-298 1.39872e-301 0)
(-2.04165e-298 -1.54871e-300 0)
(-1.41416e-298 -1.61778e-300 0)
(-9.6726e-299 -1.24163e-300 0)
(-6.4495e-299 -8.29972e-301 0)
(-4.08864e-299 -4.81588e-301 0)
(-1.58176e-298 -8.39289e-299 0)
(-4.55381e-298 -2.5666e-298 0)
(-7.57783e-298 -4.07117e-298 0)
(-1.07598e-297 -5.2732e-298 0)
(-1.42125e-297 -6.08415e-298 0)
(-1.80421e-297 -6.4046e-298 0)
(-2.23463e-297 -6.12513e-298 0)
(-2.7212e-297 -5.1232e-298 0)
(-3.2714e-297 -3.26529e-298 0)
(-3.8915e-297 -4.06438e-299 0)
(-4.58649e-297 3.60393e-298 0)
(-5.36057e-297 8.90348e-298 0)
(-6.20781e-297 1.50384e-297 0)
(-2.33486e-297 4.20925e-298 0)
(-1.13777e-297 8.21871e-299 0)
(-7.08839e-298 1.42556e-299 0)
(-4.74619e-298 -2.2998e-300 0)
(-3.2647e-298 -5.67581e-300 0)
(-2.26321e-298 -5.22644e-300 0)
(-1.56455e-298 -3.84884e-300 0)
(-1.06865e-298 -2.5026e-300 0)
(-7.12042e-299 -1.45173e-300 0)
(-4.51469e-299 -6.97854e-301 0)
(-1.78858e-298 -1.12094e-298 0)
(-5.11e-298 -3.40867e-298 0)
(-8.48098e-298 -5.44513e-298 0)
(-1.20253e-297 -7.13427e-298 0)
(-1.58758e-297 -8.37246e-298 0)
(-2.0156e-297 -9.04968e-298 0)
(-2.4978e-297 -9.04602e-298 0)
(-3.04397e-297 -8.23135e-298 0)
(-3.66246e-297 -6.4607e-298 0)
(-4.36007e-297 -3.57735e-298 0)
(-5.14225e-297 5.88544e-299 0)
(-6.01348e-297 6.19682e-298 0)
(-6.96763e-297 1.28059e-297 0)
(-2.62491e-297 3.52158e-298 0)
(-1.2719e-297 4.78718e-299 0)
(-7.87668e-298 -6.99086e-300 0)
(-5.25089e-298 -1.60611e-299 0)
(-3.59984e-298 -1.45953e-299 0)
(-2.48917e-298 -1.09062e-299 0)
(-1.71746e-298 -7.35565e-300 0)
(-1.17152e-298 -4.56678e-300 0)
(-7.79989e-299 -2.57339e-300 0)
(-4.94512e-299 -1.21594e-300 0)
(-2.00025e-298 -1.48302e-298 0)
(-5.66438e-298 -4.4866e-298 0)
(-9.37597e-298 -7.20473e-298 0)
(-1.32815e-297 -9.51846e-298 0)
(-1.75381e-297 -1.13073e-297 0)
(-2.22902e-297 -1.24474e-297 0)
(-2.76662e-297 -1.28109e-297 0)
(-3.37765e-297 -1.22575e-297 0)
(-4.07128e-297 -1.06322e-297 0)
(-4.85495e-297 -7.75986e-298 0)
(-5.73449e-297 -3.44738e-298 0)
(-6.71473e-297 2.50206e-298 0)
(-7.78856e-297 9.66689e-298 0)
(-2.9363e-297 2.48742e-298 0)
(-1.41273e-297 -3.48203e-300 0)
(-8.69261e-298 -3.82908e-299 0)
(-5.76814e-298 -3.61423e-299 0)
(-3.94092e-298 -2.75515e-299 0)
(-2.718e-298 -1.91617e-299 0)
(-1.87176e-298 -1.24948e-299 0)
(-1.27504e-298 -7.65653e-300 0)
(-8.48203e-299 -4.3304e-300 0)
(-5.37608e-299 -2.11249e-300 0)
(-2.20909e-298 -1.94531e-298 0)
(-6.18967e-298 -5.85624e-298 0)
(-1.02187e-297 -9.4381e-298 0)
(-1.44718e-297 -1.25423e-297 0)
(-1.91368e-297 -1.50258e-297 0)
(-2.43823e-297 -1.67533e-297 0)
(-3.03549e-297 -1.75883e-297 0)
(-3.71774e-297 -1.7386e-297 0)
(-4.49509e-297 -1.59796e-297 0)
(-5.37547e-297 -1.3177e-297 0)
(-6.3652e-297 -8.7534e-298 0)
(-7.4694e-297 -2.46797e-298 0)
(-8.67897e-297 5.29371e-298 0)
(-3.27093e-297 9.68017e-299 0)
(-1.55991e-297 -7.79293e-299 0)
(-9.53076e-298 -8.2819e-299 0)
(-6.29338e-298 -6.43151e-299 0)
(-4.28459e-298 -4.55528e-299 0)
(-2.94731e-298 -3.05736e-299 0)
(-2.02577e-298 -1.96055e-299 0)
(-1.37803e-298 -1.19724e-299 0)
(-9.15865e-299 -6.84113e-300 0)
(-5.80223e-299 -3.45482e-300 0)
(-2.40159e-298 -2.53378e-298 0)
(-6.6395e-298 -7.58792e-298 0)
(-1.09348e-297 -1.22557e-297 0)
(-1.55026e-297 -1.6346e-297 0)
(-2.05681e-297 -1.96912e-297 0)
(-2.6327e-297 -2.21446e-297 0)
(-3.29437e-297 -2.35704e-297 0)
(-4.05535e-297 -2.38218e-297 0)
(-4.92642e-297 -2.27285e-297 0)
(-5.91616e-297 -2.00798e-297 0)
(-7.03116e-297 -1.56209e-297 0)
(-8.27714e-297 -9.05572e-298 0)
(-9.64125e-297 -7.24629e-299 0)
(-3.62847e-297 -1.21325e-298 0)
(-1.71206e-297 -1.82729e-298 0)
(-1.03807e-297 -1.44074e-298 0)
(-6.81935e-298 -1.02357e-298 0)
(-4.6259e-298 -6.95138e-299 0)
(-3.17373e-298 -4.56175e-299 0)
(-2.17712e-298 -2.89407e-299 0)
(-1.47883e-298 -1.76537e-299 0)
(-9.81823e-299 -1.01849e-299 0)
(-6.21602e-299 -5.28853e-300 0)
(-2.55516e-298 -3.28376e-298 0)
(-6.9369e-298 -9.77482e-298 0)
(-1.14048e-297 -1.57976e-297 0)
(-1.62266e-297 -2.11032e-297 0)
(-2.16718e-297 -2.54952e-297 0)
(-2.79622e-297 -2.88256e-297 0)
(-3.52768e-297 -3.09677e-297 0)
(-4.37579e-297 -3.17886e-297 0)
(-5.35191e-297 -3.11194e-297 0)
(-6.46497e-297 -2.8741e-297 0)
(-7.72205e-297 -2.43673e-297 0)
(-9.1295e-297 -1.76494e-297 0)
(-1.0669e-296 -8.86736e-298 0)
(-4.00502e-297 -4.26595e-298 0)
(-1.86642e-297 -3.25657e-298 0)
(-1.12254e-297 -2.25276e-298 0)
(-7.33546e-298 -1.51613e-298 0)
(-4.95797e-298 -9.99726e-299 0)
(-3.39255e-298 -6.44956e-299 0)
(-2.32252e-298 -4.05724e-299 0)
(-1.57509e-298 -2.4727e-299 0)
(-1.04443e-298 -1.43745e-299 0)
(-6.60649e-299 -7.62323e-300 0)
(-2.63161e-298 -4.24743e-298 0)
(-6.95412e-298 -1.25444e-297 0)
(-1.14375e-297 -2.02484e-297 0)
(-1.64193e-297 -2.70292e-297 0)
(-2.22131e-297 -3.26659e-297 0)
(-2.90571e-297 -3.70237e-297 0)
(-3.71322e-297 -4.00094e-297 0)
(-4.65795e-297 -4.15184e-297 0)
(-5.75118e-297 -4.14016e-297 0)
(-7.00223e-297 -3.9437e-297 0)
(-8.41861e-297 -3.53209e-297 0)
(-1.00079e-296 -2.86546e-297 0)
(-1.17438e-296 -1.96581e-297 0)
(-4.39129e-297 -8.4139e-298 0)
(-2.01833e-297 -5.13363e-298 0)
(-1.20399e-297 -3.28198e-298 0)
(-7.82681e-298 -2.12275e-298 0)
(-5.2711e-298 -1.36686e-298 0)
(-3.59704e-298 -8.69215e-299 0)
(-2.45713e-298 -5.42812e-299 0)
(-1.66333e-298 -3.30504e-299 0)
(-1.10125e-298 -1.93283e-299 0)
(-6.95746e-299 -1.04181e-299 0)
(-2.56237e-298 -5.50866e-298 0)
(-6.47112e-298 -1.6082e-297 0)
(-1.07272e-297 -2.58569e-297 0)
(-1.5745e-297 -3.43967e-297 0)
(-2.18622e-297 -4.14701e-297 0)
(-2.93012e-297 -4.69921e-297 0)
(-3.82196e-297 -5.09327e-297 0)
(-4.87401e-297 -5.32459e-297 0)
(-6.09691e-297 -5.38151e-297 0)
(-7.50012e-297 -5.24342e-297 0)
(-9.09199e-297 -4.87909e-297 0)
(-1.08816e-296 -4.24624e-297 0)
(-1.28334e-296 -3.36124e-297 0)
(-4.77011e-297 -1.38516e-297 0)
(-2.16049e-297 -7.48046e-298 0)
(-1.27879e-297 -4.51216e-298 0)
(-8.27161e-298 -2.82376e-298 0)
(-5.55064e-298 -1.78145e-298 0)
(-3.77678e-298 -1.119e-298 0)
(-2.57344e-298 -6.9458e-299 0)
(-1.73822e-298 -4.22682e-299 0)
(-1.14863e-298 -2.48474e-299 0)
(-7.24533e-299 -1.357e-299 0)
(-2.20444e-298 -7.21758e-298 0)
(-5.08577e-298 -2.06688e-297 0)
(-8.77308e-298 -3.29679e-297 0)
(-1.37095e-297 -4.35479e-297 0)
(-2.01749e-297 -5.22173e-297 0)
(-2.83049e-297 -5.89983e-297 0)
(-3.81874e-297 -6.39768e-297 0)
(-4.99074e-297 -6.71916e-297 0)
(-6.35575e-297 -6.85822e-297 0)
(-7.92376e-297 -6.79646e-297 0)
(-9.70415e-297 -6.50419e-297 0)
(-1.17086e-296 -5.93965e-297 0)
(-1.38906e-296 -5.11741e-297 0)
(-5.1109e-297 -2.06506e-297 0)
(-2.28132e-297 -1.02133e-297 0)
(-1.34125e-297 -5.86466e-298 0)
(-8.63481e-298 -3.56633e-298 0)
(-5.77257e-298 -2.21158e-298 0)
(-3.91489e-298 -1.37588e-298 0)
(-2.65973e-298 -8.50586e-299 0)
(-1.79182e-298 -5.17942e-299 0)
(-1.18136e-298 -3.06071e-299 0)
(-7.43753e-299 -1.69067e-299 0)
(-1.18453e-298 -9.65762e-298 0)
(-2.00277e-298 -2.67485e-297 0)
(-4.73974e-298 -4.20574e-297 0)
(-9.60101e-298 -5.49045e-297 0)
(-1.65893e-297 -6.52463e-297 0)
(-2.56193e-297 -7.33128e-297 0)
(-3.66525e-297 -7.93618e-297 0)
(-4.97211e-297 -8.35531e-297 0)
(-6.49127e-297 -8.58882e-297 0)
(-8.23391e-297 -8.62157e-297 0)
(-1.02112e-296 -8.42592e-297 0)
(-1.24372e-296 -7.96625e-297 0)
(-1.48564e-296 -7.26191e-297 0)
(-5.35362e-297 -2.8546e-297 0)
(-2.36117e-297 -1.30371e-297 0)
(-1.38159e-297 -7.1649e-298 0)
(-8.85527e-298 -4.25674e-298 0)
(-5.89637e-298 -2.60794e-298 0)
(-3.98462e-298 -1.61363e-298 0)
(-2.69868e-298 -9.96584e-299 0)
(-1.81316e-298 -6.08388e-299 0)
(-1.19266e-298 -3.61661e-299 0)
(-7.49371e-299 -2.01875e-299 0)
(1.74267e-298 -1.33471e-297 0)
(4.46506e-298 -3.50063e-297 0)
(2.76857e-298 -5.37489e-297 0)
(-2.45352e-298 -6.89366e-297 0)
(-1.04678e-297 -8.08921e-297 0)
(-2.07991e-297 -9.01725e-297 0)
(-3.32529e-297 -9.72712e-297 0)
(-4.7839e-297 -1.02483e-296 0)
(-6.46775e-297 -1.05877e-296 0)
(-8.39208e-297 -1.07313e-296 0)
(-1.05694e-296 -1.06535e-296 0)
(-1.30134e-296 -1.03286e-296 0)
(-1.56673e-296 -9.79446e-297 0)
(-5.36091e-297 -3.63733e-297 0)
(-2.36589e-297 -1.52899e-297 0)
(-1.38212e-297 -8.12431e-298 0)
(-8.82698e-298 -4.76762e-298 0)
(-5.85829e-298 -2.91075e-298 0)
(-3.94822e-298 -1.80202e-298 0)
(-2.66815e-298 -1.1163e-298 0)
(-1.78936e-298 -6.84858e-299 0)
(-1.17512e-298 -4.09985e-299 0)
(-7.37227e-299 -2.31163e-299 0)
(1.12576e-297 -1.82417e-297 0)
(1.79942e-297 -4.64612e-297 0)
(1.58764e-297 -6.88223e-297 0)
(8.80332e-298 -8.61534e-297 0)
(-1.29584e-298 -9.94804e-297 0)
(-1.35575e-297 -1.09802e-296 0)
(-2.77495e-297 -1.17874e-296 0)
(-4.39889e-297 -1.24136e-296 0)
(-6.25398e-297 -1.28696e-296 0)
(-8.36557e-297 -1.31396e-296 0)
(-1.07465e-296 -1.31928e-296 0)
(-1.33942e-296 -1.30109e-296 0)
(-1.62482e-296 -1.26617e-296 0)
(-4.86352e-297 -3.98422e-297 0)
(-2.23279e-297 -1.56972e-297 0)
(-1.30885e-297 -8.38705e-298 0)
(-8.38465e-298 -4.9767e-298 0)
(-5.57669e-298 -3.06664e-298 0)
(-3.76475e-298 -1.91351e-298 0)
(-2.54719e-298 -1.19413e-298 0)
(-1.70948e-298 -7.38141e-299 0)
(-1.12298e-298 -4.45535e-299 0)
(-7.04328e-299 -2.53707e-299 0)
(4.34896e-297 -2.66253e-297 0)
(4.30549e-297 -6.08408e-297 0)
(3.54541e-297 -8.65143e-297 0)
(2.39025e-297 -1.05703e-296 0)
(1.03954e-297 -1.20215e-296 0)
(-4.35766e-298 -1.31479e-296 0)
(-2.04238e-297 -1.40503e-296 0)
(-3.82641e-297 -1.47845e-296 0)
(-5.84609e-297 -1.53648e-296 0)
(-8.14954e-297 -1.57706e-296 0)
(-1.07517e-296 -1.59637e-296 0)
(-1.36007e-296 -1.59013e-296 0)
(-6.59765e-297 -6.34946e-297 0)
(-3.03506e-297 -2.66591e-297 0)
(-1.76023e-297 -1.36127e-297 0)
(-1.11309e-297 -7.9016e-298 0)
(-7.38192e-298 -4.85403e-298 0)
(-5.00264e-298 -3.05075e-298 0)
(-3.41638e-298 -1.93034e-298 0)
(-2.32898e-298 -1.21828e-298 0)
(-1.57091e-298 -7.60626e-299 0)
(-1.03531e-298 -4.63501e-299 0)
(-6.50416e-299 -2.66575e-299 0)
(2.50535e-297 -1.9212e-297 0)
(1.77623e-297 -3.32099e-297 0)
(1.27256e-297 -4.12248e-297 0)
(7.49737e-298 -4.6713e-297 0)
(2.20972e-298 -5.07043e-297 0)
(-3.29913e-298 -5.36566e-297 0)
(-9.26113e-298 -5.58429e-297 0)
(-1.59306e-297 -5.7378e-297 0)
(-2.34636e-297 -5.8177e-297 0)
(-3.16657e-297 -5.7822e-297 0)
(-3.93601e-297 -5.51698e-297 0)
(-4.20444e-297 -4.81833e-297 0)
(-2.75444e-297 -2.98196e-297 0)
(-1.82914e-297 -1.79676e-297 0)
(-1.2516e-297 -1.09842e-297 0)
(-8.66305e-298 -6.9227e-298 0)
(-6.04248e-298 -4.44024e-298 0)
(-4.223e-298 -2.86654e-298 0)
(-2.94225e-298 -1.84866e-298 0)
(-2.03312e-298 -1.18416e-298 0)
(-1.38422e-298 -7.48512e-299 0)
(-9.18044e-299 -4.61097e-299 0)
(-5.7887e-299 -2.67886e-299 0)
(3.33731e-298 -1.39173e-297 0)
(1.81071e-298 -1.86638e-297 0)
(1.02739e-298 -2.08408e-297 0)
(-1.58519e-299 -2.27139e-297 0)
(-1.69455e-298 -2.42066e-297 0)
(-3.56591e-298 -2.52907e-297 0)
(-5.78513e-298 -2.59923e-297 0)
(-8.35389e-298 -2.63362e-297 0)
(-1.11889e-297 -2.63114e-297 0)
(-1.40042e-297 -2.58389e-297 0)
(-1.61457e-297 -2.47351e-297 0)
(-1.6344e-297 -2.25947e-297 0)
(-1.39943e-297 -1.75683e-297 0)
(-1.11704e-297 -1.24294e-297 0)
(-8.55888e-298 -8.48675e-298 0)
(-6.3835e-298 -5.72628e-298 0)
(-4.67923e-298 -3.83736e-298 0)
(-3.38346e-298 -2.55334e-298 0)
(-2.41439e-298 -1.6838e-298 0)
(-1.69718e-298 -1.09749e-298 0)
(-1.16981e-298 -7.03634e-299 0)
(-7.82562e-299 -4.38646e-299 0)
(-4.96044e-299 -2.57447e-299 0)
(-1.90089e-298 -7.74448e-298 0)
(-1.68964e-298 -1.11293e-297 0)
(-1.53961e-298 -1.26458e-297 0)
(-1.72574e-298 -1.37604e-297 0)
(-2.22205e-298 -1.45969e-297 0)
(-2.98621e-298 -1.51752e-297 0)
(-3.98673e-298 -1.5516e-297 0)
(-5.18007e-298 -1.56409e-297 0)
(-6.47558e-298 -1.55588e-297 0)
(-7.69639e-298 -1.52467e-297 0)
(-8.55735e-298 -1.4616e-297 0)
(-8.70955e-298 -1.34218e-297 0)
(-8.11165e-298 -1.12291e-297 0)
(-7.03795e-298 -8.67287e-298 0)
(-5.77763e-298 -6.37019e-298 0)
(-4.55238e-298 -4.53797e-298 0)
(-3.48056e-298 -3.16508e-298 0)
(-2.59838e-298 -2.17017e-298 0)
(-1.89954e-298 -1.46473e-298 0)
(-1.35992e-298 -9.7255e-299 0)
(-9.50287e-299 -6.33018e-299 0)
(-6.42041e-299 -3.9955e-299 0)
(-4.09491e-299 -2.36842e-299 0)
(-2.0426e-298 -4.13606e-298 0)
(-2.0219e-298 -6.70327e-298 0)
(-1.87431e-298 -7.99558e-298 0)
(-1.85441e-298 -8.85048e-298 0)
(-2.01597e-298 -9.44154e-298 0)
(-2.34921e-298 -9.82795e-298 0)
(-2.83112e-298 -1.00431e-297 0)
(-3.42435e-298 -1.01109e-297 0)
(-4.06613e-298 -1.00435e-297 0)
(-4.65887e-298 -9.82962e-298 0)
(-5.07554e-298 -9.41579e-298 0)
(-5.19679e-298 -8.68433e-298 0)
(-4.99623e-298 -7.5102e-298 0)
(-4.51982e-298 -6.08872e-298 0)
(-3.87372e-298 -4.69334e-298 0)
(-3.17552e-298 -3.48509e-298 0)
(-2.5114e-298 -2.51464e-298 0)
(-1.92779e-298 -1.77217e-298 0)
(-1.44131e-298 -1.22309e-298 0)
(-1.05042e-298 -8.271e-299 0)
(-7.44267e-299 -5.4653e-299 0)
(-5.0805e-299 -3.49221e-299 0)
(-3.26124e-299 -2.08946e-299 0)
(-1.48625e-298 -2.23868e-298 0)
(-1.62257e-298 -4.03981e-298 0)
(-1.58542e-298 -5.07848e-298 0)
(-1.56125e-298 -5.76974e-298 0)
(-1.61917e-298 -6.23569e-298 0)
(-1.77091e-298 -6.53392e-298 0)
(-2.00826e-298 -6.69936e-298 0)
(-2.30912e-298 -6.75533e-298 0)
(-2.63665e-298 -6.71343e-298 0)
(-2.93923e-298 -6.56789e-298 0)
(-3.15698e-298 -6.28805e-298 0)
(-3.23795e-298 -5.81922e-298 0)
(-3.1593e-298 -5.12404e-298 0)
(-2.92666e-298 -4.27843e-298 0)
(-2.58021e-298 -3.40836e-298 0)
(-2.17687e-298 -2.61152e-298 0)
(-1.76814e-298 -1.93748e-298 0)
(-1.38945e-298 -1.39848e-298 0)
(-1.05971e-298 -9.84992e-299 0)
(-7.85134e-299 -6.7761e-299 0)
(-5.63699e-299 -4.54218e-299 0)
(-3.88662e-299 -2.93629e-299 0)
(-2.51038e-299 -1.7716e-299 0)
(-9.77164e-299 -1.23302e-298 0)
(-1.14724e-298 -2.4341e-298 0)
(-1.17556e-298 -3.21173e-298 0)
(-1.17841e-298 -3.75459e-298 0)
(-1.2092e-298 -4.12742e-298 0)
(-1.28426e-298 -4.36939e-298 0)
(-1.40402e-298 -4.50804e-298 0)
(-1.55823e-298 -4.56242e-298 0)
(-1.72757e-298 -4.5424e-298 0)
(-1.8855e-298 -4.44588e-298 0)
(-2.0023e-298 -4.25706e-298 0)
(-2.05161e-298 -3.95176e-298 0)
(-2.01721e-298 -3.51965e-298 0)
(-1.8965e-298 -2.99592e-298 0)
(-1.70475e-298 -2.44261e-298 0)