/*--------------------------------*- C++ -*----------------------------------*\
| =========                 |                                                 |
| \\      /  F ield         | OpenFOAM: The Open Source CFD Toolbox           |
|  \\    /   O peration     | Version:  2406                                  |
|   \\  /    A nd           | Website:  www.openfoam.com                      |
|    \\/     M anipulation  |                                                 |
\*---------------------------------------------------------------------------*/
FoamFile
{
    version     2.0;
    format      ascii;
    arch        "LSB;label=32;scalar=64";
    class       volScalarField;
    location    "0.35";
    object      epsilon;
}
// * * * * * * * * * * * * * * * * * * * * * * * * * * * * * * * * * * * * * //

dimensions      [0 2 -3 0 0 0 0];

internalField   nonuniform List<scalar> 
2268
(
0.0275571
0.0850504
0.130445
0.162822
0.185833
0.202066
0.21335
0.221034
0.226129
0.229385
0.231338
0.232333
0.232541
0.231959
0.230392
0.227402
0.222232
0.213667
0.199821
0.17784
0.143624
0.0922219
0.0244865
0.0420564
0.0594767
0.0769339
0.0895176
0.0982574
0.104241
0.108279
0.110952
0.112681
0.113762
0.114397
0.114713
0.114769
0.114564
0.114023
0.112982
0.111153
0.10807
0.103006
0.094864
0.0821075
0.0631954
0.0425704
0.060993
0.0609884
0.0704665
0.0778112
0.0829239
0.0863675
0.0886402
0.090111
0.0910412
0.0916108
0.0919392
0.0920985
0.0921219
0.0920069
0.0917108
0.0911406
0.0901334
0.088429
0.0856335
0.0811861
0.0743943
0.0650825
0.0652833
0.0768207
0.06495
0.0697419
0.0741762
0.0773461
0.0794659
0.0808371
0.0817019
0.0822335
0.0825498
0.0827266
0.0828087
0.0828162
0.082747
0.0825757
0.0822474
0.0816695
0.0807011
0.0791521
0.0768118
0.0735934
0.0704399
0.0855955
0.0900107
0.0689647
0.0704021
0.072804
0.0746375
0.0758584
0.0766229
0.0770816
0.0773463
0.0774923
0.0775667
0.0775963
0.0775924
0.077554
0.0774671
0.0773038
0.0770205
0.0765633
0.0758967
0.0750974
0.0746517
0.0767705
0.105417
0.101056
0.0725444
0.0714081
0.072269
0.0730906
0.0736312
0.0739362
0.0740863
0.0741466
0.0741609
0.074155
0.0741426
0.0741287
0.0741128
0.0740899
0.0740518
0.073992
0.0739232
0.073932
0.0743443
0.0762568
0.0837513
0.128352
0.110335
0.0756023
0.072425
0.0720742
0.0720958
0.0720949
0.0720312
0.0719312
0.071824
0.0717288
0.0716551
0.0716062
0.0715823
0.0715832
0.0716104
0.0716706
0.0717851
0.0720159
0.072541
0.0738855
0.0777607
0.0912572
0.165946
0.118143
0.078166
0.0733384
0.072016
0.0713912
0.0709477
0.0705792
0.0702696
0.07002
0.0698302
0.0696966
0.0696145
0.0695799
0.0695927
0.0696589
0.069796
0.0700448
0.0705008
0.0713989
0.073377
0.0785345
0.0976059
0.267214
0.0269004
0.0998033
0.152839
0.186361
0.206708
0.218732
0.225576
0.229159
0.230579
0.230348
0.228536
0.224827
0.218544
0.208627
0.193567
0.171263
0.138711
0.0916477
0.0303557
0.0424552
0.0660939
0.0856307
0.0980656
0.10555
0.109912
0.112356
0.113621
0.114127
0.114072
0.113485
0.112248
0.1101
0.106612
0.101149
0.0927913
0.0802497
0.062116
0.0423774
0.064047
0.0665785
0.0763387
0.082971
0.0870569
0.0894587
0.0908054
0.0915023
0.0917858
0.0917685
0.091467
0.0908136
0.0896522
0.0877207
0.0846199
0.0797768
0.0724693
0.062461
0.0602234
0.0831562
0.0709995
0.0745775
0.0777837
0.079958
0.0812963
0.0820632
0.0824651
0.0826333
0.0826328
0.0824725
0.0821095
0.0814429
0.0803007
0.0784201
0.0754394
0.071005
0.0656958
0.0749888
0.101858
0.0765009
0.0748704
0.0754674
0.0762637
0.0768571
0.0772243
0.0774249
0.077515
0.0775261
0.0774612
0.077293
0.0769579
0.0763458
0.0752899
0.073583
0.0711425
0.0691669
0.0872436
0.123962
0.0825948
0.0757989
0.074233
0.0739613
0.0739886
0.0740536
0.0741025
0.0741348
0.0741566
0.0741664
0.0741485
0.0740666
0.0738566
0.0734247
0.072681
0.0717486
0.0723163
0.0974894
0.160899
0.0890077
0.0767106
0.0733969
0.0723111
0.0719062
0.0717384
0.07167
0.0716588
0.0716923
0.0717657
0.0718724
0.071997
0.0721111
0.0721773
0.0721961
0.0724491
0.0750251
0.10609
0.25606
0.0941385
0.0770733
0.0726276
0.0709815
0.0702611
0.0699176
0.0697599
0.0697173
0.0697643
0.0698945
0.0701085
0.0704078
0.0707918
0.0712671
0.0719038
0.0731076
0.0773016
0.113323
0.128491
0.0814971
0.0745552
0.0720005
0.0705486
0.0695316
0.0687623
0.0681733
0.0677307
0.0674103
0.0671925
0.0670619
0.0670093
0.0670336
0.0671455
0.0673737
0.0677781
0.0684833
0.0697582
0.0722328
0.0775501
0.0906749
0.129655
0.13808
0.0844638
0.075613
0.0719596
0.0697579
0.0682057
0.0670499
0.0661821
0.0655398
0.0650791
0.0647662
0.0645763
0.064494
0.0645154
0.0646507
0.0649301
0.0654137
0.0662137
0.0675401
0.0697963
0.0737745
0.0810089
0.0941223
0.144579
0.0863798
0.0762504
0.0718645
0.069153
0.0672258
0.0657899
0.0647128
0.0639152
0.0633411
0.0629476
0.0627028
0.0625862
0.0625894
0.0627183
0.0629964
0.0634703
0.0642203
0.0653766
0.0671433
0.0698145
0.0737169
0.0788386
0.148909
0.087599
0.0766188
0.0717426
0.0686817
0.0664895
0.064849
0.0636137
0.0626947
0.0620285
0.0615661
0.0612708
0.0611171
0.0610915
0.0611936
0.0614371
0.0618517
0.0624853
0.0634051
0.0646939
0.0664246
0.0685838
0.0708885
0.151734
0.0883621
0.0768241
0.0716213
0.0683209
0.0659409
0.0641507
0.0627959
0.061782
0.0610412
0.0605205
0.0601792
0.0599876
0.0599274
0.0599913
0.0601831
0.0605174
0.0610172
0.06171
0.0626172
0.0637315
0.0649747
0.0661377
0.153538
0.0888317
0.0769346
0.0715166
0.0680528
0.0655403
0.0636409
0.0621961
0.0611087
0.0603079
0.0597382
0.0593561
0.0591281
0.0590314
0.0590528
0.0591877
0.0594389
0.0598131
0.0603155
0.0609414
0.0616616
0.0624051
0.0630446
0.154666
0.0891158
0.0769923
0.0714343
0.0678602
0.065255
0.0632767
0.061765
0.060621
0.0597727
0.0591627
0.0587451
0.0584839
0.0583521
0.0583317
0.0584118
0.058587
0.058854
0.0592072
0.0596325
0.0601001
0.060558
0.0609315
0.155355
0.089285
0.0770215
0.071374
0.0677265
0.0650574
0.0630229
0.0614619
0.0602753
0.0593899
0.0587474
0.0583001
0.0580096
0.0578462
0.057788
0.0578196
0.0579301
0.0581108
0.0583511
0.0586356
0.0589392
0.0592265
0.0594533
0.15577
0.0893842
0.077036
0.0713324
0.0676369
0.0649243
0.0628504
0.0612539
0.0600357
0.0591221
0.0584539
0.0579824
0.0576674
0.057477
0.0573866
0.0573775
0.0574357
0.0575495
0.0577068
0.0578929
0.0580889
0.0582705
0.0584111
0.156014
0.0894417
0.0770431
0.0713049
0.0675786
0.0648372
0.0627362
0.0611147
0.0598735
0.0589389
0.0582511
0.0577605
0.0574257
0.0572133
0.0570966
0.057055
0.0570726
0.0571361
0.0572333
0.0573515
0.0574759
0.0575904
0.0576784
0.156156
0.0894746
0.0770467
0.0712876
0.0675419
0.0647816
0.0626625
0.0610238
0.0597663
0.0588164
0.058114
0.0576088
0.0572587
0.057029
0.0568918
0.0568253
0.0568123
0.056839
0.0568936
0.056965
0.057042
0.0571131
0.057168
0.156237
0.0894932
0.0770485
0.0712771
0.0675194
0.0647472
0.0626161
0.0609658
0.0596972
0.0587364
0.0580234
0.0575074
0.0571457
0.056903
0.0567504
0.0566653
0.0566301
0.0566306
0.0566555
0.0566952
0.0567406
0.0567837
0.0568174
0.156283
0.0895036
0.0770495
0.0712709
0.0675061
0.0647263
0.0625876
0.0609297
0.0596535
0.0586853
0.0579649
0.0574411
0.057071
0.0568187
0.056655
0.0565566
0.0565055
0.0564878
0.0564925
0.0565108
0.0565355
0.0565605
0.0565807
0.156309
0.0895095
0.0770501
0.0712674
0.0674983
0.064714
0.0625706
0.0609077
0.0596266
0.0586534
0.0579278
0.0573987
0.0570227
0.0567636
0.056592
0.0564843
0.0564224
0.0563923
0.0563834
0.0563877
0.0563989
0.0564122
0.0564239
0.156323
0.0895127
0.0770504
0.0712654
0.0674939
0.0647069
0.0625605
0.0608946
0.0596103
0.0586338
0.0579048
0.057372
0.056992
0.0567283
0.0565513
0.0564373
0.0563681
0.0563298
0.056312
0.0563073
0.0563099
0.0563157
0.0563221
0.156331
0.0895144
0.0770506
0.0712643
0.0674914
0.0647029
0.0625547
0.0608869
0.0596006
0.0586221
0.0578909
0.0573557
0.0569729
0.0567062
0.0565256
0.0564074
0.0563334
0.0562898
0.0562663
0.0562558
0.056253
0.0562543
0.0562572
0.156335
0.0895154
0.0770507
0.0712638
0.0674901
0.0647006
0.0625515
0.0608826
0.059595
0.0586152
0.0578825
0.0573458
0.0569613
0.0566925
0.0565096
0.0563888
0.0563118
0.0562647
0.0562377
0.0562236
0.0562174
0.0562159
0.0562168
0.156338
0.0895159
0.0770508
0.0712635
0.0674894
0.0646994
0.0625497
0.0608801
0.0595918
0.0586112
0.0578777
0.0573399
0.0569543
0.0566843
0.0565
0.0563775
0.0562985
0.0562494
0.0562202
0.0562038
0.0561956
0.0561924
0.0561921
0.156339
0.0895162
0.0770509
0.0712634
0.067489
0.0646988
0.0625487
0.0608787
0.05959
0.0586089
0.0578748
0.0573365
0.0569503
0.0566795
0.0564942
0.0563707
0.0562905
0.0562401
0.0562096
0.056192
0.0561825
0.0561783
0.0561772
0.15634
0.0895164
0.0770509
0.0712633
0.0674888
0.0646984
0.0625482
0.060878
0.059589
0.0586076
0.0578733
0.0573346
0.0569479
0.0566766
0.0564908
0.0563667
0.0562858
0.0562347
0.0562034
0.056185
0.0561748
0.05617
0.0561685
0.15634
0.0895164
0.0770509
0.0712633
0.0674887
0.0646983
0.0625479
0.0608776
0.0595885
0.0586069
0.0578724
0.0573335
0.0569466
0.056675
0.0564889
0.0563644
0.0562831
0.0562315
0.0561998
0.0561809
0.0561704
0.0561652
0.0561635
0.15634
0.0895165
0.0770509
0.0712633
0.0674887
0.0646982
0.0625478
0.0608774
0.0595882
0.0586066
0.0578719
0.0573329
0.0569458
0.0566741
0.0564878
0.056363
0.0562816
0.0562297
0.0561977
0.0561786
0.0561678
0.0561624
0.0561606
0.15634
0.0895165
0.077051
0.0712633
0.0674887
0.0646981
0.0625477
0.0608773
0.0595881
0.0586064
0.0578716
0.0573325
0.0569454
0.0566736
0.0564872
0.0563623
0.0562807
0.0562287
0.0561965
0.0561773
0.0561664
0.0561609
0.056159
0.15634
0.0895165
0.077051
0.0712633
0.0674887
0.0646981
0.0625477
0.0608772
0.059588
0.0586062
0.0578715
0.0573324
0.0569452
0.0566733
0.0564868
0.0563619
0.0562802
0.0562282
0.0561959
0.0561766
0.0561656
0.0561601
0.0561581
0.15634
0.0895165
0.077051
0.0712633
0.0674887
0.0646981
0.0625476
0.0608772
0.059588
0.0586062
0.0578714
0.0573323
0.0569451
0.0566732
0.0564866
0.0563617
0.05628
0.0562279
0.0561956
0.0561762
0.0561652
0.0561596
0.0561577
0.15634
0.0895165
0.077051
0.0712633
0.0674887
0.0646981
0.0625476
0.0608772
0.0595879
0.0586062
0.0578714
0.0573322
0.056945
0.0566731
0.0564866
0.0563616
0.0562798
0.0562277
0.0561954
0.056176
0.056165
0.0561594
0.0561574
0.15634
0.0895165
0.077051
0.0712633
0.0674887
0.0646981
0.0625476
0.0608772
0.0595879
0.0586062
0.0578714
0.0573322
0.056945
0.0566731
0.0564865
0.0563615
0.0562798
0.0562276
0.0561953
0.0561759
0.0561649
0.0561592
0.0561573
0.15634
0.0895165
0.077051
0.0712633
0.0674887
0.0646981
0.0625476
0.0608772
0.0595879
0.0586061
0.0578714
0.0573322
0.056945
0.056673
0.0564865
0.0563615
0.0562797
0.0562276
0.0561952
0.0561758
0.0561648
0.0561592
0.0561572
0.15634
0.0895165
0.077051
0.0712633
0.0674887
0.0646981
0.0625476
0.0608772
0.0595879
0.0586061
0.0578714
0.0573322
0.0569449
0.056673
0.0564865
0.0563615
0.0562797
0.0562276
0.0561952
0.0561758
0.0561648
0.0561591
0.0561572
0.15634
0.0895165
0.077051
0.0712633
0.0674887
0.0646981
0.0625476
0.0608772
0.0595879
0.0586061
0.0578713
0.0573322
0.0569449
0.056673
0.0564865
0.0563615
0.0562797
0.0562276
0.0561952
0.0561758
0.0561647
0.0561591
0.0561572
0.15634
0.0895165
0.077051
0.0712633
0.0674887
0.0646981
0.0625476
0.0608772
0.0595879
0.0586061
0.0578713
0.0573322
0.0569449
0.056673
0.0564865
0.0563615
0.0562797
0.0562275
0.0561952
0.0561758
0.0561647
0.0561591
0.0561571
0.15634
0.0895165
0.077051
0.0712633
0.0674887
0.0646981
0.0625476
0.0608772
0.0595879
0.0586061
0.0578713
0.0573322
0.0569449
0.056673
0.0564864
0.0563614
0.0562797
0.0562275
0.0561952
0.0561758
0.0561647
0.0561591
0.0561571
0.15634
0.0895165
0.077051
0.0712633
0.0674887
0.0646981
0.0625476
0.0608772
0.0595879
0.0586061
0.0578713
0.0573322
0.0569449
0.056673
0.0564864
0.0563614
0.0562797
0.0562275
0.0561952
0.0561758
0.0561647
0.0561591
0.0561571
0.15634
0.0895165
0.077051
0.0712633
0.0674887
0.0646981
0.0625476
0.0608772
0.0595879
0.0586061
0.0578713
0.0573322
0.0569449
0.056673
0.0564864
0.0563614
0.0562797
0.0562275
0.0561952
0.0561757
0.0561647
0.0561591
0.0561571
0.15634
0.0895165
0.077051
0.0712633
0.0674887
0.0646981
0.0625476
0.0608772
0.0595879
0.0586061
0.0578713
0.0573322
0.0569449
0.056673
0.0564864
0.0563614
0.0562797
0.0562275
0.0561951
0.0561757
0.0561647
0.056159
0.0561571
0.15634
0.0895165
0.077051
0.0712633
0.0674887
0.0646981
0.0625476
0.0608772
0.0595879
0.0586061
0.0578713
0.0573322
0.0569449
0.056673
0.0564864
0.0563614
0.0562797
0.0562275
0.0561951
0.0561757
0.0561646
0.056159
0.056157
0.15634
0.0895165
0.077051
0.0712633
0.0674887
0.0646981
0.0625476
0.0608772
0.0595879
0.0586061
0.0578713
0.0573322
0.0569449
0.056673
0.0564864
0.0563614
0.0562797
0.0562275
0.0561951
0.0561757
0.0561646
0.056159
0.056157
0.15634
0.0895165
0.077051
0.0712633
0.0674887
0.0646981
0.0625476
0.0608772
0.0595879
0.0586061
0.0578713
0.0573322
0.0569449
0.056673
0.0564864
0.0563614
0.0562796
0.0562275
0.0561951
0.0561757
0.0561646
0.0561589
0.0561569
0.15634
0.0895165
0.077051
0.0712633
0.0674886
0.0646981
0.0625476
0.0608772
0.0595879
0.0586061
0.0578713
0.0573322
0.0569449
0.056673
0.0564864
0.0563614
0.0562796
0.0562275
0.0561951
0.0561756
0.0561645
0.0561589
0.0561568
0.15634
0.0895165
0.077051
0.0712633
0.0674886
0.0646981
0.0625476
0.0608772
0.0595879
0.0586061
0.0578713
0.0573322
0.0569449
0.056673
0.0564864
0.0563614
0.0562796
0.0562274
0.0561951
0.0561756
0.0561645
0.0561588
0.0561568
0.15634
0.0895165
0.077051
0.0712633
0.0674886
0.0646981
0.0625476
0.0608772
0.0595879
0.0586061
0.0578713
0.0573322
0.0569449
0.056673
0.0564864
0.0563614
0.0562796
0.0562274
0.056195
0.0561756
0.0561645
0.0561588
0.0561567
0.15634
0.0895165
0.077051
0.0712633
0.0674886
0.0646981
0.0625476
0.0608772
0.0595879
0.0586061
0.0578713
0.0573322
0.0569449
0.056673
0.0564864
0.0563614
0.0562796
0.0562274
0.056195
0.0561756
0.0561644
0.0561587
0.0561567
0.308304
0.236591
0.236056
0.305215
0.110034
0.110724
0.110675
0.10993
0.0822888
0.0832544
0.0832508
0.0822837
0.0720819
0.0724827
0.0724845
0.072088
0.0666661
0.0668463
0.0668488
0.066674
0.0633157
0.0634076
0.06341
0.063323
0.061084
0.0611355
0.0611376
0.0610904
0.0595441
0.0595749
0.0595767
0.0595497
0.0584671
0.0584863
0.0584879
0.0584722
0.0577135
0.0577257
0.0577273
0.0577182
0.0571902
0.0571982
0.0571997
0.0571947
0.0568315
0.0568369
0.0568383
0.056836
0.0565897
0.0565934
0.0565948
0.0565941
0.0564297
0.0564323
0.0564337
0.0564341
0.0563258
0.0563277
0.0563292
0.0563302
0.0562597
0.0562613
0.0562627
0.0562641
0.0562185
0.0562198
0.0562212
0.0562229
0.0561933
0.0561945
0.0561959
0.0561977
0.0561782
0.0561793
0.0561807
0.0561827
0.0561693
0.0561704
0.0561718
0.0561738
0.0561642
0.0561652
0.0561667
0.0561686
0.0561613
0.0561623
0.0561637
0.0561657
0.0561597
0.0561606
0.0561621
0.0561641
0.0561588
0.0561598
0.0561612
0.0561632
0.0561583
0.0561593
0.0561607
0.0561627
0.056158
0.056159
0.0561604
0.0561625
0.0561579
0.0561589
0.0561603
0.0561623
0.0561578
0.0561588
0.0561602
0.0561623
0.0561578
0.0561588
0.0561602
0.0561622
0.0561578
0.0561587
0.0561602
0.0561622
0.0561578
0.0561587
0.0561602
0.0561622
0.0561577
0.0561587
0.0561601
0.0561622
0.0561577
0.0561587
0.0561601
0.0561622
0.0561577
0.0561587
0.0561601
0.0561621
0.0561577
0.0561586
0.0561601
0.0561621
0.0561576
0.0561586
0.05616
0.0561621
0.0561576
0.0561585
0.05616
0.056162
0.0561575
0.0561585
0.0561599
0.0561619
0.0561574
0.0561584
0.0561598
0.0561619
0.0561574
0.0561583
0.0561597
0.0561618
0.0561573
0.0561582
0.0561596
0.0561617
0.0561572
0.0561581
0.0561595
0.0561616
0.126521
0.0882996
0.0760274
0.0712783
0.0691524
0.0681028
0.067563
0.0673039
0.067229
0.0673009
0.0675124
0.0678743
0.068409
0.0691505
0.0701589
0.0715891
0.0739998
0.0802594
0.1229
0.0932459
0.0797525
0.0726571
0.0689343
0.0669159
0.0657915
0.0651721
0.0648691
0.0647936
0.0649107
0.0652191
0.0657407
0.0665166
0.0676094
0.0691225
0.0712786
0.0747675
0.0828835
0.131755
0.0785931
0.0730928
0.0690935
0.0664863
0.0648487
0.0638453
0.0632639
0.0629825
0.0629386
0.0631107
0.0635069
0.0641591
0.0651216
0.0664746
0.0683468
0.0710015
0.0752119
0.0845683
0.137745
0.0708146
0.0682712
0.0659819
0.0642348
0.0630069
0.0621975
0.0617139
0.0614927
0.061501
0.0617336
0.0622095
0.0629698
0.0640779
0.0656254
0.0677558
0.0707561
0.0754522
0.0856338
0.141728
0.0661157
0.0648136
0.0634655
0.0623142
0.0614352
0.0608259
0.0604605
0.0603169
0.0603872
0.0606814
0.0612288
0.0620785
0.0633008
0.0649941
0.0673107
0.0705511
0.0755732
0.0862968
0.144323
0.0630402
0.0623208
0.061505
0.0607521
0.0601439
0.0597112
0.0594617
0.0593988
0.0595326
0.0598855
0.0604958
0.061419
0.0627303
0.0645327
0.0669833
0.0703899
0.075629
0.0867027
0.145978
0.0609339
0.060515
0.0600119
0.0595237
0.0591165
0.0588284
0.0586814
0.0586934
0.0588865
0.0592926
0.0599567
0.0609393
0.0623195
0.0642029
0.0667492
0.0702699
0.0756518
0.0869472
0.147012
0.0594586
0.0592073
0.0588947
0.0585831
0.0583218
0.0581466
0.0580848
0.0581617
0.058407
0.0588589
0.0595677
0.0605976
0.0620302
0.063973
0.0665868
0.0701847
0.0756591
0.0870924
0.147645
0.058418
0.0582656
0.0580728
0.0578798
0.0577228
0.0576333
0.0576391
0.0577693
0.0580581
0.058548
0.0592928
0.0603593
0.0618311
0.0638167
0.0664774
0.0701269
0.0756601
0.0871774
0.148026
0.0576861
0.0575946
0.0574788
0.0573656
0.0572825
0.0572561
0.0573138
0.0574861
0.0578097
0.0583298
0.0591026
0.0601969
0.0616974
0.0637132
0.0664059
0.0700891
0.075659
0.0872266
0.148251
0.0571763
0.0571232
0.0570574
0.0569981
0.0569664
0.0569857
0.057082
0.0572863
0.0576366
0.0581799
0.0589739
0.0600887
0.0616097
0.0636464
0.0663604
0.0700652
0.0756577
0.0872547
0.148382
0.0568262
0.0567976
0.0567645
0.0567412
0.056745
0.0567964
0.0569206
0.0571485
0.0575187
0.0580792
0.0588888
0.0600182
0.0615535
0.0636043
0.0663322
0.0700506
0.0756567
0.0872707
0.148457
0.0565898
0.0565769
0.0565651
0.0565657
0.0565934
0.0566671
0.0568109
0.0570556
0.0574401
0.058013
0.0588336
0.0599733
0.0615182
0.0635784
0.0663152
0.0700419
0.075656
0.0872797
0.148499
0.0564332
0.0564303
0.0564322
0.0564484
0.056492
0.0565808
0.056738
0.0569943
0.0573888
0.0579704
0.0587987
0.0599452
0.0614966
0.0635628
0.0663051
0.0700369
0.0756557
0.0872848
0.148523
0.0563315
0.056335
0.0563456
0.0563718
0.0564258
0.0565244
0.0566907
0.0569548
0.0573561
0.0579435
0.0587769
0.0599281
0.0614836
0.0635536
0.0662993
0.0700341
0.0756555
0.0872876
0.148537
0.0562668
0.0562742
0.0562902
0.0563228
0.0563834
0.0564885
0.0566606
0.0569299
0.0573356
0.0579269
0.0587637
0.0599178
0.061476
0.0635483
0.066296
0.0700325
0.0756554
0.0872891
0.148544
0.0562264
0.0562362
0.0562556
0.0562921
0.0563569
0.056466
0.0566418
0.0569145
0.0573231
0.0579168
0.0587557
0.0599117
0.0614715
0.0635452
0.0662942
0.0700317
0.0756554
0.08729
0.148548
0.0562017
0.056213
0.0562344
0.0562734
0.0563407
0.0564522
0.0566304
0.0569051
0.0573155
0.0579108
0.0587511
0.0599082
0.061469
0.0635436
0.0662932
0.0700312
0.0756554
0.0872904
0.14855
0.0561869
0.056199
0.0562217
0.0562621
0.0563309
0.056444
0.0566235
0.0568995
0.0573111
0.0579073
0.0587484
0.0599062
0.0614676
0.0635426
0.0662927
0.070031
0.0756554
0.0872907
0.148552
0.0561782
0.0561908
0.0562142
0.0562554
0.0563251
0.0564391
0.0566195
0.0568963
0.0573085
0.0579053
0.0587468
0.0599051
0.0614668
0.0635421
0.0662924
0.0700309
0.0756554
0.0872908
0.148552
0.0561732
0.0561861
0.0562099
0.0562515
0.0563218
0.0564363
0.0566172
0.0568944
0.057307
0.0579042
0.058746
0.0599045
0.0614664
0.0635419
0.0662922
0.0700308
0.0756554
0.0872909
0.148553
0.0561703
0.0561834
0.0562074
0.0562494
0.0563199
0.0564347
0.0566159
0.0568933
0.0573062
0.0579035
0.0587455
0.0599041
0.0614662
0.0635417
0.0662922
0.0700308
0.0756554
0.0872909
0.148553
0.0561688
0.0561819
0.056206
0.0562481
0.0563189
0.0564338
0.0566152
0.0568928
0.0573057
0.0579032
0.0587453
0.059904
0.0614661
0.0635417
0.0662921
0.0700308
0.0756554
0.087291
0.148553
0.0561679
0.0561811
0.0562053
0.0562475
0.0563183
0.0564333
0.0566148
0.0568924
0.0573055
0.057903
0.0587451
0.0599039
0.061466
0.0635416
0.0662921
0.0700308
0.0756554
0.087291
0.148553
0.0561674
0.0561806
0.0562049
0.0562471
0.056318
0.0564331
0.0566145
0.0568923
0.0573053
0.0579029
0.0587451
0.0599038
0.061466
0.0635416
0.0662921
0.0700308
0.0756554
0.087291
0.148553
0.0561672
0.0561804
0.0562046
0.0562469
0.0563178
0.0564329
0.0566144
0.0568922
0.0573053
0.0579029
0.058745
0.0599038
0.061466
0.0635416
0.0662921
0.0700308
0.0756554
0.087291
0.148553
0.056167
0.0561803
0.0562045
0.0562468
0.0563177
0.0564329
0.0566144
0.0568921
0.0573052
0.0579028
0.058745
0.0599038
0.0614659
0.0635416
0.0662921
0.0700308
0.0756554
0.087291
0.148553
0.0561669
0.0561802
0.0562045
0.0562467
0.0563177
0.0564328
0.0566143
0.0568921
0.0573052
0.0579028
0.058745
0.0599038
0.0614659
0.0635416
0.0662921
0.0700308
0.0756554
0.087291
0.148553
0.0561669
0.0561802
0.0562044
0.0562467
0.0563176
0.0564328
0.0566143
0.0568921
0.0573052
0.0579028
0.058745
0.0599038
0.0614659
0.0635416
0.0662921
0.0700308
0.0756554
0.087291
0.148553
0.0561669
0.0561801
0.0562044
0.0562467
0.0563176
0.0564328
0.0566143
0.0568921
0.0573052
0.0579028
0.058745
0.0599038
0.0614659
0.0635416
0.0662921
0.0700308
0.0756554
0.087291
0.148553
0.0561669
0.0561801
0.0562044
0.0562467
0.0563176
0.0564328
0.0566143
0.0568921
0.0573052
0.0579028
0.058745
0.0599038
0.0614659
0.0635416
0.0662921
0.0700308
0.0756554
0.087291
0.148553
0.0561669
0.0561801
0.0562044
0.0562467
0.0563176
0.0564328
0.0566143
0.0568921
0.0573052
0.0579028
0.058745
0.0599038
0.0614659
0.0635416
0.0662921
0.0700308
0.0756554
0.087291
0.148553
0.0561668
0.0561801
0.0562044
0.0562467
0.0563176
0.0564328
0.0566143
0.0568921
0.0573052
0.0579028
0.058745
0.0599038
0.0614659
0.0635416
0.0662921
0.0700308
0.0756554
0.087291
0.148553
0.0561668
0.0561801
0.0562044
0.0562467
0.0563176
0.0564328
0.0566143
0.0568921
0.0573052
0.0579028
0.058745
0.0599038
0.0614659
0.0635416
0.0662921
0.0700308
0.0756554
0.087291
0.148553
0.0561668
0.05618
0.0562043
0.0562466
0.0563176
0.0564328
0.0566143
0.0568921
0.0573052
0.0579028
0.058745
0.0599038
0.0614659
0.0635416
0.0662921
0.0700308
0.0756554
0.087291
0.148553
0.0561668
0.05618
0.0562043
0.0562466
0.0563176
0.0564328
0.0566143
0.0568921
0.0573052
0.0579028
0.058745
0.0599038
0.0614659
0.0635416
0.0662921
0.0700308
0.0756554
0.087291
0.148553
0.0561667
0.05618
0.0562043
0.0562466
0.0563175
0.0564327
0.0566143
0.0568921
0.0573052
0.0579028
0.058745
0.0599038
0.0614659
0.0635416
0.0662921
0.0700308
0.0756554
0.087291
0.148553
0.0561666
0.0561799
0.0562042
0.0562466
0.0563175
0.0564327
0.0566143
0.056892
0.0573052
0.0579028
0.058745
0.0599038
0.0614659
0.0635416
0.0662921
0.0700308
0.0756554
0.087291
0.148553
0.0561666
0.0561799
0.0562042
0.0562465
0.0563175
0.0564327
0.0566142
0.056892
0.0573052
0.0579028
0.058745
0.0599038
0.0614659
0.0635416
0.0662921
0.0700308
0.0756554
0.087291
0.148553
0.0561665
0.0561798
0.0562042
0.0562465
0.0563175
0.0564327
0.0566142
0.056892
0.0573052
0.0579028
0.058745
0.0599038
0.0614659
0.0635416
0.0662921
0.0700308
0.0756554
0.087291
0.148553
0.0561664
0.0561797
0.0562041
0.0562465
0.0563175
0.0564327
0.0566142
0.056892
0.0573052
0.0579028
0.058745
0.0599038
0.0614659
0.0635416
0.0662921
0.0700308
0.0756554
0.087291
0.148553
0.0561663
0.0561797
0.0562041
0.0562465
0.0563174
0.0564327
0.0566142
0.056892
0.0573052
0.0579028
0.058745
0.0599038
0.0614659
0.0635416
0.0662921
0.0700308
0.0756554
0.087291
0.148553
)
;

boundaryField
{
    leftWall
    {
        type            epsilonWallFunction;
        blending        stepwise;
        value           nonuniform List<scalar> 
50
(
0.0275571
0.0420564
0.060993
0.0768207
0.0900107
0.101056
0.110335
0.118143
0.128491
0.13808
0.144579
0.148909
0.151734
0.153538
0.154666
0.155355
0.15577
0.156014
0.156156
0.156237
0.156283
0.156309
0.156323
0.156331
0.156335
0.156338
0.156339
0.15634
0.15634
0.15634
0.15634
0.15634
0.15634
0.15634
0.15634
0.15634
0.15634
0.15634
0.15634
0.15634
0.15634
0.15634
0.15634
0.15634
0.15634
0.15634
0.15634
0.15634
0.15634
0.15634
)
;
    }
    rightWall
    {
        type            epsilonWallFunction;
        blending        stepwise;
        value           nonuniform List<scalar> 
50
(
0.0303557
0.0423774
0.0602234
0.0749888
0.0872436
0.0974894
0.10609
0.113323
0.1229
0.131755
0.137745
0.141728
0.144323
0.145978
0.147012
0.147645
0.148026
0.148251
0.148382
0.148457
0.148499
0.148523
0.148537
0.148544
0.148548
0.14855
0.148552
0.148552
0.148553
0.148553
0.148553
0.148553
0.148553
0.148553
0.148553
0.148553
0.148553
0.148553
0.148553
0.148553
0.148553
0.148553
0.148553
0.148553
0.148553
0.148553
0.148553
0.148553
0.148553
0.148553
)
;
    }
    lowerWall
    {
        type            epsilonWallFunction;
        blending        stepwise;
        value           nonuniform List<scalar> 
62
(
0.0275571
0.0850504
0.130445
0.162822
0.185833
0.202066
0.21335
0.221034
0.226129
0.229385
0.231338
0.232333
0.232541
0.231959
0.230392
0.227402
0.222232
0.213667
0.199821
0.17784
0.143624
0.0922219
0.0244865
0.0244865
0.0425704
0.0652833
0.0855955
0.105417
0.128352
0.165946
0.267214
0.308304
0.236591
0.236056
0.305215
0.0269004
0.0424552
0.064047
0.0831562
0.101858
0.123962
0.160899
0.25606
0.0269004
0.0998033
0.152839
0.186361
0.206708
0.218732
0.225576
0.229159
0.230579
0.230348
0.228536
0.224827
0.218544
0.208627
0.193567
0.171263
0.138711
0.0916477
0.0303557
)
;
    }
    atmosphere
    {
        type            inletOutlet;
        inletValue      uniform 0.1;
        value           nonuniform List<scalar> 
46
(
0.15634
0.0895165
0.077051
0.0712633
0.0674886
0.0646981
0.0625476
0.0608772
0.0595879
0.0586061
0.0578713
0.0573322
0.0569449
0.056673
0.0564864
0.0563614
0.0562796
0.0562274
0.056195
0.0561756
0.0561644
0.0561587
0.0561567
0.0561572
0.0561581
0.0561595
0.0561616
0.0561663
0.0561797
0.0562041
0.0562465
0.0563174
0.0564327
0.0566142
0.056892
0.0573052
0.0579028
0.058745
0.0599038
0.0614659
0.0635416
0.0662921
0.0700308
0.0756554
0.087291
0.148553
)
;
    }
    defaultFaces
    {
        type            empty;
    }
}


// ************************************************************************* //
