/*--------------------------------*- C++ -*----------------------------------*\
| =========                 |                                                 |
| \\      /  F ield         | OpenFOAM: The Open Source CFD Toolbox           |
|  \\    /   O peration     | Version:  2406                                  |
|   \\  /    A nd           | Website:  www.openfoam.com                      |
|    \\/     M anipulation  |                                                 |
\*---------------------------------------------------------------------------*/
FoamFile
{
    version     2.0;
    format      ascii;
    arch        "LSB;label=32;scalar=64";
    class       volScalarField;
    location    "0.35";
    object      epsilon;
}
// * * * * * * * * * * * * * * * * * * * * * * * * * * * * * * * * * * * * * //

dimensions      [0 2 -3 0 0 0 0];

internalField   nonuniform List<scalar> 
2268
(
3.11056
4.22461
4.22461
4.22461
4.22461
4.22461
4.22461
4.22461
4.22461
4.22461
4.22461
4.22461
4.22461
0.117167
0.0993877
0.134685
0.156383
0.166608
0.166094
0.15408
0.12839
0.0854362
0.0240926
1.99652
3.53904
3.87395
3.99094
4.04704
4.07914
4.09939
4.11283
4.12192
4.12796
4.13166
4.13343
4.13343
0.169279
0.0783533
0.0848185
0.0921167
0.0956797
0.095125
0.0899617
0.0791446
0.0614535
0.0410012
1.99652
3.12319
3.57196
3.77086
3.87483
3.93633
3.9757
4.00204
4.01992
4.03183
4.03915
4.04264
4.04264
0.200132
0.0863706
0.0827674
0.0855014
0.0870705
0.0864243
0.0830411
0.0761784
0.0654083
0.061542
1.99652
2.85875
3.32579
3.572
3.71211
3.79846
3.85491
3.89313
3.91926
3.93673
3.94749
3.95264
3.95264
0.222089
0.0956333
0.0858144
0.0855959
0.0858708
0.0851403
0.0828488
0.0784756
0.0721351
0.0793228
1.99652
2.68257
3.12893
3.39682
3.5614
3.66727
3.7382
3.78692
3.82052
3.84312
3.8571
3.86378
3.86378
0.238633
0.103764
0.0894907
0.0869886
0.086226
0.0854091
0.0839852
0.0817083
0.0793891
0.0965262
1.99652
2.55993
2.97192
3.24473
3.42379
3.54389
3.62645
3.68408
3.72425
3.75144
3.76832
3.77642
3.77642
0.251515
0.110442
0.0927103
0.0883358
0.0866887
0.0857714
0.0850715
0.0847403
0.0869297
0.116777
1.99652
2.47111
2.84601
3.11356
3.29936
3.42889
3.52026
3.58514
3.63088
3.66206
3.68152
3.69087
3.69087
0.261789
0.115705
0.0950956
0.0891444
0.0867306
0.0856854
0.085549
0.0869728
0.0946869
0.151029
1.99652
2.40455
2.74407
3.00066
3.18749
3.32242
3.41999
3.49048
3.54076
3.5753
3.59696
3.6074
3.6074
0.270116
0.119572
0.0964385
0.0891604
0.0860924
0.084884
0.0850917
0.0877539
0.101081
0.244323
0.0265994
0.0943833
0.141687
0.171777
0.190205
0.201057
0.207126
0.210233
0.211465
0.211342
0.209935
0.206921
0.201603
0.192899
0.179343
0.159059
0.129549
0.087076
0.0301192
0.0414231
0.0650525
0.0844262
0.0966916
0.104006
0.108197
0.11049
0.111649
0.11211
0.112078
0.111582
0.110503
0.108563
0.10531
0.100077
0.0919175
0.0795368
0.0615153
0.041518
0.0616124
0.0677519
0.0795412
0.0871245
0.0915699
0.0940692
0.0954197
0.096099
0.0963702
0.0963534
0.0960662
0.0954372
0.0942981
0.0923553
0.0891381
0.0839284
0.0757437
0.0639483
0.058241
0.0791463
0.0738086
0.0807279
0.0854151
0.0881537
0.0896766
0.0904952
0.0909081
0.0910731
0.0910601
0.0908784
0.0904841
0.0897702
0.0885346
0.0864227
0.0828507
0.0770178
0.0687205
0.0718026
0.0963691
0.0805155
0.0830282
0.0853273
0.0867406
0.0875296
0.0879545
0.0881711
0.0882576
0.0882463
0.0881405
0.0879166
0.0875122
0.0867932
0.0854928
0.0831324
0.0790444
0.0733059
0.0830079
0.117183
0.0874118
0.085139
0.085296
0.0856166
0.08582
0.0859333
0.0859942
0.0860185
0.0860103
0.0859687
0.0858863
0.0857355
0.0854356
0.0847918
0.0834171
0.0807651
0.0771561
0.0924911
0.15275
0.0942203
0.0864338
0.0847364
0.0841914
0.0839417
0.0838138
0.0837533
0.0837298
0.0837275
0.0837435
0.0837831
0.0838454
0.0838907
0.0837832
0.0832217
0.0817946
0.0801136
0.100715
0.244387
0.0993293
0.0863655
0.0833711
0.0822268
0.0816606
0.0813618
0.0812139
0.0811572
0.0811639
0.0812311
0.0813735
0.0816082
0.0819246
0.0822335
0.0823159
0.0819228
0.0820748
0.108046
1.99652
2.32441
2.61365
2.84849
3.03071
3.16899
3.27268
3.34954
3.40535
3.44416
3.46868
3.48055
3.48055
0.280489
0.123288
0.096738
0.087804
0.0839094
0.0823979
0.0827359
0.0856855
0.0950102
0.127073
1.99652
2.25443
2.4912
2.69466
2.86183
2.99521
3.09939
3.17907
3.2383
3.28019
3.30695
3.31999
3.31999
0.289719
0.127372
0.0977891
0.08724
0.0824106
0.0803354
0.0802316
0.0822301
0.0874191
0.0983374
1.99652
2.20583
2.40242
2.57749
2.72709
2.85095
2.95084
3.02928
3.08878
3.1315
3.15908
3.1726
3.17259
0.295812
0.130555
0.0989592
0.0872315
0.0816166
0.0789367
0.0782066
0.0791672
0.0819348
0.086751
1.99652
2.17008
2.33538
2.48605
2.61835
2.73092
2.82398
2.89862
2.95622
2.99812
3.02541
3.03887
3.03886
0.299963
0.132923
0.0999063
0.087308
0.0810556
0.0778214
0.0764904
0.0766162
0.0780103
0.0805571
1.99652
2.14267
2.28313
2.41316
2.52956
2.6306
2.71573
2.78517
2.83952
2.87949
2.90574
2.91873
2.91873
0.302874
0.13471
0.100633
0.0873765
0.0806179
0.0769197
0.0750895
0.0745997
0.0751747
0.0766602
1.99652
2.12103
2.24141
2.35406
2.45628
2.54634
2.62334
2.68698
2.73736
2.77475
2.79945
2.81173
2.81173
0.304955
0.136092
0.101196
0.087435
0.0802833
0.0762196
0.0740056
0.0730798
0.0731455
0.0740539
1.99652
2.10357
2.20749
2.30549
2.3953
2.47529
2.54445
2.6022
2.64833
2.68281
2.70572
2.71714
2.71714
0.306466
0.137189
0.101646
0.0874968
0.0800466
0.0757088
0.0732153
0.0719911
0.071737
0.0723132
1.99652
2.08927
2.17958
2.26519
2.34422
2.4152
2.47708
2.52917
2.57107
2.60257
2.62359
2.6341
2.6341
0.307576
0.138077
0.102019
0.0875698
0.0798977
0.0753622
0.0726744
0.0712533
0.070802
0.0711878
1.99652
2.07744
2.1564
2.23155
2.30129
2.36431
2.4196
2.46643
2.50431
2.53293
2.55208
2.56168
2.56168
0.3084
0.138809
0.102336
0.0876543
0.0798194
0.0751458
0.0723282
0.0707821
0.0702135
0.0704941
1.99652
2.0676
2.13706
2.20337
2.26515
2.32123
2.37067
2.41275
2.44693
2.47284
2.49023
2.49896
2.49896
0.309023
0.139422
0.102609
0.0877461
0.0797918
0.0750233
0.072122
0.0704998
0.0698643
0.07009
1.99652
2.0594
2.12092
2.17977
2.23476
2.28486
2.32918
2.36705
2.3979
2.42136
2.43714
2.44507
2.44507
0.309508
0.139945
0.10285
0.0878402
0.0797961
0.0749622
0.0720078
0.070341
0.0696696
0.0698687
1.99652
2.05258
2.10748
2.16007
2.20933
2.25431
2.29423
2.32842
2.35636
2.37764
2.39198
2.3992
2.3992
0.309913
0.140407
0.103068
0.087933
0.0798167
0.0749357
0.0719475
0.0702557
0.0695665
0.0697547
1.99652
2.04695
2.09636
2.14375
2.18821
2.22889
2.26507
2.29612
2.32154
2.34094
2.35403
2.36062
2.36062
0.310303
0.140843
0.103277
0.0880224
0.0798405
0.074922
0.0719119
0.0702076
0.069512
0.0696979
1.99652
2.04235
2.08727
2.1304
2.17091
2.20803
2.24109
2.26951
2.29281
2.31062
2.32264
2.3287
2.3287
0.310778
0.141306
0.103494
0.0881052
0.0798531
0.074901
0.0718775
0.0701702
0.0694767
0.0696668
1.99652
2.03867
2.08
2.1197
2.15702
2.19126
2.2218
2.24808
2.26965
2.28614
2.29729
2.30291
2.30291
0.311534
0.141889
0.103739
0.0881685
0.0798315
0.0748487
0.0718219
0.0701228
0.0694407
0.0696418
1.99652
2.03582
2.07436
2.11141
2.14626
2.17825
2.2068
2.2314
2.25161
2.26707
2.27753
2.2828
2.2828
0.312996
0.142732
0.104007
0.0881667
0.0797302
0.0747298
0.0717192
0.0700461
0.0693893
0.0696108
1.99652
2.03374
2.07024
2.10534
2.13837
2.16872
2.19581
2.21917
2.23836
2.25306
2.263
2.26802
2.26802
0.316067
0.143917
0.10416
0.0879682
0.0794609
0.074491
0.0715383
0.0699216
0.0693105
0.0695656
1.99652
2.03237
2.06754
2.10137
2.13321
2.16247
2.1886
2.21114
2.22967
2.24386
2.25346
2.25831
2.25831
0.321737
0.144711
0.103618
0.0872651
0.0788748
0.0740619
0.0712453
0.0697325
0.0691956
0.0695013
1.99652
2.0317
2.06621
2.0994
2.13065
2.15937
2.18503
2.20716
2.22536
2.2393
2.24874
2.2535
2.25349
0.317638
0.140188
0.100789
0.0855357
0.0777932
0.0733784
0.0708168
0.0694702
0.0690414
0.0694165
1.99652
2.0317
2.06621
2.0994
2.13065
2.15937
2.18503
2.20716
2.22536
2.2393
2.24874
2.25349
0.418054
0.175818
0.11654
0.0936652
0.0824441
0.0761639
0.0724403
0.0702603
0.0691414
0.0688525
0.0693142
0.194224
0.239907
0.267305
0.283588
0.293701
0.300144
0.30438
0.307437
0.310276
0.314158
0.320279
0.316303
0.175544
0.123394
0.0994685
0.0865719
0.0789711
0.0742772
0.0713567
0.069625
0.0687707
0.0686419
0.069201
0.0955482
0.100831
0.115539
0.125525
0.131848
0.135807
0.138335
0.14009
0.141573
0.143089
0.144027
0.13957
0.11626
0.099369
0.0881961
0.0807537
0.0757578
0.0724224
0.0702618
0.0689766
0.0683917
0.0684269
0.069086
0.108735
0.085988
0.0905917
0.0953312
0.0986074
0.100674
0.101954
0.102782
0.103355
0.103659
0.103185
0.100408
0.0934127
0.0864278
0.0806894
0.0762936
0.0730608
0.0707772
0.0692595
0.0683729
0.068036
0.0682247
0.0689779
0.123022
0.0854055
0.0842105
0.0855826
0.0867457
0.0874364
0.0877839
0.0879281
0.0879263
0.0877023
0.0869767
0.0852496
0.0822045
0.0787906
0.0756348
0.0729947
0.0709313
0.06942
0.0684091
0.067852
0.0677262
0.0680478
0.0688834
0.133143
0.0867971
0.0822258
0.0814725
0.0811961
0.0808955
0.0805502
0.0801976
0.0798313
0.0793738
0.0786707
0.0775338
0.0758995
0.0740366
0.0722191
0.070621
0.0693264
0.068363
0.0677319
0.0674311
0.0674739
0.0679034
0.0688066
0.139963
0.08814
0.0815509
0.0794624
0.0782229
0.0772243
0.0763771
0.0756692
0.0750671
0.0744991
0.073865
0.0730704
0.072087
0.0709991
0.069924
0.0689587
0.068166
0.0675805
0.0672223
0.0671112
0.0672812
0.0677932
0.0687487
0.144423
0.0891255
0.0813191
0.0783994
0.0765289
0.0750523
0.073852
0.0728951
0.0721374
0.0715113
0.0709375
0.0703482
0.0697125
0.0690497
0.0684059
0.0678298
0.0673611
0.0670292
0.0668596
0.0668825
0.0671437
0.0677156
0.0687089
0.14726
0.0897876
0.0812527
0.0778242
0.0755505
0.0737565
0.0723155
0.071188
0.0703266
0.0696661
0.0691344
0.0686695
0.068233
0.0678154
0.0674278
0.0670911
0.066828
0.0666614
0.0666172
0.0667306
0.067054
0.0676667
0.0686859
0.149023
0.0902164
0.0812538
0.0775217
0.0749984
0.0730009
0.0714015
0.0701603
0.0692302
0.0685473
0.0680419
0.0676517
0.0673318
0.0670578
0.0668227
0.0666314
0.0664957
0.0664332
0.0664692
0.0666408
0.0670045
0.0676436
0.0686788
0.150114
0.0904946
0.0812866
0.0773795
0.0747078
0.0725852
0.0708859
0.0695718
0.0685971
0.0678991
0.0674086
0.0670621
0.0668099
0.0666194
0.0664738
0.0663687
0.0663096
0.0663103
0.0663952
0.0666026
0.0669906
0.0676451
0.0686887
0.150822
0.0906888
0.0813413
0.0773377
0.0745825
0.0723873
0.0706286
0.0692701
0.0682678
0.0675598
0.0670772
0.0667553
0.0665414
0.0663984
0.0663038
0.0662483
0.0662334
0.0662709
0.0663841
0.0666117
0.067013
0.0676747
0.0687202
0.151367
0.0908561
0.0814253
0.0773712
0.0745728
0.0723392
0.0705479
0.0691647
0.0681466
0.0674328
0.0669543
0.0666457
0.0664529
0.0663358
0.0662693
0.0662412
0.0662506
0.066308
0.0664362
0.0666739
0.0670805
0.0677428
0.068784
0.151947
0.0910584
0.0815657
0.077485
0.0746666
0.0724153
0.0706088
0.0692139
0.0681884
0.0674721
0.0669962
0.0666951
0.0665134
0.0664101
0.0663583
0.0663443
0.0663661
0.0664332
0.066568
0.0668086
0.0672142
0.0678709
0.0689006
0.152807
0.0913865
0.0818213
0.0777196
0.0748899
0.0726304
0.070818
0.0694194
0.0683925
0.0676768
0.0672037
0.0669071
0.0667315
0.0666352
0.0665906
0.0665832
0.0666104
0.0666809
0.0668166
0.0670548
0.0674537
0.0680978
0.0691063
0.154345
0.092006
0.0823121
0.0781673
0.0753147
0.0730426
0.0712252
0.0698265
0.0688022
0.0680904
0.0676214
0.0673289
0.0671572
0.0670645
0.0670231
0.0670182
0.0670466
0.0671165
0.0672488
0.0674799
0.0678658
0.0684884
0.0694626
0.15731
0.0932511
0.0832762
0.0790041
0.0760751
0.0737621
0.0719287
0.0705288
0.0695102
0.0688058
0.0683436
0.0680563
0.0678884
0.0677982
0.0677581
0.0677534
0.0677804
0.0678468
0.0679722
0.0681911
0.0685567
0.0691465
0.0700688
0.163206
0.095819
0.0851703
0.080532
0.077384
0.0749588
0.0730821
0.0716757
0.0706662
0.0699749
0.0695242
0.0692452
0.0690824
0.0689948
0.0689555
0.0689497
0.0689737
0.0690343
0.0691494
0.0693508
0.0696874
0.0702304
0.0710785
0.175119
0.101148
0.0887987
0.0831973
0.0795238
0.0768567
0.0748957
0.0734796
0.0724883
0.0718205
0.0713895
0.0711243
0.0709697
0.0708861
0.0708477
0.0708405
0.0708604
0.0709132
0.0710146
0.0711926
0.0714906
0.0719709
0.0727193
0.199563
0.112077
0.0953265
0.0874701
0.0827593
0.0796933
0.0776267
0.0762207
0.0752736
0.0746505
0.074254
0.0740116
0.0738704
0.0737935
0.0737572
0.0737487
0.0737638
0.073807
0.0738913
0.0740401
0.0742893
0.0746903
0.0753123
0.252799
0.133814
0.105648
0.0933555
0.08712
0.0836479
0.0815657
0.0802551
0.0794136
0.0788754
0.078538
0.0783331
0.0782136
0.0781479
0.0781159
0.0781067
0.0781167
0.0781489
0.0782129
0.0783266
0.0785171
0.0788226
0.0792935
0.413206
0.173753
0.117577
0.0993425
0.0921399
0.0888146
0.0870628
0.086046
0.0854229
0.085034
0.0847929
0.0846468
0.0845611
0.0845133
0.0844893
0.0844812
0.0844862
0.0845061
0.0845468
0.0846196
0.0847418
0.084937
0.0852355
1.58179
0.213105
0.117977
0.101596
0.0970967
0.0954365
0.0946641
0.0942415
0.0939885
0.0938316
0.0937341
0.0936744
0.0936389
0.0936187
0.093608
0.0936038
0.0936049
0.0936116
0.0936261
0.0936523
0.0936964
0.093767
0.0938751
0.284525
0.218829
0.219712
0.288019
0.113335
0.114723
0.11495
0.114298
0.0913428
0.0931409
0.0931563
0.091611
0.0830308
0.0841554
0.0840879
0.0830117
0.078305
0.079064
0.0789589
0.0781378
0.075271
0.0758322
0.0757078
0.0750223
0.0732945
0.0737472
0.0736119
0.0729992
0.0720416
0.0724368
0.0722945
0.0717184
0.0712831
0.0716495
0.0715021
0.0709418
0.0708486
0.0712015
0.0710504
0.0704952
0.0706146
0.0709618
0.070808
0.070253
0.0704963
0.0708416
0.0706863
0.0701301
0.0704396
0.0707849
0.0706291
0.0700719
0.0704116
0.0707584
0.0706032
0.0700461
0.070393
0.070743
0.0705901
0.0700341
0.0703727
0.0707283
0.0705795
0.0700264
0.0703444
0.0707087
0.0705663
0.0700177
0.0703045
0.0706811
0.0705479
0.0700058
0.0702521
0.070645
0.0705237
0.0699899
0.0701892
0.0706016
0.0704946
0.0699708
0.0701199
0.070554
0.0704626
0.0699496
0.0700497
0.0705059
0.0704304
0.0699283
0.069984
0.0704611
0.0704005
0.0699087
0.0699269
0.0704224
0.0703749
0.0698921
0.069881
0.0703916
0.0703549
0.0698794
0.0698469
0.0703691
0.0703408
0.0698711
0.0698243
0.070355
0.0703327
0.0698673
0.0698127
0.070349
0.0703309
0.0698686
0.069812
0.0703514
0.070336
0.0698761
0.0698238
0.0703642
0.0703505
0.0698927
0.0698529
0.0703922
0.0703794
0.0699241
0.0699091
0.070445
0.0704326
0.0699807
0.0700113
0.0705403
0.0705281
0.0700816
0.0701926
0.0707102
0.0706979
0.0702602
0.0705102
0.0710096
0.0709971
0.0705733
0.0710582
0.0715301
0.0715172
0.0711148
0.071985
0.0724174
0.0724044
0.072033
0.0735141
0.0738931
0.0738803
0.0735517
0.0759659
0.0762773
0.0762654
0.0759921
0.0797793
0.0800105
0.0800005
0.0797943
0.0855344
0.0856764
0.0856693
0.0855395
0.093979
0.0940263
0.094023
0.0939757
0.125921
0.09312
0.0834704
0.0799002
0.0782681
0.0774159
0.0769555
0.0767228
0.0766362
0.0766606
0.0767945
0.0770615
0.077494
0.0781075
0.0788659
0.0796719
0.0805736
0.0834901
0.118544
0.0977763
0.0854236
0.0793903
0.0763081
0.0746204
0.0736562
0.073111
0.072831
0.0727367
0.0727966
0.0730173
0.0734336
0.0740939
0.0750382
0.0762774
0.077816
0.0799408
0.085237
0.128027
0.0860113
0.0798462
0.0759423
0.0735267
0.0720318
0.0711144
0.0705758
0.0702995
0.0702233
0.0703279
0.070631
0.0711792
0.0720347
0.0732555
0.0748814
0.0769721
0.0799306
0.0866691
0.13403
0.0796556
0.0758275
0.0731429
0.0713036
0.0700761
0.0692854
0.0688103
0.0685727
0.0685324
0.0686854
0.0690616
0.0697188
0.0707295
0.0721635
0.0740762
0.0765534
0.0800505
0.0876543
0.137803
0.0756549
0.0729209
0.0709656
0.0695688
0.0686004
0.06796
0.0675734
0.0673922
0.0673963
0.0675965
0.0680344
0.0687771
0.0699049
0.0714946
0.0736086
0.0763426
0.0801745
0.0882899
0.140145
0.0729868
0.0708418
0.0693393
0.0682646
0.0675136
0.067015
0.0667194
0.0665982
0.0666472
0.0668897
0.0673772
0.068184
0.0693962
0.071094
0.0733425
0.07624
0.0802732
0.088686
0.141574
0.0712062
0.0693946
0.0681749
0.0673248
0.0667411
0.0663606
0.0661453
0.0660789
0.066168
0.0664456
0.0669708
0.0678236
0.0690937
0.0708633
0.0731978
0.076195
0.0803451
0.0889271
0.14243
0.0700509
0.0684254
0.0673785
0.066678
0.0662144
0.0659239
0.0657727
0.065751
0.0658727
0.0661776
0.06673
0.0676142
0.0689222
0.0707373
0.0731241
0.0761797
0.0803954
0.0890712
0.142933
0.0693329
0.0678057
0.0668596
0.066254
0.0658713
0.0656446
0.0655405
0.0655524
0.0656986
0.0660231
0.0665943
0.067499
0.0688307
0.0706731
0.0730904
0.0761786
0.0804296
0.0891559
0.143224
0.0689089
0.0674292
0.0665387
0.0659898
0.0656586
0.0654742
0.0654024
0.0654376
0.0656009
0.0659389
0.0665222
0.0674395
0.0687853
0.0706434
0.0730776
0.0761831
0.0804523
0.0892051
0.14339
0.0686727
0.0672131
0.066351
0.0658341
0.0655336
0.0653755
0.0653243
0.0653749
0.0655493
0.0658958
0.0664866
0.0674113
0.068765
0.0706316
0.0730746
0.0761888
0.0804669
0.0892333
0.143483
0.0685493
0.0670966
0.0662478
0.0657476
0.0654644
0.0653217
0.0652829
0.0653427
0.065524
0.0658757
0.0664708
0.0673996
0.0687574
0.0706283
0.0730757
0.076194
0.0804762
0.0892493
0.143534
0.0684895
0.0670383
0.0661949
0.0657029
0.0654287
0.0652944
0.0652625
0.0653277
0.0655128
0.0658674
0.0664649
0.0673957
0.0687557
0.0706286
0.0730779
0.076198
0.0804819
0.0892582
0.143563
0.0684629
0.0670116
0.0661701
0.0656817
0.0654118
0.0652818
0.0652536
0.0653216
0.0655088
0.0658649
0.0664635
0.0673953
0.0687562
0.07063
0.07308
0.0762007
0.0804853
0.0892631
0.143578
0.0684519
0.0670008
0.0661599
0.0656729
0.065405
0.0652769
0.0652505
0.0653198
0.065508
0.0658648
0.0664639
0.0673961
0.0687573
0.0706314
0.0730817
0.0762026
0.0804873
0.0892659
0.143587
0.068447
0.066997
0.0661566
0.0656702
0.0654029
0.0652757
0.0652499
0.0653198
0.0655084
0.0658655
0.0664648
0.0673972
0.0687584
0.0706326
0.0730829
0.0762037
0.0804885
0.0892673
0.143591
0.0684433
0.0669958
0.0661561
0.0656699
0.0654029
0.0652759
0.0652504
0.0653205
0.0655092
0.0658663
0.0664656
0.067398
0.0687593
0.0706334
0.0730837
0.0762045
0.0804892
0.0892681
0.143593
0.0684386
0.0669948
0.0661564
0.0656706
0.0654037
0.0652767
0.0652512
0.0653213
0.06551
0.0658671
0.0664663
0.0673987
0.0687599
0.070634
0.0730842
0.0762049
0.0804895
0.0892686
0.143595
0.068432
0.0669934
0.0661568
0.0656714
0.0654045
0.0652775
0.0652519
0.065322
0.0655106
0.0658676
0.0664669
0.0673992
0.0687603
0.0706343
0.0730845
0.0762051
0.0804898
0.0892688
0.143595
0.0684238
0.0669912
0.0661568
0.0656721
0.0654054
0.0652783
0.0652526
0.0653225
0.0655111
0.0658681
0.0664672
0.0673995
0.0687606
0.0706346
0.0730846
0.0762053
0.0804899
0.0892689
0.143596
0.0684146
0.0669886
0.0661566
0.0656727
0.0654061
0.0652789
0.0652531
0.065323
0.0655115
0.0658684
0.0664675
0.0673997
0.0687608
0.0706347
0.0730848
0.0762054
0.08049
0.089269
0.143596
0.0684053
0.066986
0.0661564
0.0656732
0.0654067
0.0652795
0.0652537
0.0653234
0.0655118
0.0658687
0.0664678
0.0673999
0.068761
0.0706349
0.0730849
0.0762055
0.08049
0.089269
0.143596
0.0683969
0.0669837
0.0661564
0.0656739
0.0654075
0.0652802
0.0652543
0.0653239
0.0655123
0.0658691
0.0664681
0.0674002
0.0687612
0.070635
0.073085
0.0762055
0.0804901
0.0892691
0.143596
0.0683901
0.0669822
0.0661568
0.0656749
0.0654086
0.0652812
0.0652551
0.0653247
0.0655129
0.0658696
0.0664686
0.0674006
0.0687615
0.0706353
0.0730852
0.0762057
0.0804902
0.0892692
0.143597
0.0683855
0.066982
0.066158
0.0656764
0.0654101
0.0652827
0.0652564
0.0653259
0.065514
0.0658706
0.0664694
0.0674014
0.0687622
0.0706358
0.0730856
0.076206
0.0804904
0.0892694
0.143597
0.0683835
0.0669834
0.0661604
0.0656791
0.0654127
0.0652851
0.0652587
0.0653279
0.0655159
0.0658724
0.066471
0.0674027
0.0687633
0.0706367
0.0730863
0.0762065
0.0804908
0.0892698
0.143599
0.0683848
0.0669872
0.066165
0.0656837
0.0654172
0.0652893
0.0652626
0.0653317
0.0655194
0.0658755
0.0664739
0.0674053
0.0687655
0.0706385
0.0730877
0.0762076
0.0804916
0.0892707
0.143601
0.0683901
0.0669947
0.0661731
0.0656918
0.065425
0.0652968
0.0652698
0.0653384
0.0655257
0.0658815
0.0664793
0.0674101
0.0687697
0.070642
0.0730905
0.0762097
0.0804933
0.0892723
0.143606
0.0684016
0.0670085
0.0661875
0.0657062
0.065439
0.0653104
0.0652828
0.0653509
0.0655375
0.0658924
0.0664894
0.0674192
0.0687776
0.0706487
0.0730959
0.0762139
0.0804965
0.0892756
0.143615
0.068423
0.067033
0.0662131
0.0657318
0.0654643
0.065335
0.0653066
0.0653736
0.0655591
0.0659128
0.0665083
0.0674363
0.0687927
0.0706615
0.0731063
0.0762221
0.0805031
0.0892824
0.143635
0.0684613
0.0670764
0.0662585
0.0657777
0.0655098
0.0653795
0.0653499
0.0654154
0.0655991
0.0659506
0.0665435
0.0674686
0.0688214
0.0706862
0.0731268
0.0762385
0.0805164
0.0892961
0.143674
0.0685291
0.0671531
0.066339
0.0658595
0.0655913
0.0654598
0.0654283
0.0654914
0.0656722
0.0660202
0.0666089
0.0675289
0.0688758
0.0707338
0.0731669
0.0762713
0.0805436
0.0893243
0.143752
0.0686483
0.0672876
0.0664808
0.0660041
0.0657362
0.0656033
0.0655691
0.0656286
0.0658049
0.0661473
0.0667293
0.0676411
0.0689782
0.0708248
0.0732454
0.0763373
0.0805998
0.0893834
0.143914
0.0688567
0.0675218
0.0667278
0.0662569
0.0659903
0.0658558
0.0658182
0.0658726
0.0660422
0.0663763
0.0669479
0.067847
0.0691687
0.0709975
0.0733984
0.0764705
0.0807177
0.0895094
0.144249
0.069217
0.0679236
0.0671514
0.066691
0.0664278
0.0662923
0.0662505
0.0662982
0.0664586
0.0667808
0.0673372
0.0682175
0.0695167
0.0713198
0.0736936
0.0767398
0.0809692
0.0897859
0.144961
0.0698301
0.0686007
0.067863
0.0674202
0.0671642
0.0670291
0.066983
0.0670228
0.0671715
0.0674777
0.0680134
0.0688676
0.0701364
0.0719073
0.0742525
0.0772813
0.0815151
0.0904152
0.146514
0.0708517
0.0697157
0.0690295
0.0686145
0.0683712
0.0682396
0.0681904
0.0682217
0.0683567
0.0686431
0.0691518
0.0699721
0.071203
0.0729413
0.0752777
0.0783495
0.0827091
0.0919077
0.150022
0.0725113
0.0715036
0.0708899
0.0705154
0.0702929
0.0701694
0.07012
0.0701439
0.0702641
0.0705269
0.0710015
0.0717781
0.0729631
0.0746767
0.0770646
0.0803659
0.0852743
0.0955494
0.158251
0.0751323
0.0742904
0.0737726
0.0734535
0.0732615
0.073153
0.0731077
0.0731266
0.0732315
0.0734659
0.0738959
0.0746116
0.0757315
0.0774212
0.0799524
0.0838604
0.0904179
0.104324
0.178237
0.0791515
0.0785118
0.0781137
0.0778661
0.0777158
0.07763
0.0775942
0.0776105
0.0776984
0.0778956
0.0782611
0.0788796
0.0798787
0.0814808
0.0841611
0.0890804
0.0992682
0.123916
0.229161
0.0851417
0.0847362
0.0844804
0.0843204
0.0842229
0.0841675
0.0841456
0.08416
0.0842249
0.0843681
0.084633
0.0850862
0.0858397
0.0871302
0.0895846
0.0951118
0.110177
0.160945
0.393058
0.0938377
0.0936939
0.0936019
0.0935442
0.0935093
0.0934901
0.0934839
0.0934923
0.0935213
0.0935822
0.0936927
0.0938801
0.0941938
0.0947532
0.0959446
0.0992994
0.112381
0.193667
1.44612
)
;

boundaryField
{
    leftWall
    {
        type            epsilonWallFunction;
        blending        stepwise;
        value           nonuniform List<scalar> 
50
(
3.11056
1.99652
1.99652
1.99652
1.99652
1.99652
1.99652
1.99652
1.99652
1.99652
1.99652
1.99652
1.99652
1.99652
1.99652
1.99652
1.99652
1.99652
1.99652
1.99652
1.99652
1.99652
1.99652
1.99652
1.99652
1.99652
1.99652
1.99652
0.194224
0.0955482
0.108735
0.123022
0.133143
0.139963
0.144423
0.14726
0.149023
0.150114
0.150822
0.151367
0.151947
0.152807
0.154345
0.15731
0.163206
0.175119
0.199563
0.252799
0.413206
1.58179
)
;
    }
    rightWall
    {
        type            epsilonWallFunction;
        blending        stepwise;
        value           nonuniform List<scalar> 
50
(
0.0301192
0.041518
0.058241
0.0718026
0.0830079
0.0924911
0.100715
0.108046
0.118544
0.128027
0.13403
0.137803
0.140145
0.141574
0.14243
0.142933
0.143224
0.14339
0.143483
0.143534
0.143563
0.143578
0.143587
0.143591
0.143593
0.143595
0.143595
0.143596
0.143596
0.143596
0.143596
0.143597
0.143597
0.143599
0.143601
0.143606
0.143615
0.143635
0.143674
0.143752
0.143914
0.144249
0.144961
0.146514
0.150022
0.158251
0.178237
0.229161
0.393058
1.44612
)
;
    }
    lowerWall
    {
        type            epsilonWallFunction;
        blending        stepwise;
        value           nonuniform List<scalar> 
62
(
3.11056
4.22461
4.22461
4.22461
4.22461
4.22461
4.22461
4.22461
4.22461
4.22461
4.22461
4.22461
4.22461
0.117167
0.0993877
0.134685
0.156383
0.166608
0.166094
0.15408
0.12839
0.0854362
0.0240926
0.0240926
0.0410012
0.061542
0.0793228
0.0965262
0.116777
0.151029
0.244323
0.284525
0.218829
0.219712
0.288019
0.0265994
0.0414231
0.0616124
0.0791463
0.0963691
0.117183
0.15275
0.244387
0.0265994
0.0943833
0.141687
0.171777
0.190205
0.201057
0.207126
0.210233
0.211465
0.211342
0.209935
0.206921
0.201603
0.192899
0.179343
0.159059
0.129549
0.087076
0.0301192
)
;
    }
    atmosphere
    {
        type            inletOutlet;
        inletValue      uniform 0.1;
        value           uniform 0.1;
    }
    defaultFaces
    {
        type            empty;
    }
}


// ************************************************************************* //
