/*--------------------------------*- C++ -*----------------------------------*\
| =========                 |                                                 |
| \\      /  F ield         | OpenFOAM: The Open Source CFD Toolbox           |
|  \\    /   O peration     | Version:  2406                                  |
|   \\  /    A nd           | Website:  www.openfoam.com                      |
|    \\/     M anipulation  |                                                 |
\*---------------------------------------------------------------------------*/
FoamFile
{
    version     2.0;
    format      ascii;
    arch        "LSB;label=32;scalar=64";
    class       volScalarField;
    location    "0.35";
    object      k;
}
// * * * * * * * * * * * * * * * * * * * * * * * * * * * * * * * * * * * * * //

dimensions      [0 2 -2 0 0 0 0];

internalField   nonuniform List<scalar> 
2268
(
0.1
0.1
0.1
0.1
0.1
0.1
0.1
0.1
0.1
0.1
0.1
0.1
0.1
0.00883652
0.00756855
0.009339
0.0103573
0.0108284
0.0108194
0.0102949
0.00911007
0.00692589
0.00291361
0.1
0.1
0.1
0.1
0.1
0.1
0.1
0.1
0.1
0.1
0.1
0.1
0.1
0.0140008
0.0176633
0.021209
0.0233116
0.0242998
0.0242858
0.0231875
0.0206941
0.0161024
0.0068996
0.1
0.1
0.1
0.1
0.1
0.1
0.1
0.1
0.1
0.1
0.1
0.1
0.1
0.0178987
0.0229987
0.027216
0.029748
0.0309623
0.0309756
0.0296831
0.0266981
0.0211004
0.00911053
0.1
0.1
0.1
0.1
0.1
0.1
0.1
0.1
0.1
0.1
0.1
0.1
0.1
0.0208952
0.0268597
0.0314669
0.0342426
0.0356013
0.0356663
0.0343219
0.0311278
0.0249485
0.0108489
0.1
0.1
0.1
0.1
0.1
0.1
0.1
0.1
0.1
0.1
0.1
0.1
0.1
0.023302
0.0299063
0.0348164
0.0377706
0.0392478
0.0393901
0.0380837
0.0348535
0.0283479
0.012423
0.1
0.1
0.1
0.1
0.1
0.1
0.1
0.1
0.1
0.1
0.1
0.1
0.1
0.0253046
0.032406
0.0375741
0.0406788
0.0422675
0.0425123
0.0413174
0.0382058
0.03166
0.0141705
0.1
0.1
0.1
0.1
0.1
0.1
0.1
0.1
0.1
0.1
0.1
0.1
0.1
0.0270208
0.0345107
0.0398998
0.043138
0.044838
0.0452082
0.0441879
0.0413496
0.0351748
0.0169098
0.1
0.1
0.1
0.1
0.1
0.1
0.1
0.1
0.1
0.1
0.1
0.1
0.1
0.0285315
0.0363164
0.0418886
0.0452465
0.0470585
0.047572
0.0467745
0.0443446
0.0390917
0.0234305
0.00311762
0.00743526
0.00979231
0.0111651
0.0119768
0.0124509
0.0127177
0.0128557
0.0129101
0.0129023
0.012835
0.0126945
0.0124515
0.0120594
0.0114521
0.0105343
0.00915117
0.00698739
0.00421523
0.00745909
0.017249
0.0222334
0.0251389
0.026855
0.0278588
0.0284264
0.0287215
0.0288371
0.0288172
0.0286671
0.0283583
0.0278299
0.0269847
0.0256814
0.0237121
0.0207396
0.0160969
0.00742444
0.00979618
0.0226148
0.0287238
0.0322466
0.0343304
0.0355581
0.0362589
0.0366259
0.0367681
0.0367364
0.0365361
0.0361326
0.0354524
0.0343788
0.0327403
0.0302826
0.026591
0.0208272
0.00936447
0.0116506
0.0267719
0.0335318
0.0373508
0.0396081
0.0409474
0.0417193
0.0421258
0.0422802
0.0422347
0.0419933
0.0415175
0.0407273
0.0394956
0.0376346
0.0348617
0.0307102
0.0242038
0.0108175
0.0133595
0.0304587
0.0375793
0.0415019
0.0438192
0.0452051
0.0460115
0.0464379
0.0465952
0.0465333
0.046254
0.0457161
0.0448353
0.0434786
0.0414473
0.0384384
0.0339415
0.0268536
0.0119589
0.0153042
0.0340279
0.0411981
0.0450626
0.0473547
0.0487399
0.049554
0.0499852
0.0501377
0.050057
0.0497418
0.0491482
0.0481894
0.0467285
0.0445593
0.0413623
0.0365884
0.0290189
0.0128931
0.0183688
0.0377329
0.0445411
0.0481987
0.0503981
0.0517462
0.0525468
0.0529709
0.0531122
0.0530105
0.0526605
0.0520164
0.0509893
0.0494395
0.0471555
0.0438041
0.0388033
0.0308315
0.0136855
0.0252636
0.0417138
0.0476601
0.0509912
0.0530488
0.054333
0.0551042
0.0555113
0.0556363
0.0555117
0.0551284
0.054438
0.0533503
0.0517236
0.049342
0.045862
0.0406746
0.0323709
0.0143806
0.1
0.1
0.1
0.1
0.1
0.1
0.1
0.1
0.1
0.1
0.1
0.1
0.1
0.0306519
0.0387583
0.044558
0.0480842
0.0500719
0.0508254
0.0504159
0.0487204
0.0453222
0.0390146
0.1
0.1
0.1
0.1
0.1
0.1
0.1
0.1
0.1
0.1
0.1
0.1
0.1
0.0328272
0.0411316
0.0471731
0.0509168
0.0531505
0.0542422
0.0543575
0.0535541
0.0518405
0.0492698
0.1
0.1
0.1
0.1
0.1
0.1
0.1
0.1
0.1
0.1
0.1
0.1
0.1
0.034534
0.0428717
0.0491088
0.0530587
0.0555304
0.0569352
0.0574993
0.0573719
0.056704
0.0557485
0.1
0.1
0.1
0.1
0.1
0.1
0.1
0.1
0.1
0.1
0.1
0.1
0.1
0.0359331
0.0441894
0.0505726
0.0547042
0.0573883
0.05906
0.0599767
0.0603231
0.0602763
0.0600617
0.1
0.1
0.1
0.1
0.1
0.1
0.1
0.1
0.1
0.1
0.1
0.1
0.1
0.0371121
0.0452114
0.0516938
0.0559748
0.0588371
0.0607238
0.061905
0.0625739
0.0629003
0.0630625
0.1
0.1
0.1
0.1
0.1
0.1
0.1
0.1
0.1
0.1
0.1
0.1
0.1
0.0381216
0.0460167
0.0525575
0.0569542
0.0599586
0.0620121
0.063387
0.0642748
0.0648319
0.0652037
0.1
0.1
0.1
0.1
0.1
0.1
0.1
0.1
0.1
0.1
0.1
0.1
0.1
0.0389934
0.0466579
0.0532238
0.0577051
0.0608182
0.0629972
0.0645121
0.0655492
0.0662536
0.0667505
0.1
0.1
0.1
0.1
0.1
0.1
0.1
0.1
0.1
0.1
0.1
0.1
0.1
0.0397496
0.0471727
0.0537379
0.058277
0.0614699
0.0637413
0.0653561
0.0664956
0.0672964
0.0678717
0.1
0.1
0.1
0.1
0.1
0.1
0.1
0.1
0.1
0.1
0.1
0.1
0.1
0.0404068
0.0475898
0.0541358
0.0587111
0.0619602
0.0642974
0.0659825
0.0671919
0.0680566
0.0686823
0.1
0.1
0.1
0.1
0.1
0.1
0.1
0.1
0.1
0.1
0.1
0.1
0.1
0.0409785
0.0479323
0.0544475
0.0590425
0.062329
0.0647114
0.0664444
0.0677007
0.0686072
0.0692652
0.1
0.1
0.1
0.1
0.1
0.1
0.1
0.1
0.1
0.1
0.1
0.1
0.1
0.0414765
0.0482205
0.0546993
0.0593022
0.0626115
0.0650227
0.0667864
0.0680724
0.0690048
0.0696825
0.1
0.1
0.1
0.1
0.1
0.1
0.1
0.1
0.1
0.1
0.1
0.1
0.1
0.041913
0.0484736
0.0549161
0.0595189
0.0628393
0.0652658
0.0670461
0.0683482
0.0692943
0.0699819
0.1
0.1
0.1
0.1
0.1
0.1
0.1
0.1
0.1
0.1
0.1
0.1
0.1
0.042303
0.0487147
0.055125
0.0597215
0.0630423
0.0654715
0.0672556
0.0685617
0.0695112
0.0702004
0.1
0.1
0.1
0.1
0.1
0.1
0.1
0.1
0.1
0.1
0.1
0.1
0.1
0.0426703
0.0489764
0.0553604
0.0599427
0.0632508
0.0656685
0.0674429
0.0687409
0.0696836
0.0703667
0.1
0.1
0.1
0.1
0.1
0.1
0.1
0.1
0.1
0.1
0.1
0.1
0.1
0.0430589
0.0493131
0.0556714
0.0602229
0.0634977
0.0658845
0.0676324
0.0689087
0.0698339
0.0705027
0.1
0.1
0.1
0.1
0.1
0.1
0.1
0.1
0.1
0.1
0.1
0.1
0.1
0.0435625
0.0498216
0.0561312
0.060613
0.0638187
0.0661459
0.0678455
0.0690838
0.0699793
0.070625
0.1
0.1
0.1
0.1
0.1
0.1
0.1
0.1
0.1
0.1
0.1
0.1
0.1
0.0443978
0.0506766
0.0568444
0.0611726
0.0642492
0.066476
0.0680993
0.0692801
0.0701322
0.0707451
0.1
0.1
0.1
0.1
0.1
0.1
0.1
0.1
0.1
0.1
0.1
0.1
0.1
0.0460818
0.0521585
0.0579314
0.0619545
0.0648154
0.0668899
0.0684044
0.0695061
0.0703003
0.0708704
0.1
0.1
0.1
0.1
0.1
0.1
0.1
0.1
0.1
0.1
0.1
0.1
0.1
0.049512
0.054516
0.0594425
0.0629678
0.0655189
0.0673887
0.0687622
0.0697641
0.0704865
0.0710045
0.1
0.1
0.1
0.1
0.1
0.1
0.1
0.1
0.1
0.1
0.1
0.1
0.049587
0.0519576
0.0571987
0.0611997
0.0641436
0.0663284
0.0679565
0.0691643
0.0700499
0.0706892
0.0711474
0.0207386
0.0304356
0.0355285
0.0385708
0.0404672
0.0416675
0.0424457
0.0430055
0.0435489
0.0443681
0.0460318
0.0494627
0.0519423
0.0562274
0.0600343
0.0630576
0.0653989
0.0671969
0.0685659
0.0695948
0.0703541
0.0709032
0.0712966
0.0123379
0.0281017
0.0355227
0.0401612
0.0432455
0.0453592
0.0468579
0.0480023
0.0490303
0.0502146
0.0519032
0.0543843
0.057138
0.0600104
0.0626246
0.0648362
0.0666372
0.0680689
0.069184
0.0700335
0.0706644
0.0711211
0.0714479
0.0134545
0.0307845
0.0389716
0.0442027
0.0477924
0.0503324
0.0521846
0.053611
0.0548316
0.0560553
0.0574761
0.0591959
0.0610766
0.0630026
0.064818
0.0664242
0.0677835
0.0688957
0.0697792
0.0704601
0.0709681
0.0713351
0.0715967
0.0146827
0.0331572
0.0418064
0.0473513
0.0512122
0.053991
0.0560449
0.0576245
0.0589268
0.0601164
0.0613227
0.0626117
0.0639586
0.0653142
0.0666075
0.0677793
0.0687957
0.0696442
0.0703277
0.0708583
0.0712542
0.0715382
0.0717389
0.0155394
0.034906
0.0439109
0.0496735
0.0537096
0.0566395
0.0588188
0.0604881
0.0618271
0.0629752
0.0640361
0.0650704
0.066093
0.0670921
0.0680388
0.0689021
0.0696591
0.0702977
0.0708155
0.0712178
0.0715157
0.071726
0.071872
0.0161157
0.0361355
0.0454253
0.0513612
0.0555288
0.0585664
0.0608314
0.0625585
0.0639167
0.0650322
0.0659975
0.0668733
0.0676906
0.0684583
0.0691703
0.0698142
0.070378
0.0708535
0.0712382
0.0715345
0.0717499
0.0718972
0.0719959
0.0164962
0.0369784
0.0464931
0.0525729
0.0568479
0.0599703
0.0623001
0.0640695
0.0654413
0.066535
0.0674381
0.068212
0.0688953
0.0695085
0.0700592
0.0705468
0.0709679
0.0713192
0.0715995
0.0718109
0.0719589
0.0720541
0.0721131
0.0167424
0.037545
0.047234
0.0534334
0.0577994
0.0609928
0.0633761
0.0651803
0.0665652
0.0676467
0.0685101
0.0692174
0.0698116
0.0703202
0.0707589
0.0711351
0.0714518
0.0717098
0.0719102
0.0720553
0.0721499
0.0722031
0.0722299
0.0168991
0.0379211
0.0477438
0.0540422
0.0584865
0.0617419
0.0641722
0.0660077
0.0674067
0.0684836
0.0693227
0.0699867
0.0705214
0.0709586
0.0713193
0.0716164
0.0718575
0.0720467
0.072187
0.0722815
0.0723347
0.0723549
0.0723562
0.016999
0.0381728
0.0480993
0.0544809
0.0589941
0.0623054
0.0647787
0.066644
0.0680588
0.0691368
0.0699622
0.0705986
0.0710936
0.0714821
0.0717888
0.0720302
0.0722171
0.0723564
0.0724524
0.0725089
0.0725309
0.0725258
0.0725071
0.0170662
0.0383519
0.0483645
0.05482
0.0593968
0.0627608
0.0652752
0.0671696
0.0686015
0.0696845
0.0705033
0.0711226
0.0715914
0.0719469
0.0722163
0.0724188
0.0725675
0.0726709
0.0727348
0.0727636
0.0727623
0.0727382
0.0727043
0.0171197
0.038503
0.0485974
0.0551262
0.0597667
0.0631832
0.0657382
0.0676614
0.0691108
0.0702009
0.0710173
0.0716259
0.0720773
0.0724103
0.072654
0.0728294
0.0729512
0.0730293
0.0730704
0.0730793
0.0730611
0.0730229
0.0729776
0.0171777
0.0386716
0.0488606
0.0554725
0.0601829
0.0636545
0.06625
0.0682006
0.0696661
0.0707627
0.0715778
0.0721786
0.0726174
0.0729343
0.0731597
0.073316
0.073419
0.0734795
0.0735046
0.0734995
0.0734693
0.0734212
0.0733675
0.0172626
0.0389169
0.0492354
0.0559529
0.0607444
0.0642738
0.0669073
0.0688802
0.0703562
0.0714547
0.0722656
0.0728579
0.0732852
0.0735889
0.0738002
0.0739424
0.0740319
0.07408
0.0740942
0.0740797
0.0740417
0.073987
0.0739279
0.0174104
0.039332
0.0498448
0.0567021
0.0615861
0.06517
0.0678305
0.069812
0.0712854
0.0723749
0.0731734
0.0737519
0.0741651
0.0744552
0.0746537
0.0747843
0.0748635
0.0749028
0.0749098
0.0748896
0.0748472
0.0747893
0.0747276
0.0176865
0.0400788
0.0508883
0.0579232
0.0628975
0.0665131
0.0691705
0.0711313
0.0725765
0.0736366
0.0744076
0.0749619
0.0753546
0.0756274
0.075812
0.0759313
0.0760018
0.0760346
0.0760371
0.0760144
0.0759711
0.0759134
0.0758524
0.018214
0.0414443
0.0526899
0.0599173
0.0649366
0.068519
0.0711098
0.0729956
0.0743701
0.0753688
0.0760892
0.0766034
0.0769649
0.0772142
0.0773814
0.0774882
0.0775502
0.0775778
0.0775781
0.0775556
0.0775148
0.0774611
0.0774045
0.0192262
0.0439296
0.0557521
0.063099
0.0680247
0.0714376
0.0738499
0.0755759
0.0768178
0.0777114
0.078351
0.0788044
0.0791213
0.0793387
0.0794835
0.0795754
0.0796282
0.0796513
0.0796509
0.0796312
0.0795961
0.0795503
0.0795022
0.0211619
0.048385
0.0607906
0.0679657
0.0724991
0.0755116
0.0775826
0.0790376
0.0800718
0.0808097
0.0813346
0.0817049
0.0819628
0.082139
0.0822561
0.0823301
0.0823726
0.0823912
0.0823913
0.0823764
0.0823497
0.0823152
0.0822794
0.024986
0.0562724
0.0686915
0.0749662
0.0786031
0.0809063
0.0824496
0.0835191
0.0842737
0.0848099
0.0851904
0.0854584
0.0856449
0.0857722
0.0858568
0.0859103
0.0859411
0.0859551
0.085956
0.0859469
0.0859302
0.085909
0.0858876
0.0348839
0.0702475
0.0801768
0.0841905
0.0863202
0.0876347
0.0885124
0.0891223
0.0895545
0.0898629
0.0900827
0.0902381
0.0903465
0.0904208
0.0904702
0.0905017
0.0905201
0.0905288
0.0905304
0.0905267
0.0905196
0.0905111
0.0905035
0.0856164
0.0934228
0.0943188
0.0948373
0.095239
0.0955423
0.0957666
0.0959312
0.0960519
0.0961399
0.0962038
0.0962495
0.0962819
0.0963042
0.0963193
0.096329
0.0963348
0.0963378
0.0963389
0.0963388
0.0963383
0.0963383
0.0963396
0.0261831
0.022026
0.0221047
0.0264736
0.0470448
0.0462181
0.0463884
0.0475682
0.0552162
0.0550882
0.0552703
0.0557655
0.0600117
0.0600733
0.060258
0.060568
0.0632081
0.0633413
0.0635285
0.0637723
0.0654467
0.0656149
0.065805
0.06602
0.0670488
0.0672371
0.0674301
0.067631
0.0682039
0.0684048
0.0686005
0.0687941
0.0690362
0.0692453
0.0694431
0.0696328
0.0696327
0.0698471
0.0700464
0.0702338
0.070058
0.0702753
0.0704752
0.0706609
0.0703608
0.0705791
0.0707786
0.0709624
0.0705787
0.070796
0.0709938
0.0711754
0.0707405
0.0709547
0.0711495
0.0713278
0.0708678
0.0710768
0.0712667
0.0714406
0.0709767
0.0711781
0.0713613
0.0715292
0.0710785
0.0712697
0.071444
0.0716042
0.0711806
0.0713589
0.0715221
0.0716729
0.0712868
0.0714497
0.0715998
0.0717396
0.0713979
0.0715434
0.0716788
0.0718062
0.0715128
0.0716396
0.0717591
0.0718732
0.0716289
0.0717363
0.0718395
0.0719401
0.071743
0.0718314
0.0719186
0.0720058
0.0718525
0.0719231
0.0719952
0.0720697
0.0719562
0.0720105
0.0720689
0.0721319
0.0720543
0.0720945
0.0721408
0.0721937
0.0721499
0.0721781
0.0722141
0.0722584
0.0722488
0.0722671
0.0722947
0.0723319
0.0723608
0.0723711
0.072392
0.0724235
0.0725005
0.0725045
0.07252
0.072547
0.0726889
0.0726881
0.0726994
0.0727228
0.0729555
0.0729509
0.0729589
0.0729797
0.0733405
0.073333
0.0733385
0.0733571
0.0738974
0.0738878
0.0738914
0.0739081
0.0746953
0.0746844
0.0746864
0.0747014
0.0758199
0.0758085
0.0758094
0.0758226
0.0773741
0.0773631
0.0773631
0.0773742
0.0794763
0.0794666
0.079466
0.0794745
0.0822601
0.0822527
0.0822517
0.0822572
0.0858764
0.0858719
0.0858709
0.0858732
0.0905002
0.0904987
0.0904979
0.0904975
0.0963413
0.0963419
0.0963415
0.0963401
0.0406101
0.0478533
0.0521316
0.0548712
0.0566644
0.057822
0.0585294
0.0588987
0.0589918
0.0588295
0.0583961
0.0576396
0.0564672
0.0547349
0.0522214
0.0485708
0.0431427
0.0344183
0.0153561
0.0505812
0.0542065
0.0569669
0.0589763
0.0603911
0.0613449
0.061937
0.0622341
0.0622714
0.0620542
0.0615573
0.0607231
0.0594556
0.0576069
0.05495
0.0511174
0.0454398
0.0362984
0.016232
0.0569665
0.0589652
0.0607607
0.0622032
0.0632836
0.0640377
0.0645073
0.0647232
0.0646987
0.0644249
0.063868
0.0629647
0.061615
0.0596673
0.0568895
0.0529043
0.0470205
0.0375529
0.0167883
0.0612586
0.0624925
0.0636985
0.0647326
0.065542
0.066119
0.0664714
0.0666058
0.0665185
0.0661891
0.0655759
0.0646105
0.0631888
0.0611558
0.0582744
0.0541598
0.0481055
0.0383852
0.0171422
0.0642634
0.0651064
0.0659516
0.0667004
0.0673006
0.0677293
0.0679768
0.0680348
0.0678875
0.0675054
0.0668405
0.0658195
0.0643349
0.0622282
0.0592585
0.0550355
0.048843
0.0389319
0.0173658
0.0664176
0.0670456
0.0676657
0.0682174
0.0686601
0.0689689
0.0691268
0.0691165
0.0689142
0.068484
0.0677725
0.0667026
0.0651636
0.0629942
0.0599505
0.0556387
0.0493377
0.0392861
0.0175052
0.0679797
0.0684824
0.0689589
0.0693741
0.0697
0.0699144
0.069998
0.0699289
0.0696783
0.0692056
0.0684533
0.0673412
0.065756
0.0635344
0.0604303
0.0560481
0.0496642
0.039512
0.0175907
0.0691155
0.0695418
0.0699246
0.0702453
0.0704852
0.0706267
0.0706504
0.0705323
0.0702406
0.0697315
0.0689445
0.067797
0.0661737
0.0639097
0.0607578
0.0563213
0.0498762
0.0396536
0.0176423
0.0699381
0.0703165
0.0706373
0.070892
0.0710694
0.0711555
0.071132
0.0709743
0.0706488
0.0701094
0.0692938
0.0681174
0.0664636
0.0641662
0.0609774
0.0565005
0.0500113
0.0397409
0.0176729
0.0705291
0.0708766
0.0711559
0.0713647
0.0714969
0.0715416
0.0714819
0.0712931
0.0709405
0.0703769
0.0695383
0.0683391
0.0666614
0.0643385
0.0611223
0.0566159
0.050096
0.0397938
0.0176907
0.0709495
0.0712765
0.0715277
0.0717046
0.0718046
0.0718189
0.0717319
0.0715192
0.0711457
0.0705631
0.0697067
0.0684899
0.0667941
0.0644523
0.0612161
0.0566891
0.0501483
0.0398254
0.017701
0.0712459
0.0715587
0.0717904
0.0719452
0.0720222
0.0720146
0.0719076
0.071677
0.0712876
0.0706907
0.0698208
0.0685908
0.0668817
0.0645262
0.061276
0.0567347
0.0501801
0.0398441
0.0177069
0.0714539
0.0717558
0.0719738
0.0721128
0.0721737
0.0721504
0.0720289
0.0717853
0.0713842
0.0707766
0.0698969
0.0686572
0.0669386
0.0645734
0.0613135
0.0567628
0.0501991
0.0398549
0.0177102
0.0716006
0.0718934
0.0721008
0.0722284
0.0722777
0.0722432
0.0721114
0.0718584
0.0714489
0.0708337
0.0699468
0.0687004
0.066975
0.0646032
0.0613368
0.0567798
0.0502104
0.0398611
0.017712
0.0717064
0.0719901
0.0721887
0.0723077
0.0723484
0.072306
0.0721667
0.0719071
0.0714917
0.0708711
0.0699792
0.068728
0.066998
0.0646218
0.061351
0.05679
0.050217
0.0398647
0.017713
0.0717861
0.0720601
0.0722505
0.0723622
0.0723964
0.072348
0.0722035
0.0719392
0.0715196
0.0708952
0.0699998
0.0687454
0.0670124
0.0646331
0.0613596
0.056796
0.0502208
0.0398667
0.0177136
0.0718501
0.0721131
0.0722952
0.0724004
0.0724292
0.0723763
0.0722279
0.0719602
0.0715376
0.0709106
0.0700129
0.0687563
0.0670212
0.06464
0.0613647
0.0567996
0.050223
0.0398678
0.0177139
0.0719056
0.0721559
0.0723292
0.0724281
0.0724522
0.0723955
0.0722441
0.071974
0.0715493
0.0709205
0.0700212
0.068763
0.0670266
0.0646442
0.0613678
0.0568017
0.0502243
0.0398684
0.0177141
0.0719568
0.0721929
0.0723568
0.0724493
0.0724689
0.072409
0.0722552
0.0719831
0.0715569
0.0709268
0.0700264
0.0687673
0.06703
0.0646468
0.0613696
0.0568029
0.050225
0.0398688
0.0177141
0.0720062
0.0722268
0.0723807
0.0724666
0.0724818
0.072419
0.0722631
0.0719895
0.0715621
0.0709311
0.0700298
0.06877
0.0670321
0.0646484
0.0613708
0.0568036
0.0502255
0.039869
0.0177142
0.0720548
0.0722589
0.0724024
0.0724817
0.0724927
0.072427
0.0722692
0.0719943
0.071566
0.0709342
0.0700324
0.068772
0.0670337
0.0646495
0.0613715
0.0568041
0.0502257
0.0398691
0.0177142
0.0721027
0.0722902
0.0724231
0.0724957
0.0725025
0.0724342
0.0722747
0.0719986
0.0715694
0.070937
0.0700346
0.0687738
0.067035
0.0646505
0.0613722
0.0568046
0.050226
0.0398692
0.0177142
0.0721499
0.072321
0.0724436
0.0725097
0.0725125
0.0724417
0.0722805
0.0720033
0.0715732
0.0709402
0.0700372
0.0687759
0.0670367
0.0646517
0.0613731
0.0568051
0.0502263
0.0398694
0.0177143
0.0721963
0.0723518
0.0724647
0.0725247
0.0725237
0.0724504
0.0722876
0.0720093
0.0715784
0.0709446
0.070041
0.0687791
0.0670392
0.0646536
0.0613744
0.056806
0.0502268
0.0398696
0.0177143
0.0722425
0.0723838
0.0724878
0.0725422
0.0725376
0.072462
0.0722976
0.0720181
0.0715863
0.0709516
0.0700471
0.0687842
0.0670434
0.0646568
0.0613767
0.0568075
0.0502276
0.03987
0.0177144
0.0722903
0.0724191
0.0725151
0.0725645
0.0725566
0.0724788
0.0723128
0.072032
0.071599
0.0709631
0.0700572
0.068793
0.0670506
0.0646625
0.0613809
0.0568102
0.0502292
0.0398707
0.0177146
0.0723431
0.0724612
0.0725504
0.0725953
0.0725845
0.0725045
0.0723368
0.0720545
0.0716199
0.0709822
0.0700745
0.068808
0.0670632
0.0646726
0.0613884
0.0568153
0.0502322
0.0398722
0.0177149
0.0724068
0.0725159
0.0725993
0.0726404
0.0726268
0.0725448
0.0723752
0.072091
0.0716543
0.0710143
0.0701037
0.0688339
0.0670852
0.0646904
0.0614018
0.0568246
0.0502379
0.0398749
0.0177156
0.0724903
0.0725923
0.0726709
0.0727086
0.0726925
0.0726082
0.0724366
0.07215
0.0717106
0.0710673
0.0701526
0.0688778
0.0671233
0.0647218
0.0614261
0.0568417
0.0502485
0.0398801
0.0177169
0.0726076
0.0727038
0.0727784
0.0728133
0.0727947
0.0727081
0.072534
0.0722446
0.0718017
0.0711539
0.0702336
0.0689516
0.0671884
0.0647765
0.0614693
0.0568729
0.0502683
0.0398902
0.0177195
0.0727785
0.0728701
0.0729415
0.0729737
0.0729527
0.0728637
0.0726868
0.0723941
0.071947
0.0712936
0.0703659
0.0690742
0.0672985
0.0648713
0.061546
0.0569299
0.0503055
0.0399096
0.0177247
0.0730315
0.0731194
0.0731878
0.0732175
0.0731941
0.0731026
0.0729229
0.0726267
0.0721749
0.0715153
0.0705788
0.0692749
0.0674826
0.0650337
0.0616813
0.0570336
0.0503755
0.0399473
0.0177349
0.0734057
0.0734902
0.0735559
0.0735831
0.0735574
0.0734635
0.0732813
0.072982
0.0725262
0.0718607
0.0709153
0.069598
0.0677859
0.0653085
0.0619178
0.0572215
0.0505073
0.0400209
0.0177553
0.0739539
0.0740349
0.0740974
0.074122
0.074094
0.0739984
0.0738147
0.0735142
0.0730567
0.0723881
0.0714368
0.0701085
0.0682768
0.0657673
0.062327
0.0575607
0.0507563
0.0401662
0.0177967
0.0747441
0.0748206
0.0748793
0.0749008
0.074871
0.0747748
0.0745921
0.0742939
0.0738399
0.0731753
0.0722268
0.0708971
0.069055
0.0665187
0.0630254
0.0581684
0.0512274
0.0404565
0.0178825
0.0758614
0.0759317
0.0759849
0.0760028
0.0759717
0.0758771
0.0756992
0.0754097
0.0749685
0.0743208
0.0733924
0.0720833
0.0702566
0.0677199
0.0641927
0.0592418
0.0521154
0.041043
0.0180638
0.0774078
0.0774691
0.0775148
0.0775282
0.0774968
0.0774067
0.0772393
0.0769675
0.0765531
0.0759425
0.0750628
0.0738133
0.0720532
0.0695789
0.0660851
0.0610911
0.0537656
0.0422322
0.0184561
0.0795012
0.0795502
0.079586
0.0795941
0.0795634
0.0794816
0.0793317
0.0790894
0.0787195
0.0781729
0.0773815
0.0762491
0.0746372
0.0723377
0.0690228
0.0641473
0.0567308
0.0446074
0.0193177
0.0822752
0.0823089
0.0823326
0.0823351
0.0823068
0.0822374
0.0821126
0.081912
0.0816062
0.0811538
0.0804965
0.0795507
0.0781924
0.0762269
0.0733268
0.0688973
0.0617562
0.0491444
0.0212012
0.0858817
0.0858988
0.08591
0.0859072
0.0858833
0.0858304
0.0857376
0.0855898
0.0853654
0.0850341
0.0845528
0.0838594
0.0828597
0.0813999
0.0792043
0.0757144
0.069626
0.0572957
0.0253085
0.0904977
0.0905004
0.0905012
0.0904955
0.0904786
0.0904454
0.0903894
0.0903014
0.0901691
0.089975
0.0896948
0.0892934
0.0887181
0.087882
0.0866253
0.0845981
0.0808101
0.0713654
0.0361581
0.0963365
0.0963322
0.0963289
0.0963247
0.096318
0.0963067
0.0962889
0.0962616
0.0962215
0.0961636
0.0960817
0.0959667
0.0958062
0.0955823
0.0952712
0.094848
0.0943014
0.0934756
0.0865345
)
;

boundaryField
{
    leftWall
    {
        type            kqRWallFunction;
        value           nonuniform List<scalar> 
50
(
0.1
0.1
0.1
0.1
0.1
0.1
0.1
0.1
0.1
0.1
0.1
0.1
0.1
0.1
0.1
0.1
0.1
0.1
0.1
0.1
0.1
0.1
0.1
0.1
0.1
0.1
0.1
0.1
0.0207386
0.0123379
0.0134545
0.0146827
0.0155394
0.0161157
0.0164962
0.0167424
0.0168991
0.016999
0.0170662
0.0171197
0.0171777
0.0172626
0.0174104
0.0176865
0.018214
0.0192262
0.0211619
0.024986
0.0348839
0.0856164
)
;
    }
    rightWall
    {
        type            kqRWallFunction;
        value           nonuniform List<scalar> 
50
(
0.00421523
0.00742444
0.00936447
0.0108175
0.0119589
0.0128931
0.0136855
0.0143806
0.0153561
0.016232
0.0167883
0.0171422
0.0173658
0.0175052
0.0175907
0.0176423
0.0176729
0.0176907
0.017701
0.0177069
0.0177102
0.017712
0.017713
0.0177136
0.0177139
0.0177141
0.0177141
0.0177142
0.0177142
0.0177142
0.0177143
0.0177143
0.0177144
0.0177146
0.0177149
0.0177156
0.0177169
0.0177195
0.0177247
0.0177349
0.0177553
0.0177967
0.0178825
0.0180638
0.0184561
0.0193177
0.0212012
0.0253085
0.0361581
0.0865345
)
;
    }
    lowerWall
    {
        type            kqRWallFunction;
        value           nonuniform List<scalar> 
62
(
0.1
0.1
0.1
0.1
0.1
0.1
0.1
0.1
0.1
0.1
0.1
0.1
0.1
0.00883652
0.00756855
0.009339
0.0103573
0.0108284
0.0108194
0.0102949
0.00911007
0.00692589
0.00291361
0.00291361
0.0068996
0.00911053
0.0108489
0.012423
0.0141705
0.0169098
0.0234305
0.0261831
0.022026
0.0221047
0.0264736
0.00311762
0.00745909
0.00979618
0.0116506
0.0133595
0.0153042
0.0183688
0.0252636
0.00311762
0.00743526
0.00979231
0.0111651
0.0119768
0.0124509
0.0127177
0.0128557
0.0129101
0.0129023
0.012835
0.0126945
0.0124515
0.0120594
0.0114521
0.0105343
0.00915117
0.00698739
0.00421523
)
;
    }
    atmosphere
    {
        type            inletOutlet;
        inletValue      uniform 0.1;
        value           uniform 0.1;
    }
    defaultFaces
    {
        type            empty;
    }
}


// ************************************************************************* //
