/*--------------------------------*- C++ -*----------------------------------*\
| =========                 |                                                 |
| \\      /  F ield         | OpenFOAM: The Open Source CFD Toolbox           |
|  \\    /   O peration     | Version:  2406                                  |
|   \\  /    A nd           | Website:  www.openfoam.com                      |
|    \\/     M anipulation  |                                                 |
\*---------------------------------------------------------------------------*/
FoamFile
{
    version     2.0;
    format      ascii;
    arch        "LSB;label=32;scalar=64";
    class       volScalarField;
    location    "0.35";
    object      k;
}
// * * * * * * * * * * * * * * * * * * * * * * * * * * * * * * * * * * * * * //

dimensions      [0 2 -2 0 0 0 0];

internalField   nonuniform List<scalar> 
2268
(
0.00389204
0.006917
0.00925252
0.0107718
0.0118066
0.0125234
0.0130201
0.0133606
0.0135895
0.0137384
0.0138296
0.0138773
0.0138887
0.0138638
0.0137948
0.013664
0.0134402
0.0130724
0.0124772
0.0115165
0.00995452
0.00736764
0.00295627
0.00701458
0.0159889
0.0208886
0.0240883
0.0262696
0.0277801
0.0288276
0.0295477
0.0300342
0.0303531
0.0305501
0.0306545
0.0306809
0.0306297
0.0304847
0.0302101
0.0297419
0.0289751
0.0277378
0.0257448
0.0225115
0.0171695
0.00712346
0.00906
0.0207493
0.0267287
0.0306292
0.0333047
0.0351698
0.0364728
0.0373765
0.0379932
0.0384019
0.0386576
0.0387954
0.0388333
0.0387719
0.0385927
0.0382537
0.0376803
0.0367499
0.035262
0.0328827
0.0290321
0.0225872
0.00956287
0.0106229
0.0241403
0.0307831
0.0350922
0.0380608
0.0401435
0.0416095
0.0426351
0.0433418
0.0438152
0.044115
0.0442795
0.0443286
0.0442638
0.0440661
0.043692
0.0430639
0.0420549
0.0404573
0.0379212
0.0338133
0.0267717
0.0115348
0.0118521
0.0267797
0.0339194
0.0385172
0.0416921
0.0439318
0.0455194
0.0466389
0.0474175
0.0479443
0.0482818
0.0484705
0.0485316
0.0484678
0.048261
0.0478683
0.0472138
0.046173
0.0445433
0.0419776
0.0378144
0.0304606
0.0133259
0.0128421
0.028905
0.0364515
0.0412769
0.0446124
0.046976
0.0486615
0.049859
0.0506987
0.0512722
0.0516437
0.0518553
0.0519295
0.0518703
0.0516613
0.0512621
0.0506009
0.0495608
0.0479522
0.0454475
0.0413928
0.0340239
0.0152699
0.0136518
0.0306464
0.0385394
0.043556
0.0470251
0.049492
0.0512605
0.0525252
0.0534187
0.0540343
0.0544373
0.054671
0.0547593
0.0547078
0.0545023
0.0541061
0.0534533
0.052438
0.0508897
0.0485165
0.0447239
0.0377595
0.0182139
0.0143209
0.0320882
0.0402814
0.045465
0.0490499
0.0516063
0.0534475
0.0547717
0.0557135
0.0563676
0.0568002
0.0570555
0.057159
0.0571178
0.0569206
0.056535
0.0559025
0.0549298
0.0534701
0.0512789
0.0478772
0.041881
0.0251513
0.00314899
0.00777302
0.0103853
0.0118921
0.0127731
0.0132878
0.0135812
0.0137354
0.0137955
0.013782
0.0136977
0.0135294
0.0132492
0.0128119
0.0121491
0.0111549
0.00964908
0.00727532
0.00424463
0.0076157
0.0180144
0.0234086
0.0265255
0.028352
0.0294213
0.0300322
0.0303534
0.030477
0.0304454
0.0302634
0.0299045
0.0293109
0.0283882
0.0269924
0.0248985
0.021728
0.0167421
0.00755291
0.0101096
0.0236129
0.0301052
0.0338151
0.0359978
0.037286
0.0380276
0.038419
0.038567
0.0385203
0.038284
0.0378261
0.0370773
0.0359251
0.0341967
0.031623
0.0277511
0.0216614
0.00962111
0.0121177
0.0279042
0.0349645
0.0389153
0.0412437
0.0426293
0.0434339
0.0438596
0.0440164
0.0439539
0.043676
0.0431475
0.0422933
0.0409917
0.0390559
0.0361942
0.0319108
0.0251451
0.0111965
0.0139538
0.0316632
0.0389885
0.0429827
0.0453406
0.046757
0.0475867
0.0480262
0.0481821
0.0481019
0.0477874
0.0472008
0.0462635
0.0448486
0.042761
0.0396945
0.03512
0.0278503
0.0124353
0.0159914
0.0352577
0.0425432
0.0464269
0.0487329
0.0501342
0.0509626
0.0514011
0.0515489
0.0514489
0.0511003
0.0504628
0.0494553
0.0479475
0.0457389
0.0425121
0.0377082
0.030027
0.0134337
0.0191326
0.0389584
0.0458036
0.0494405
0.0516332
0.0529857
0.0537931
0.0542191
0.0543527
0.054231
0.0538496
0.0531659
0.0520969
0.0505096
0.0481991
0.0448386
0.0398421
0.03181
0.0142509
0.02622
0.0429315
0.0488433
0.0521255
0.0541613
0.0554405
0.0562118
0.0566163
0.0567308
0.0565856
0.0561723
0.0554459
0.0543215
0.0526639
0.0502647
0.0467881
0.0416232
0.0332863
0.0149263
0.0151925
0.0339675
0.0425701
0.0479855
0.0517312
0.0544119
0.0563543
0.057762
0.0587726
0.0594822
0.0599584
0.060247
0.0603755
0.060354
0.060176
0.0598165
0.0592297
0.0583436
0.0570508
0.0551871
0.0524786
0.0483778
0.0414854
0.0159949
0.0357172
0.0447391
0.0504054
0.0543293
0.0571488
0.0592044
0.0607066
0.0617961
0.0625711
0.0631009
0.0634333
0.0635987
0.0636119
0.0634732
0.0631682
0.0626682
0.0619289
0.06089
0.0594741
0.0575871
0.0551264
0.0520374
0.0165398
0.0369226
0.0462621
0.052131
0.0562039
0.059141
0.0612935
0.062877
0.0640353
0.0648683
0.0654472
0.065822
0.066026
0.0660784
0.065986
0.0657444
0.0653392
0.0647482
0.0639451
0.0629061
0.0616254
0.0601472
0.0586374
0.0169069
0.0377502
0.0473299
0.0533617
0.0575589
0.0605964
0.0628323
0.0644864
0.0657049
0.0665897
0.0672137
0.0676288
0.0678714
0.0679646
0.067921
0.0677443
0.0674314
0.0669758
0.0663721
0.0656243
0.0647587
0.063845
0.0630225
0.0171506
0.038313
0.0480732
0.0542347
0.0585346
0.0616567
0.063964
0.0656792
0.0669505
0.0678813
0.0685462
0.0689991
0.0692788
0.0694122
0.0694166
0.0693018
0.069073
0.0687337
0.0682903
0.0677584
0.067171
0.066588
0.066101
0.0173096
0.0386907
0.0485848
0.0548478
0.0592311
0.0624238
0.0647915
0.066559
0.0678759
0.0688472
0.0695488
0.0700363
0.0703507
0.070522
0.070571
0.0705125
0.070357
0.0701142
0.0697962
0.0694219
0.0690216
0.0686401
0.0683353
0.0174114
0.0389402
0.048932
0.0552731
0.0597229
0.062973
0.0653909
0.0672024
0.0685584
0.0695647
0.0702984
0.0708169
0.0711629
0.0713685
0.0714578
0.0714485
0.0713551
0.0711904
0.0709689
0.0707093
0.0704366
0.070183
0.0699855
0.0174754
0.0391022
0.0491639
0.0555638
0.0600653
0.0633613
0.06582
0.0676679
0.0690564
0.0700925
0.070854
0.0713995
0.0717733
0.0720092
0.0721334
0.0721661
0.0721239
0.0720214
0.0718736
0.0716975
0.0715131
0.0713438
0.0712134
0.0175149
0.0392056
0.0493164
0.0557595
0.0603002
0.0636319
0.066123
0.0680002
0.0694155
0.0704763
0.0712612
0.0718297
0.0722272
0.0724891
0.0726429
0.0727105
0.0727096
0.0726559
0.0725639
0.0724487
0.0723264
0.072214
0.0721274
0.0175389
0.0392705
0.0494149
0.055889
0.0604588
0.0638176
0.0663338
0.0682341
0.0696708
0.0707516
0.0715557
0.0721433
0.0725607
0.0728442
0.0730224
0.0731182
0.0731502
0.0731341
0.0730841
0.0730134
0.0729351
0.0728618
0.0728048
0.0175532
0.0393106
0.0494776
0.0559733
0.0605642
0.0639431
0.0664782
0.0683963
0.0698497
0.0709464
0.0717659
0.0723689
0.0728023
0.0731033
0.0733012
0.0734194
0.073477
0.0734896
0.0734708
0.0734324
0.0733854
0.0733394
0.0733025
0.0175616
0.039335
0.0495168
0.0560274
0.0606331
0.0640265
0.0665756
0.068507
0.0699732
0.071082
0.0719136
0.0725287
0.072975
0.0732898
0.073503
0.0736386
0.0737156
0.0737498
0.073754
0.073739
0.0737142
0.0736873
0.0736643
0.0175665
0.0393496
0.049541
0.0560616
0.0606775
0.0640811
0.0666402
0.0685815
0.0700571
0.0711752
0.0720159
0.0726404
0.0730964
0.0734218
0.0736469
0.0737956
0.0738872
0.0739373
0.0739582
0.07396
0.0739508
0.0739372
0.0739239
0.0175693
0.0393583
0.0495557
0.0560828
0.0607056
0.0641163
0.0666825
0.0686307
0.0701132
0.0712381
0.0720856
0.0727171
0.0731806
0.073514
0.0737478
0.0739063
0.0740086
0.0740702
0.0741031
0.0741168
0.0741186
0.0741142
0.0741075
0.0175709
0.0393634
0.0495646
0.0560959
0.0607232
0.0641387
0.0667097
0.0686629
0.0701502
0.07128
0.0721325
0.0727692
0.073238
0.0735773
0.0738176
0.0739831
0.0740932
0.074163
0.0742043
0.0742262
0.0742356
0.0742375
0.0742353
0.0175718
0.0393663
0.0495699
0.0561038
0.0607341
0.0641527
0.066727
0.0686836
0.0701743
0.0713076
0.0721636
0.0728039
0.0732767
0.0736202
0.073865
0.0740356
0.0741511
0.0742266
0.0742738
0.0743014
0.074316
0.0743222
0.074323
0.0175723
0.039368
0.0495729
0.0561085
0.0607407
0.0641614
0.0667379
0.0686967
0.0701898
0.0713254
0.0721839
0.0728268
0.0733023
0.0736487
0.0738968
0.0740709
0.0741901
0.0742696
0.0743208
0.0743522
0.0743703
0.0743793
0.0743822
0.0175726
0.039369
0.0495747
0.0561113
0.0607447
0.0641667
0.0667446
0.0687049
0.0701996
0.0713368
0.072197
0.0728416
0.073319
0.0736675
0.0739178
0.0740943
0.0742161
0.0742982
0.074352
0.0743861
0.0744064
0.0744174
0.0744216
0.0175728
0.0393695
0.0495758
0.056113
0.0607471
0.0641699
0.0667488
0.06871
0.0702057
0.071344
0.0722053
0.0728511
0.0733298
0.0736797
0.0739315
0.0741095
0.074233
0.0743169
0.0743725
0.0744082
0.0744301
0.0744423
0.0744474
0.0175728
0.0393698
0.0495764
0.0561139
0.0607485
0.0641718
0.0667513
0.0687131
0.0702095
0.0713485
0.0722105
0.0728572
0.0733367
0.0736875
0.0739403
0.0741194
0.074244
0.074329
0.0743858
0.0744226
0.0744454
0.0744584
0.074464
0.0175729
0.03937
0.0495767
0.0561145
0.0607493
0.064173
0.0667528
0.068715
0.0702118
0.0713513
0.0722138
0.0728609
0.073341
0.0736924
0.0739458
0.0741256
0.074251
0.0743368
0.0743942
0.0744317
0.0744552
0.0744687
0.0744746
0.0175729
0.0393701
0.0495769
0.0561148
0.0607498
0.0641736
0.0667537
0.0687162
0.0702132
0.071353
0.0722158
0.0728633
0.0733437
0.0736955
0.0739493
0.0741295
0.0742554
0.0743416
0.0743995
0.0744375
0.0744613
0.0744751
0.0744813
0.0175729
0.0393701
0.049577
0.056115
0.06075
0.064174
0.0667542
0.0687168
0.070214
0.071354
0.072217
0.0728647
0.0733453
0.0736974
0.0739515
0.074132
0.0742581
0.0743446
0.0744028
0.074441
0.0744651
0.0744791
0.0744854
0.0175729
0.0393702
0.0495771
0.0561151
0.0607502
0.0641742
0.0667545
0.0687172
0.0702145
0.0713546
0.0722177
0.0728656
0.0733464
0.0736985
0.0739528
0.0741335
0.0742597
0.0743465
0.0744049
0.0744432
0.0744674
0.0744815
0.074488
0.0175729
0.0393702
0.0495771
0.0561152
0.0607503
0.0641744
0.0667547
0.0687175
0.0702148
0.071355
0.0722182
0.0728661
0.073347
0.0736992
0.0739536
0.0741344
0.0742608
0.0743476
0.0744061
0.0744445
0.0744689
0.074483
0.0744895
0.0175729
0.0393702
0.0495771
0.0561152
0.0607503
0.0641745
0.0667548
0.0687176
0.070215
0.0713552
0.0722184
0.0728664
0.0733473
0.0736997
0.0739541
0.0741349
0.0742614
0.0743483
0.0744068
0.0744453
0.0744697
0.0744839
0.0744904
0.0175729
0.0393702
0.0495771
0.0561152
0.0607504
0.0641745
0.0667548
0.0687177
0.0702151
0.0713553
0.0722186
0.0728666
0.0733475
0.0736999
0.0739543
0.0741352
0.0742617
0.0743487
0.0744073
0.0744458
0.0744702
0.0744844
0.074491
0.0175729
0.0393702
0.0495771
0.0561152
0.0607504
0.0641745
0.0667549
0.0687177
0.0702152
0.0713554
0.0722187
0.0728667
0.0733477
0.0737
0.0739545
0.0741354
0.0742619
0.0743489
0.0744075
0.0744461
0.0744705
0.0744848
0.0744913
0.0175729
0.0393702
0.0495771
0.0561152
0.0607504
0.0641745
0.0667549
0.0687177
0.0702152
0.0713554
0.0722187
0.0728667
0.0733477
0.0737001
0.0739546
0.0741355
0.0742621
0.074349
0.0744077
0.0744463
0.0744707
0.0744849
0.0744915
0.0175729
0.0393702
0.0495771
0.0561152
0.0607504
0.0641745
0.0667549
0.0687178
0.0702152
0.0713554
0.0722188
0.0728668
0.0733478
0.0737002
0.0739547
0.0741356
0.0742621
0.0743491
0.0744078
0.0744464
0.0744708
0.074485
0.0744916
0.0175729
0.0393702
0.0495771
0.0561152
0.0607504
0.0641745
0.0667549
0.0687178
0.0702152
0.0713554
0.0722188
0.0728668
0.0733478
0.0737002
0.0739547
0.0741356
0.0742622
0.0743492
0.0744078
0.0744464
0.0744708
0.0744851
0.0744916
0.0175729
0.0393702
0.0495771
0.0561152
0.0607504
0.0641745
0.0667549
0.0687178
0.0702152
0.0713555
0.0722188
0.0728668
0.0733478
0.0737002
0.0739547
0.0741356
0.0742622
0.0743492
0.0744078
0.0744464
0.0744709
0.0744851
0.0744917
0.0175729
0.0393702
0.0495771
0.0561152
0.0607504
0.0641745
0.0667549
0.0687178
0.0702152
0.0713555
0.0722188
0.0728668
0.0733478
0.0737002
0.0739547
0.0741357
0.0742622
0.0743492
0.0744079
0.0744465
0.0744709
0.0744851
0.0744917
0.0175729
0.0393702
0.0495771
0.0561152
0.0607504
0.0641745
0.0667549
0.0687178
0.0702152
0.0713555
0.0722188
0.0728668
0.0733478
0.0737002
0.0739547
0.0741357
0.0742622
0.0743492
0.0744079
0.0744465
0.0744709
0.0744852
0.0744917
0.0175729
0.0393702
0.0495771
0.0561152
0.0607504
0.0641745
0.0667549
0.0687178
0.0702152
0.0713555
0.0722188
0.0728668
0.0733478
0.0737002
0.0739547
0.0741357
0.0742622
0.0743492
0.0744079
0.0744465
0.0744709
0.0744852
0.0744917
0.0175729
0.0393702
0.0495771
0.0561152
0.0607504
0.0641745
0.0667549
0.0687178
0.0702152
0.0713555
0.0722188
0.0728668
0.0733478
0.0737002
0.0739547
0.0741357
0.0742622
0.0743492
0.0744079
0.0744465
0.0744709
0.0744852
0.0744917
0.0175729
0.0393702
0.0495771
0.0561152
0.0607504
0.0641745
0.0667549
0.0687178
0.0702152
0.0713555
0.0722188
0.0728668
0.0733478
0.0737002
0.0739547
0.0741357
0.0742622
0.0743492
0.0744079
0.0744465
0.0744709
0.0744852
0.0744917
0.0175729
0.0393702
0.0495771
0.0561152
0.0607504
0.0641745
0.0667549
0.0687178
0.0702152
0.0713555
0.0722188
0.0728668
0.0733478
0.0737002
0.0739547
0.0741357
0.0742622
0.0743492
0.0744079
0.0744465
0.0744709
0.0744851
0.0744917
0.0175729
0.0393702
0.0495771
0.0561152
0.0607504
0.0641745
0.0667549
0.0687178
0.0702152
0.0713555
0.0722188
0.0728668
0.0733478
0.0737002
0.0739547
0.0741357
0.0742622
0.0743492
0.0744079
0.0744465
0.0744709
0.0744851
0.0744916
0.0175729
0.0393702
0.0495771
0.0561152
0.0607504
0.0641745
0.0667549
0.0687178
0.0702152
0.0713555
0.0722188
0.0728668
0.0733478
0.0737002
0.0739547
0.0741357
0.0742622
0.0743492
0.0744079
0.0744465
0.0744709
0.0744851
0.0744916
0.0175729
0.0393702
0.0495771
0.0561152
0.0607504
0.0641745
0.0667549
0.0687178
0.0702152
0.0713555
0.0722188
0.0728668
0.0733478
0.0737002
0.0739547
0.0741357
0.0742622
0.0743492
0.0744079
0.0744465
0.0744709
0.0744851
0.0744916
0.0175729
0.0393702
0.0495771
0.0561152
0.0607504
0.0641745
0.0667549
0.0687178
0.0702152
0.0713555
0.0722188
0.0728668
0.0733478
0.0737002
0.0739547
0.0741357
0.0742622
0.0743492
0.0744079
0.0744464
0.0744709
0.0744851
0.0744916
0.0278981
0.0234116
0.0233767
0.0277132
0.0495057
0.048495
0.048484
0.0494733
0.0578135
0.0575065
0.0575022
0.0578016
0.062647
0.062516
0.0625129
0.0626379
0.0658961
0.065826
0.0658232
0.0658875
0.0682115
0.0681692
0.0681664
0.0682029
0.0699063
0.0698789
0.0698761
0.0698977
0.0711611
0.0711426
0.0711397
0.0711524
0.0720922
0.0720794
0.0720765
0.0720835
0.0727809
0.0727717
0.0727688
0.072772
0.0732863
0.0732796
0.0732766
0.0732772
0.0736534
0.0736483
0.0736453
0.0736441
0.0739165
0.0739126
0.0739096
0.0739072
0.0741025
0.0740994
0.0740963
0.0740931
0.0742321
0.0742295
0.0742264
0.0742226
0.0743209
0.0743187
0.0743156
0.0743114
0.0743809
0.0743789
0.0743757
0.0743713
0.0744207
0.0744189
0.0744157
0.0744111
0.0744468
0.0744451
0.0744419
0.0744372
0.0744637
0.074462
0.0744588
0.074454
0.0744744
0.0744728
0.0744696
0.0744647
0.0744811
0.0744795
0.0744764
0.0744715
0.0744853
0.0744837
0.0744805
0.0744756
0.0744879
0.0744863
0.0744831
0.0744782
0.0744894
0.0744878
0.0744847
0.0744797
0.0744903
0.0744888
0.0744856
0.0744807
0.0744909
0.0744893
0.0744861
0.0744812
0.0744912
0.0744897
0.0744865
0.0744815
0.0744914
0.0744898
0.0744867
0.0744817
0.0744915
0.07449
0.0744868
0.0744818
0.0744916
0.07449
0.0744868
0.0744819
0.0744916
0.07449
0.0744869
0.0744819
0.0744916
0.0744901
0.0744869
0.074482
0.0744916
0.0744901
0.0744869
0.074482
0.0744916
0.0744901
0.0744869
0.074482
0.0744916
0.0744901
0.0744869
0.074482
0.0744916
0.0744901
0.0744869
0.0744819
0.0744916
0.07449
0.0744869
0.0744819
0.0744916
0.07449
0.0744868
0.0744819
0.0744916
0.07449
0.0744868
0.0744819
0.0744915
0.07449
0.0744868
0.0744819
0.0744915
0.0744899
0.0744868
0.0744818
0.0419583
0.0490838
0.0532353
0.0558932
0.0576449
0.058784
0.0594818
0.0598415
0.0599198
0.0597355
0.0592734
0.0584846
0.0572813
0.0555252
0.0530023
0.049364
0.0439649
0.0352105
0.0158062
0.0521819
0.055515
0.0580883
0.0599855
0.0613373
0.0622561
0.0628262
0.0631046
0.063121
0.0628785
0.0623524
0.0614877
0.0601924
0.0583242
0.0556624
0.0518439
0.0461888
0.0370028
0.0166154
0.0586794
0.0603529
0.0619395
0.0632532
0.0642559
0.0649624
0.0653995
0.0655886
0.0655373
0.0652344
0.0646463
0.0637122
0.0623356
0.0603703
0.0575893
0.0536186
0.0477546
0.0382383
0.0171641
0.0630319
0.0639527
0.0649474
0.0658448
0.0665672
0.0670872
0.0673987
0.0674992
0.0673795
0.0670169
0.0663699
0.0653721
0.0639232
0.0618728
0.0589891
0.05489
0.0488561
0.0390876
0.0175331
0.0660979
0.0666413
0.0672772
0.0678854
0.0683919
0.0687563
0.0689561
0.068974
0.068789
0.0683696
0.0676677
0.0666121
0.065099
0.0629744
0.0600029
0.0557965
0.0496259
0.0396663
0.0177778
0.0683261
0.0686614
0.0690729
0.0694806
0.0698243
0.0700629
0.070167
0.070111
0.0698661
0.0693942
0.0686423
0.0675351
0.0659657
0.0637774
0.0607316
0.056437
0.0501581
0.0400555
0.0179373
0.0699728
0.0701842
0.0704506
0.0707181
0.07094
0.0710787
0.0711031
0.0709831
0.0706851
0.0701663
0.0693698
0.0682175
0.0665995
0.0643573
0.0612501
0.0568843
0.0505212
0.0403133
0.0180395
0.0711984
0.0713316
0.0715012
0.0716697
0.0718007
0.0718613
0.0718206
0.0716467
0.0713028
0.0707433
0.0699082
0.0687171
0.0670582
0.0647713
0.0616144
0.0571924
0.0507653
0.0404813
0.0181037
0.0721109
0.0721927
0.0722961
0.0723939
0.0724573
0.0724575
0.0723647
0.0721463
0.071764
0.0711698
0.0703022
0.0690786
0.067386
0.065063
0.0618667
0.0574015
0.0509267
0.0405889
0.0181433
0.072787
0.0728341
0.0728915
0.0729386
0.072952
0.0729059
0.0727721
0.0725179
0.072104
0.0714814
0.0705869
0.0693368
0.0676171
0.0652655
0.0620388
0.0575411
0.0510318
0.0406568
0.0181674
0.0732839
0.0733071
0.0733322
0.073343
0.0733195
0.0732385
0.0730729
0.0727904
0.0723514
0.0717059
0.0707898
0.0695186
0.0677776
0.0654041
0.0621545
0.057633
0.0510992
0.040699
0.0181818
0.073645
0.0736516
0.0736541
0.0736389
0.0735884
0.0734813
0.0732917
0.0729874
0.0725288
0.0718653
0.0709323
0.0696448
0.0678875
0.0654975
0.062231
0.0576925
0.0511417
0.0407248
0.0181904
0.073904
0.0738992
0.0738858
0.073852
0.0737821
0.0736559
0.0734483
0.0731277
0.072654
0.0719768
0.071031
0.0697311
0.0679617
0.0655595
0.062281
0.0577305
0.0511682
0.0407404
0.0181953
0.0740872
0.0740745
0.07405
0.0740032
0.0739194
0.0737794
0.0735587
0.0732259
0.0727412
0.0720537
0.0710983
0.0697893
0.068011
0.0656001
0.0623131
0.0577544
0.0511845
0.0407497
0.0181982
0.0742148
0.0741966
0.0741646
0.0741087
0.0740151
0.0738654
0.0736353
0.0732937
0.0728008
0.0721059
0.0711435
0.0698279
0.0680433
0.0656263
0.0623334
0.0577693
0.0511943
0.0407552
0.0181998
0.0743023
0.0742804
0.0742432
0.0741812
0.0740808
0.0739243
0.0736875
0.0733397
0.0728411
0.0721409
0.0711735
0.0698532
0.0680641
0.065643
0.0623462
0.0577784
0.0512003
0.0407584
0.0182008
0.0743613
0.0743371
0.0742964
0.0742301
0.0741252
0.0739639
0.0737227
0.0733705
0.0728679
0.0721639
0.0711931
0.0698696
0.0680775
0.0656535
0.0623541
0.057784
0.0512038
0.0407602
0.0182013
0.0744006
0.0743747
0.0743317
0.0742627
0.0741547
0.0739903
0.0737459
0.0733908
0.0728854
0.0721789
0.0712057
0.06988
0.0680859
0.06566
0.0623589
0.0577873
0.0512059
0.0407613
0.0182016
0.0744263
0.0743994
0.0743549
0.074284
0.074174
0.0740075
0.0737611
0.073404
0.0728968
0.0721886
0.0712138
0.0698866
0.0680911
0.0656641
0.0623618
0.0577893
0.0512071
0.0407619
0.0182017
0.0744429
0.0744153
0.0743698
0.0742978
0.0741865
0.0740186
0.0737708
0.0734125
0.072904
0.0721947
0.0712189
0.0698907
0.0680944
0.0656665
0.0623636
0.0577905
0.0512078
0.0407622
0.0182018
0.0744535
0.0744254
0.0743794
0.0743066
0.0741945
0.0740257
0.073777
0.0734179
0.0729086
0.0721985
0.071222
0.0698933
0.0680963
0.065668
0.0623646
0.0577911
0.0512082
0.0407624
0.0182019
0.0744601
0.0744318
0.0743854
0.0743121
0.0741994
0.0740302
0.0737809
0.0734212
0.0729115
0.0722009
0.0712239
0.0698948
0.0680975
0.0656689
0.0623653
0.0577915
0.0512084
0.0407625
0.0182019
0.0744643
0.0744358
0.0743891
0.0743155
0.0742025
0.0740329
0.0737833
0.0734233
0.0729132
0.0722023
0.0712251
0.0698957
0.0680983
0.0656694
0.0623656
0.0577918
0.0512086
0.0407626
0.0182019
0.0744668
0.0744382
0.0743914
0.0743176
0.0742044
0.0740346
0.0737848
0.0734245
0.0729143
0.0722032
0.0712258
0.0698963
0.0680987
0.0656697
0.0623658
0.0577919
0.0512086
0.0407626
0.0182019
0.0744683
0.0744397
0.0743927
0.0743189
0.0742056
0.0740356
0.0737857
0.0734253
0.0729149
0.0722037
0.0712263
0.0698966
0.0680989
0.0656699
0.0623659
0.057792
0.0512087
0.0407626
0.0182019
0.0744692
0.0744405
0.0743936
0.0743196
0.0742063
0.0740362
0.0737862
0.0734258
0.0729153
0.072204
0.0712265
0.0698968
0.0680991
0.06567
0.062366
0.057792
0.0512087
0.0407627
0.0182019
0.0744698
0.0744411
0.0743941
0.0743201
0.0742067
0.0740366
0.0737866
0.073426
0.0729155
0.0722042
0.0712267
0.0698969
0.0680992
0.06567
0.0623661
0.057792
0.0512087
0.0407627
0.0182019
0.0744701
0.0744414
0.0743943
0.0743204
0.0742069
0.0740368
0.0737867
0.0734262
0.0729157
0.0722043
0.0712267
0.069897
0.0680992
0.0656701
0.0623661
0.0577921
0.0512087
0.0407627
0.0182019
0.0744703
0.0744415
0.0743945
0.0743205
0.0742071
0.0740369
0.0737868
0.0734263
0.0729157
0.0722044
0.0712268
0.069897
0.0680992
0.0656701
0.0623661
0.0577921
0.0512087
0.0407627
0.0182019
0.0744704
0.0744416
0.0743946
0.0743206
0.0742072
0.074037
0.0737869
0.0734263
0.0729158
0.0722044
0.0712268
0.0698971
0.0680992
0.0656701
0.0623661
0.0577921
0.0512087
0.0407627
0.0182019
0.0744704
0.0744417
0.0743947
0.0743207
0.0742072
0.074037
0.0737869
0.0734264
0.0729158
0.0722044
0.0712268
0.0698971
0.0680993
0.0656701
0.0623661
0.0577921
0.0512087
0.0407627
0.0182019
0.0744705
0.0744417
0.0743947
0.0743207
0.0742072
0.0740371
0.073787
0.0734264
0.0729158
0.0722045
0.0712268
0.0698971
0.0680993
0.0656701
0.0623661
0.0577921
0.0512087
0.0407627
0.0182019
0.0744705
0.0744417
0.0743947
0.0743207
0.0742072
0.0740371
0.073787
0.0734264
0.0729158
0.0722045
0.0712268
0.0698971
0.0680993
0.0656701
0.0623661
0.0577921
0.0512087
0.0407627
0.0182019
0.0744705
0.0744418
0.0743947
0.0743207
0.0742072
0.0740371
0.073787
0.0734264
0.0729158
0.0722045
0.0712269
0.0698971
0.0680993
0.0656701
0.0623661
0.0577921
0.0512087
0.0407627
0.0182019
0.0744705
0.0744418
0.0743947
0.0743207
0.0742073
0.0740371
0.073787
0.0734264
0.0729158
0.0722045
0.0712269
0.0698971
0.0680993
0.0656701
0.0623661
0.0577921
0.0512087
0.0407627
0.0182019
0.0744705
0.0744418
0.0743947
0.0743207
0.0742073
0.0740371
0.073787
0.0734264
0.0729158
0.0722045
0.0712269
0.0698971
0.0680993
0.0656701
0.0623661
0.0577921
0.0512087
0.0407627
0.0182019
0.0744705
0.0744418
0.0743947
0.0743207
0.0742073
0.0740371
0.073787
0.0734264
0.0729158
0.0722045
0.0712269
0.0698971
0.0680993
0.0656701
0.0623661
0.0577921
0.0512087
0.0407627
0.0182019
0.0744705
0.0744417
0.0743947
0.0743207
0.0742073
0.0740371
0.073787
0.0734264
0.0729158
0.0722045
0.0712269
0.0698971
0.0680993
0.0656701
0.0623661
0.0577921
0.0512087
0.0407627
0.0182019
0.0744705
0.0744417
0.0743947
0.0743207
0.0742072
0.0740371
0.073787
0.0734264
0.0729158
0.0722045
0.0712269
0.0698971
0.0680993
0.0656701
0.0623661
0.0577921
0.0512087
0.0407627
0.0182019
0.0744704
0.0744417
0.0743947
0.0743207
0.0742072
0.0740371
0.073787
0.0734264
0.0729158
0.0722045
0.0712269
0.0698971
0.0680993
0.0656701
0.0623661
0.0577921
0.0512087
0.0407627
0.0182019
0.0744704
0.0744417
0.0743947
0.0743207
0.0742072
0.0740371
0.073787
0.0734264
0.0729158
0.0722045
0.0712269
0.0698971
0.0680993
0.0656701
0.0623661
0.0577921
0.0512087
0.0407627
0.0182019
0.0744704
0.0744417
0.0743947
0.0743207
0.0742072
0.0740371
0.073787
0.0734264
0.0729158
0.0722045
0.0712269
0.0698971
0.0680993
0.0656701
0.0623661
0.0577921
0.0512087
0.0407627
0.0182019
)
;

boundaryField
{
    leftWall
    {
        type            kqRWallFunction;
        value           nonuniform List<scalar> 
50
(
0.00389204
0.00701458
0.00906
0.0106229
0.0118521
0.0128421
0.0136518
0.0143209
0.0151925
0.0159949
0.0165398
0.0169069
0.0171506
0.0173096
0.0174114
0.0174754
0.0175149
0.0175389
0.0175532
0.0175616
0.0175665
0.0175693
0.0175709
0.0175718
0.0175723
0.0175726
0.0175728
0.0175728
0.0175729
0.0175729
0.0175729
0.0175729
0.0175729
0.0175729
0.0175729
0.0175729
0.0175729
0.0175729
0.0175729
0.0175729
0.0175729
0.0175729
0.0175729
0.0175729
0.0175729
0.0175729
0.0175729
0.0175729
0.0175729
0.0175729
)
;
    }
    rightWall
    {
        type            kqRWallFunction;
        value           nonuniform List<scalar> 
50
(
0.00424463
0.00755291
0.00962111
0.0111965
0.0124353
0.0134337
0.0142509
0.0149263
0.0158062
0.0166154
0.0171641
0.0175331
0.0177778
0.0179373
0.0180395
0.0181037
0.0181433
0.0181674
0.0181818
0.0181904
0.0181953
0.0181982
0.0181998
0.0182008
0.0182013
0.0182016
0.0182017
0.0182018
0.0182019
0.0182019
0.0182019
0.0182019
0.0182019
0.0182019
0.0182019
0.0182019
0.0182019
0.0182019
0.0182019
0.0182019
0.0182019
0.0182019
0.0182019
0.0182019
0.0182019
0.0182019
0.0182019
0.0182019
0.0182019
0.0182019
)
;
    }
    lowerWall
    {
        type            kqRWallFunction;
        value           nonuniform List<scalar> 
62
(
0.00389204
0.006917
0.00925252
0.0107718
0.0118066
0.0125234
0.0130201
0.0133606
0.0135895
0.0137384
0.0138296
0.0138773
0.0138887
0.0138638
0.0137948
0.013664
0.0134402
0.0130724
0.0124772
0.0115165
0.00995452
0.00736764
0.00295627
0.00295627
0.00712346
0.00956287
0.0115348
0.0133259
0.0152699
0.0182139
0.0251513
0.0278981
0.0234116
0.0233767
0.0277132
0.00314899
0.0076157
0.0101096
0.0121177
0.0139538
0.0159914
0.0191326
0.02622
0.00314899
0.00777302
0.0103853
0.0118921
0.0127731
0.0132878
0.0135812
0.0137354
0.0137955
0.013782
0.0136977
0.0135294
0.0132492
0.0128119
0.0121491
0.0111549
0.00964908
0.00727532
0.00424463
)
;
    }
    atmosphere
    {
        type            inletOutlet;
        inletValue      uniform 0.1;
        value           nonuniform List<scalar> 
46
(
0.0175729
0.0393702
0.0495771
0.0561152
0.0607504
0.0641745
0.0667549
0.0687178
0.0702152
0.0713555
0.0722188
0.0728668
0.0733478
0.0737002
0.0739547
0.0741357
0.0742622
0.0743492
0.0744079
0.0744464
0.0744709
0.0744851
0.0744916
0.0744915
0.0744899
0.0744868
0.0744818
0.0744704
0.0744417
0.0743947
0.0743207
0.0742072
0.0740371
0.073787
0.0734264
0.0729158
0.0722045
0.0712269
0.0698971
0.0680993
0.0656701
0.0623661
0.0577921
0.0512087
0.0407627
0.0182019
)
;
    }
    defaultFaces
    {
        type            empty;
    }
}


// ************************************************************************* //
