/*--------------------------------*- C++ -*----------------------------------*\
| =========                 |                                                 |
| \\      /  F ield         | OpenFOAM: The Open Source CFD Toolbox           |
|  \\    /   O peration     | Version:  2406                                  |
|   \\  /    A nd           | Website:  www.openfoam.com                      |
|    \\/     M anipulation  |                                                 |
\*---------------------------------------------------------------------------*/
FoamFile
{
    version     2.0;
    format      ascii;
    arch        "LSB;label=32;scalar=64";
    class       volScalarField;
    location    "0.35";
    object      nut;
}
// * * * * * * * * * * * * * * * * * * * * * * * * * * * * * * * * * * * * * //

dimensions      [0 2 -1 0 0 0 0];

internalField   nonuniform List<scalar> 
2268
(
4.94725e-05
5.06292e-05
5.90655e-05
6.41368e-05
6.75103e-05
6.98548e-05
7.15119e-05
7.26835e-05
7.35009e-05
7.40546e-05
7.44074e-05
7.46009e-05
7.46566e-05
7.45758e-05
7.43374e-05
7.38927e-05
7.31556e-05
7.19809e-05
7.01196e-05
6.71205e-05
6.20948e-05
5.29743e-05
3.2122e-05
0.000105296
0.000386844
0.000510439
0.000583372
0.000632097
0.000666302
0.000690741
0.000708194
0.000720482
0.000728874
0.000734267
0.000737258
0.000738166
0.000737018
0.000733525
0.000727005
0.000716242
0.00069918
0.000672241
0.00062881
0.000555482
0.000419829
0.000107279
0.000121121
0.000635335
0.000912463
0.0010851
0.00120385
0.00128894
0.00135067
0.00139528
0.00142697
0.00144878
0.00146289
0.00147079
0.00147329
0.00147047
0.00146161
0.00144503
0.0014177
0.00137455
0.00130681
0.00119866
0.00101967
0.000705509
0.000126071
0.000132206
0.000807512
0.00122285
0.00149417
0.00168562
0.00182513
0.0019276
0.00200237
0.00205592
0.00209304
0.00211723
0.00213094
0.00213548
0.00213102
0.00211641
0.00208893
0.00204367
0.0019724
0.00186111
0.00168492
0.00139823
0.00091575
0.000139899
0.000140455
0.000935892
0.00147079
0.00183398
0.00209601
0.0022898
0.00243375
0.00253974
0.00261625
0.00266967
0.00270479
0.00272493
0.00273195
0.00272612
0.00270594
0.0026677
0.00260479
0.0025061
0.00235279
0.0021118
0.00172392
0.00108774
0.000151609
0.000146876
0.00103654
0.00167466
0.0021218
0.00245072
0.00269732
0.00288242
0.0030199
0.00311993
0.0031903
0.00323696
0.00326408
0.00327404
0.00326728
0.00324201
0.00319374
0.00311439
0.00299047
0.00279915
0.00250043
0.00202215
0.001244
0.000163498
0.000152024
0.00111806
0.00184571
0.00236897
0.00276053
0.00305779
0.00328313
0.00345192
0.00357568
0.00366343
0.0037221
0.00375669
0.0037701
0.00376297
0.00373333
0.00367615
0.00358227
0.00343643
0.00321306
0.00286722
0.00231505
0.00140614
0.000179921
0.000156235
0.00118554
0.00199122
0.00258325
0.00303301
0.00337839
0.00364268
0.00384226
0.00398971
0.00409504
0.0041661
0.00420861
0.00422598
0.00421912
0.00418606
0.00412142
0.0040154
0.00385181
0.0036039
0.00322523
0.00262687
0.00161733
0.000213062
3.31761e-05
5.4485e-05
6.35113e-05
6.82979e-05
7.10361e-05
7.265e-05
7.35911e-05
7.40948e-05
7.42842e-05
7.42138e-05
7.38893e-05
7.32742e-05
7.22907e-05
7.08105e-05
6.86277e-05
6.53903e-05
6.04093e-05
5.19786e-05
5.34171e-05
0.000122951
0.000441896
0.000575924
0.000645735
0.000685408
0.000708796
0.000722471
0.00072979
0.000732486
0.000731315
0.000726338
0.00071703
0.000702288
0.000680321
0.000648282
0.000601288
0.000529464
0.000406125
0.000121154
0.000143618
0.000753713
0.00106852
0.00124033
0.00133965
0.00139866
0.00143328
0.00145179
0.00145848
0.00145522
0.00144216
0.00141799
0.00138006
0.00132415
0.00124376
0.00112816
0.000956423
0.000676092
0.000138334
0.000158923
0.000987024
0.00147533
0.00175224
0.00191468
0.00201182
0.00206896
0.00209943
0.00211017
0.00210419
0.0020817
0.00204061
0.00197666
0.00188328
0.00175061
0.00156287
0.00129071
0.000866186
0.000150456
0.000172041
0.00117946
0.00182728
0.00220329
0.00242605
0.00256007
0.00263912
0.00268113
0.00269544
0.00268608
0.0026533
0.00259419
0.00250304
0.00237113
0.00218575
0.00192719
0.00156035
0.00100926
0.000159522
0.000185665
0.00135456
0.00214902
0.00261327
0.0028899
0.00305735
0.00315645
0.00320889
0.00322596
0.00321251
0.00316871
0.00309088
0.00297198
0.00280147
0.00256431
0.00223793
0.00178362
0.00112209
0.0001666
0.000204756
0.00153468
0.00246143
0.0029973
0.00331815
0.00351393
0.00363031
0.00369156
0.00371035
0.00369203
0.00363656
0.00353954
0.00339275
0.00318411
0.00289681
0.0025063
0.00197194
0.00121385
0.000172286
0.000241639
0.00176209
0.00278579
0.00336699
0.00371942
0.00393715
0.00406735
0.00413542
0.0041547
0.00413067
0.00406297
0.00394649
0.00377194
0.00352603
0.00319066
0.00274007
0.0021328
0.00128998
0.000176942
0.00016167
0.00127417
0.00218763
0.00287824
0.00341396
0.0038322
0.00415667
0.00440467
0.00458994
0.00472379
0.00481529
0.00487122
0.00489586
0.0048906
0.00485369
0.00477963
0.00465834
0.00447347
0.00419924
0.00379475
0.00319613
0.002323
0.00119466
0.000166754
0.00135934
0.00238243
0.00317767
0.00380818
0.00430958
0.00470492
0.00501157
0.00524397
0.00541438
0.00553305
0.00560795
0.00564442
0.0056449
0.00560854
0.00553087
0.00540341
0.00521293
0.00494053
0.00456106
0.00404563
0.0033762
0.00258929
0.000170294
0.00142041
0.0025261
0.00340346
0.00411116
0.00468257
0.00513939
0.0054984
0.005774
0.00597891
0.00612416
0.00621867
0.00626893
0.00627857
0.00624816
0.0061751
0.00605367
0.00587524
0.00562904
0.00530427
0.00489572
0.00441678
0.00392512
0.000172762
0.00146414
0.00263135
0.00357212
0.00434137
0.00497031
0.00547904
0.0058834
0.00619737
0.00643378
0.00660414
0.00671819
0.00678349
0.00680498
0.00678492
0.00672291
0.00661631
0.00646101
0.006253
0.00599112
0.00568212
0.00534903
0.00504263
0.000174468
0.0014951
0.00270739
0.00369619
0.0045135
0.00518858
0.00574001
0.00618255
0.00652962
0.00679392
0.00698726
0.00712005
0.00720082
0.00723584
0.00722904
0.00718218
0.00709542
0.00696834
0.0068015
0.00659895
0.00637165
0.00614172
0.0059458
0.00017563
0.00151666
0.00276135
0.00378577
0.00463978
0.00535099
0.00593666
0.00641051
0.00678534
0.00707362
0.00728734
0.00743744
0.00753331
0.00758243
0.00759023
0.00756037
0.00749525
0.00739704
0.00726903
0.00711743
0.00695341
0.00679483
0.00666629
0.000176408
0.00153138
0.00279886
0.00384914
0.00473052
0.00546937
0.00608181
0.00658067
0.00697815
0.00728648
0.00751772
0.00768324
0.00779316
0.00785597
0.00787837
0.00786553
0.00782151
0.00775013
0.00765605
0.00754593
0.00742957
0.00732041
0.00723463
0.000176918
0.00154123
0.00282438
0.00389302
0.00479437
0.00555385
0.00618671
0.00670504
0.00712052
0.00744514
0.00769101
0.0078698
0.00799223
0.00806758
0.00810359
0.00810652
0.00808158
0.00803358
0.00796768
0.00789022
0.00780926
0.00773461
0.00767697
0.000177246
0.00154767
0.00284139
0.00392277
0.00483835
0.00561287
0.00626094
0.00679405
0.00722348
0.00756099
0.00781871
0.00800855
0.00814167
0.00822798
0.00827597
0.00829268
0.00828408
0.00825549
0.00821215
0.00815977
0.00810482
0.00805446
0.00801582
0.000177452
0.0015518
0.00285249
0.00394253
0.00486802
0.00565327
0.00631239
0.00685646
0.00729642
0.00764387
0.00791093
0.00810968
0.00825161
0.00834709
0.00840513
0.00843334
0.00843813
0.00842505
0.00839922
0.00836571
0.0083297
0.00829645
0.00827084
0.000177581
0.0015544
0.0028596
0.0039554
0.00488766
0.00568039
0.00634736
0.00689936
0.00734709
0.00770201
0.00797623
0.00818195
0.0083309
0.00843376
0.00849992
0.00853734
0.00855269
0.00855161
0.00853902
0.00851941
0.00849703
0.00847581
0.00845917
0.000177659
0.00155601
0.00286407
0.00396364
0.00490042
0.00569825
0.00637068
0.0069283
0.00738163
0.00774203
0.0080216
0.00823263
0.00838699
0.00849561
0.00856808
0.00861262
0.00863604
0.00864397
0.00864114
0.00863159
0.00861888
0.00860604
0.00859558
0.000177705
0.00155698
0.00286683
0.00396881
0.00490856
0.00570981
0.00638596
0.00694747
0.00740475
0.00776909
0.00805257
0.00826753
0.00842595
0.0085389
0.00861615
0.00866602
0.00869541
0.00870993
0.00871413
0.00871173
0.00870577
0.00869872
0.00869248
0.000177733
0.00155757
0.00286852
0.00397202
0.00491368
0.00571717
0.00639582
0.00695997
0.00741998
0.00778707
0.00807334
0.00829114
0.00845253
0.00856866
0.0086494
0.00870316
0.00873687
0.00875609
0.00876525
0.0087678
0.00876649
0.00876338
0.00875998
0.000177749
0.00155791
0.00286953
0.00397398
0.00491685
0.00572179
0.00640207
0.00696799
0.00742985
0.00779884
0.00808705
0.00830686
0.00847036
0.00858876
0.008672
0.00872853
0.00876527
0.00878777
0.00880034
0.00880628
0.00880811
0.00880764
0.00880613
0.000177759
0.00155811
0.00287013
0.00397516
0.00491879
0.00572465
0.00640599
0.00697307
0.00743615
0.00780643
0.00809597
0.00831717
0.00848214
0.00860213
0.00868711
0.00874554
0.00878438
0.00880911
0.00882399
0.0088322
0.00883611
0.00883739
0.00883712
0.000177764
0.00155823
0.00287048
0.00397586
0.00491996
0.00572639
0.00640841
0.00697624
0.00744013
0.00781126
0.00810169
0.00832383
0.0084898
0.00861087
0.00869704
0.00875678
0.00879702
0.00882325
0.00883965
0.00884936
0.00885463
0.00885704
0.00885758
0.000177767
0.0015583
0.00287069
0.00397628
0.00492066
0.00572745
0.00640988
0.00697819
0.0074426
0.00781429
0.00810531
0.00832807
0.00849472
0.00861652
0.00870347
0.00876407
0.00880525
0.00883245
0.00884985
0.00886053
0.00886668
0.0088698
0.00887086
0.000177769
0.00155834
0.00287081
0.00397652
0.00492107
0.00572808
0.00641078
0.00697938
0.00744412
0.00781617
0.00810757
0.00833075
0.00849783
0.0086201
0.00870758
0.00876874
0.00881052
0.00883836
0.0088564
0.00886769
0.00887439
0.00887797
0.00887935
0.00017777
0.00155836
0.00287087
0.00397666
0.00492132
0.00572845
0.00641131
0.0069801
0.00744505
0.00781732
0.00810897
0.00833241
0.00849977
0.00862236
0.00871017
0.0087717
0.00881386
0.0088421
0.00886054
0.00887221
0.00887926
0.00888313
0.0088847
0.00017777
0.00155837
0.00287091
0.00397674
0.00492146
0.00572867
0.00641163
0.00698053
0.00744561
0.00781802
0.00810982
0.00833343
0.00850098
0.00862376
0.00871178
0.00877353
0.00881594
0.00884443
0.00886312
0.00887503
0.00888229
0.00888633
0.00888803
0.00017777
0.00155838
0.00287093
0.00397678
0.00492154
0.0057288
0.00641181
0.00698079
0.00744594
0.00781844
0.00811034
0.00833405
0.00850171
0.00862461
0.00871277
0.00877467
0.00881722
0.00884587
0.00886471
0.00887677
0.00888416
0.0088883
0.00889007
0.000177771
0.00155838
0.00287095
0.00397681
0.00492158
0.00572887
0.00641192
0.00698094
0.00744614
0.00781869
0.00811065
0.00833442
0.00850215
0.00862513
0.00871337
0.00877536
0.008818
0.00884674
0.00886568
0.00887782
0.00888529
0.0088895
0.00889131
0.000177771
0.00155838
0.00287095
0.00397682
0.00492161
0.00572892
0.00641198
0.00698102
0.00744625
0.00781884
0.00811084
0.00833465
0.00850242
0.00862545
0.00871373
0.00877577
0.00881847
0.00884727
0.00886626
0.00887846
0.00888597
0.00889021
0.00889205
0.000177771
0.00155838
0.00287096
0.00397683
0.00492162
0.00572894
0.00641202
0.00698107
0.00744632
0.00781893
0.00811094
0.00833478
0.00850258
0.00862563
0.00871395
0.00877602
0.00881876
0.00884758
0.00886661
0.00887883
0.00888637
0.00889064
0.00889249
0.000177771
0.00155838
0.00287096
0.00397684
0.00492163
0.00572895
0.00641204
0.0069811
0.00744636
0.00781898
0.00811101
0.00833486
0.00850267
0.00862574
0.00871408
0.00877617
0.00881892
0.00884777
0.00886681
0.00887906
0.00888661
0.00889089
0.00889275
0.000177771
0.00155838
0.00287096
0.00397684
0.00492164
0.00572896
0.00641205
0.00698112
0.00744638
0.00781901
0.00811104
0.0083349
0.00850273
0.00862581
0.00871415
0.00877625
0.00881902
0.00884788
0.00886693
0.00887919
0.00888675
0.00889104
0.0088929
0.000177771
0.00155838
0.00287096
0.00397684
0.00492164
0.00572897
0.00641206
0.00698113
0.0074464
0.00781903
0.00811106
0.00833493
0.00850276
0.00862584
0.0087142
0.0087763
0.00881907
0.00884794
0.008867
0.00887926
0.00888683
0.00889112
0.00889299
0.000177771
0.00155838
0.00287096
0.00397684
0.00492164
0.00572897
0.00641206
0.00698113
0.0074464
0.00781904
0.00811108
0.00833494
0.00850277
0.00862587
0.00871422
0.00877633
0.00881911
0.00884797
0.00886704
0.0088793
0.00888688
0.00889117
0.00889304
0.000177771
0.00155838
0.00287096
0.00397684
0.00492164
0.00572897
0.00641206
0.00698114
0.00744641
0.00781904
0.00811108
0.00833495
0.00850278
0.00862588
0.00871424
0.00877635
0.00881913
0.008848
0.00886706
0.00887933
0.0088869
0.0088912
0.00889307
0.000177771
0.00155838
0.00287096
0.00397684
0.00492164
0.00572897
0.00641206
0.00698114
0.00744641
0.00781904
0.00811109
0.00833496
0.00850279
0.00862588
0.00871424
0.00877636
0.00881914
0.00884801
0.00886708
0.00887934
0.00888692
0.00889122
0.00889308
0.000177771
0.00155838
0.00287096
0.00397684
0.00492164
0.00572897
0.00641207
0.00698114
0.00744641
0.00781905
0.00811109
0.00833496
0.00850279
0.00862589
0.00871425
0.00877636
0.00881914
0.00884801
0.00886708
0.00887935
0.00888693
0.00889123
0.0088931
0.000177771
0.00155838
0.00287096
0.00397684
0.00492164
0.00572897
0.00641207
0.00698114
0.00744641
0.00781905
0.00811109
0.00833496
0.0085028
0.00862589
0.00871425
0.00877636
0.00881915
0.00884802
0.00886709
0.00887936
0.00888694
0.00889123
0.0088931
0.000177771
0.00155838
0.00287096
0.00397684
0.00492164
0.00572897
0.00641207
0.00698114
0.00744641
0.00781905
0.00811109
0.00833496
0.0085028
0.00862589
0.00871425
0.00877637
0.00881915
0.00884802
0.00886709
0.00887936
0.00888694
0.00889124
0.00889311
0.000177771
0.00155838
0.00287096
0.00397684
0.00492164
0.00572897
0.00641207
0.00698114
0.00744641
0.00781905
0.00811109
0.00833496
0.0085028
0.00862589
0.00871425
0.00877637
0.00881915
0.00884803
0.0088671
0.00887937
0.00888694
0.00889124
0.00889311
0.000177771
0.00155838
0.00287096
0.00397684
0.00492164
0.00572897
0.00641207
0.00698114
0.00744641
0.00781905
0.00811109
0.00833496
0.0085028
0.00862589
0.00871426
0.00877637
0.00881915
0.00884803
0.0088671
0.00887937
0.00888695
0.00889125
0.00889312
0.000177771
0.00155838
0.00287096
0.00397684
0.00492164
0.00572897
0.00641207
0.00698114
0.00744641
0.00781905
0.00811109
0.00833496
0.0085028
0.0086259
0.00871426
0.00877637
0.00881915
0.00884803
0.0088671
0.00887937
0.00888695
0.00889125
0.00889312
0.000177771
0.00155838
0.00287096
0.00397684
0.00492164
0.00572897
0.00641207
0.00698114
0.00744641
0.00781905
0.00811109
0.00833496
0.0085028
0.0086259
0.00871426
0.00877637
0.00881916
0.00884803
0.0088671
0.00887938
0.00888696
0.00889126
0.00889313
0.000177771
0.00155838
0.00287096
0.00397684
0.00492164
0.00572897
0.00641207
0.00698114
0.00744641
0.00781905
0.00811109
0.00833496
0.0085028
0.0086259
0.00871426
0.00877637
0.00881916
0.00884803
0.00886711
0.00887938
0.00888696
0.00889126
0.00889314
0.000177771
0.00155838
0.00287096
0.00397684
0.00492164
0.00572897
0.00641207
0.00698114
0.00744641
0.00781905
0.00811109
0.00833496
0.0085028
0.0086259
0.00871426
0.00877638
0.00881916
0.00884804
0.00886711
0.00887938
0.00888697
0.00889127
0.00889314
0.000177771
0.00155838
0.00287096
0.00397684
0.00492164
0.00572897
0.00641207
0.00698114
0.00744641
0.00781905
0.00811109
0.00833496
0.0085028
0.0086259
0.00871426
0.00877638
0.00881916
0.00884804
0.00886711
0.00887939
0.00888697
0.00889127
0.00889315
0.000177771
0.00155838
0.00287096
0.00397684
0.00492164
0.00572897
0.00641207
0.00698114
0.00744641
0.00781905
0.00811109
0.00833496
0.0085028
0.0086259
0.00871426
0.00877638
0.00881916
0.00884804
0.00886711
0.00887939
0.00888697
0.00889128
0.00889315
0.000227202
0.000208501
0.00020835
0.000226469
0.00200459
0.00191159
0.00191156
0.00200386
0.00365562
0.00357494
0.00357457
0.00365434
0.00490024
0.00485277
0.00485218
0.00489841
0.00586214
0.00583393
0.0058332
0.00585992
0.00661372
0.00659595
0.00659516
0.0066113
0.00720025
0.00718855
0.00718773
0.00719774
0.007654
0.00764607
0.00764522
0.00765142
0.00800034
0.00799486
0.00799399
0.00799769
0.00826039
0.00825654
0.00825565
0.00825768
0.00845215
0.00844941
0.0084485
0.00844938
0.00859089
0.00858891
0.00858798
0.00858807
0.00868936
0.00868789
0.00868694
0.00868649
0.00875792
0.00875679
0.00875583
0.00875502
0.00880478
0.00880387
0.0088029
0.00880184
0.00883623
0.00883546
0.00883449
0.00883327
0.00885698
0.0088563
0.00885533
0.008854
0.00887045
0.00886983
0.00886885
0.00886746
0.00887905
0.00887848
0.00887749
0.00887606
0.00888448
0.00888392
0.00888294
0.00888148
0.00888785
0.00888731
0.00888632
0.00888485
0.00888992
0.00888938
0.0088884
0.00888691
0.00889117
0.00889064
0.00888966
0.00888817
0.00889192
0.0088914
0.00889041
0.00888892
0.00889237
0.00889185
0.00889086
0.00888936
0.00889263
0.00889211
0.00889112
0.00888962
0.00889279
0.00889226
0.00889127
0.00888978
0.00889287
0.00889235
0.00889136
0.00888987
0.00889293
0.0088924
0.00889141
0.00888992
0.00889295
0.00889243
0.00889144
0.00888995
0.00889297
0.00889245
0.00889146
0.00888996
0.00889298
0.00889246
0.00889147
0.00888997
0.00889299
0.00889247
0.00889148
0.00888998
0.00889299
0.00889247
0.00889148
0.00888999
0.008893
0.00889248
0.00889149
0.00888999
0.00889301
0.00889248
0.00889149
0.00889
0.00889301
0.00889249
0.0088915
0.00889
0.00889302
0.0088925
0.00889151
0.00889001
0.00889303
0.00889251
0.00889152
0.00889002
0.00889304
0.00889251
0.00889153
0.00889003
0.00889304
0.00889252
0.00889154
0.00889004
0.00889305
0.00889253
0.00889154
0.00889004
0.00125232
0.00245561
0.00335484
0.0039446
0.0043247
0.00456663
0.00471304
0.00478859
0.00480647
0.00477184
0.00468359
0.00453545
0.00431672
0.00401261
0.0036037
0.00306349
0.00235085
0.00139024
0.000182956
0.00262816
0.00347791
0.00417968
0.00469785
0.00506014
0.00530195
0.00545083
0.00552493
0.00553425
0.00548188
0.00536505
0.00517588
0.00490226
0.00452828
0.0040341
0.00339374
0.00256804
0.00148677
0.000188579
0.00394302
0.00448502
0.00499737
0.00541596
0.00573017
0.00594891
0.00608464
0.00614723
0.00614189
0.00606866
0.00592256
0.00569415
0.0053702
0.00493439
0.00436725
0.00364423
0.00272889
0.00155608
0.00019249
0.00504941
0.00539166
0.00575361
0.00607456
0.00632957
0.00651251
0.00662463
0.00666832
0.00664379
0.00654772
0.00637278
0.00610795
0.0057392
0.00525013
0.0046221
0.00383235
0.00284714
0.00160574
0.000195211
0.00594721
0.00616685
0.0064186
0.00665592
0.00685227
0.00699487
0.0070781
0.00709863
0.00705239
0.00693287
0.00673052
0.00643291
0.00602534
0.00549158
0.00481396
0.00397148
0.00293286
0.00164093
0.00019709
0.00666496
0.00680823
0.00698149
0.00715168
0.00729565
0.00739882
0.00745197
0.00744796
0.0073794
0.00723715
0.00700972
0.00668343
0.00624312
0.00567278
0.00495571
0.00407249
0.00299389
0.00166546
0.000198367
0.00723173
0.00732584
0.00744346
0.0075616
0.00766153
0.00772921
0.00775389
0.00772616
0.00763628
0.00747307
0.00722347
0.00687284
0.00640561
0.00580608
0.00505837
0.00414437
0.00303648
0.00168222
0.000199222
0.00767306
0.00773449
0.00781255
0.00789116
0.00795553
0.00799298
0.00799242
0.00794324
0.00783414
0.00765244
0.00738393
0.0070132
0.00652444
0.00590216
0.0051312
0.00419447
0.00306559
0.00169344
0.000199782
0.00801119
0.00805039
0.00810026
0.00814929
0.00818577
0.00819854
0.00817672
0.00810911
0.00798348
0.00778614
0.00750202
0.00711517
0.00660959
0.00597002
0.00518181
0.00422867
0.00308508
0.0017008
0.000200142
0.00826569
0.00828954
0.00831934
0.00834653
0.00836171
0.008355
0.00831597
0.00823322
0.00809396
0.00788385
0.00758724
0.0071878
0.00666942
0.006017
0.0052163
0.00425156
0.00309787
0.00170554
0.00020037
0.00845363
0.00846685
0.00848243
0.00849375
0.00849302
0.0084714
0.00841891
0.00832416
0.00817406
0.00795388
0.00764757
0.00723856
0.00671067
0.00604893
0.00523936
0.0042666
0.00310611
0.00170852
0.000200511
0.00858974
0.00859562
0.00860122
0.00860118
0.00858882
0.00855609
0.00849341
0.00838946
0.00823103
0.00800313
0.0076895
0.00727339
0.0067386
0.00607023
0.00525451
0.00427631
0.00311133
0.00171038
0.000200597
0.00868641
0.00868726
0.00868593
0.0086779
0.00865722
0.00861641
0.00854623
0.00843544
0.00827079
0.00803716
0.00771814
0.00729689
0.0067572
0.00608421
0.00526429
0.00428247
0.00311458
0.00171151
0.000200649
0.00875375
0.00875118
0.00874513
0.00873157
0.00870507
0.00865853
0.00858295
0.00846721
0.00829804
0.00806026
0.00773737
0.00731249
0.00676938
0.00609324
0.00527052
0.00428633
0.00311657
0.00171219
0.00020068
0.00879978
0.00879494
0.0087857
0.00876838
0.00873788
0.00868737
0.00860801
0.00848878
0.00831641
0.00807569
0.00775009
0.00732268
0.00677724
0.00609899
0.00527443
0.00428871
0.00311778
0.0017126
0.000200698
0.00883069
0.00882435
0.00881299
0.00879317
0.00875998
0.00870676
0.00862481
0.00850317
0.00832858
0.00808583
0.00775837
0.00732925
0.00678225
0.00610261
0.00527685
0.00429016
0.00311851
0.00171284
0.000200708
0.00885109
0.00884377
0.00883104
0.00880957
0.0087746
0.00871958
0.00863589
0.00851262
0.00833653
0.00809241
0.00776369
0.00733343
0.0067854
0.00610485
0.00527833
0.00429104
0.00311894
0.00171298
0.000200715
0.00886433
0.00885639
0.00884277
0.00882025
0.00878412
0.00872792
0.00864309
0.00851873
0.00834165
0.00809661
0.00776706
0.00733605
0.00678736
0.00610623
0.00527923
0.00429156
0.00311919
0.00171306
0.000200718
0.00887279
0.00886446
0.00885029
0.00882709
0.00879022
0.00873326
0.00864769
0.00852263
0.0083449
0.00809927
0.00776917
0.00733768
0.00678856
0.00610707
0.00527977
0.00429187
0.00311934
0.0017131
0.00020072
0.00887813
0.00886955
0.00885503
0.00883141
0.00879407
0.00873664
0.00865059
0.00852509
0.00834693
0.00810092
0.00777048
0.00733868
0.00678929
0.00610757
0.00528009
0.00429205
0.00311943
0.00171313
0.000200721
0.00888144
0.00887271
0.00885798
0.0088341
0.00879648
0.00873874
0.0086524
0.00852661
0.00834819
0.00810194
0.00777128
0.00733929
0.00678973
0.00610787
0.00528028
0.00429216
0.00311948
0.00171314
0.000200722
0.00888348
0.00887466
0.0088598
0.00883576
0.00879796
0.00874004
0.00865351
0.00852755
0.00834896
0.00810256
0.00777177
0.00733965
0.00678999
0.00610805
0.00528039
0.00429222
0.0031195
0.00171315
0.000200722
0.00888471
0.00887584
0.0088609
0.00883676
0.00879886
0.00874083
0.00865419
0.00852812
0.00834943
0.00810293
0.00777206
0.00733987
0.00679015
0.00610815
0.00528045
0.00429225
0.00311952
0.00171316
0.000200722
0.00888545
0.00887655
0.00886156
0.00883737
0.0087994
0.0087413
0.0086546
0.00852846
0.00834971
0.00810316
0.00777223
0.00734
0.00679024
0.00610821
0.00528049
0.00429227
0.00311953
0.00171316
0.000200722
0.00888589
0.00887697
0.00886196
0.00883773
0.00879972
0.00874158
0.00865484
0.00852866
0.00834988
0.00810329
0.00777233
0.00734008
0.00679029
0.00610825
0.00528051
0.00429229
0.00311953
0.00171316
0.000200722
0.00888615
0.00887722
0.00886219
0.00883794
0.00879991
0.00874175
0.00865498
0.00852878
0.00834998
0.00810337
0.00777239
0.00734012
0.00679032
0.00610827
0.00528052
0.00429229
0.00311954
0.00171316
0.000200722
0.0088863
0.00887736
0.00886232
0.00883806
0.00880002
0.00874185
0.00865506
0.00852885
0.00835003
0.00810341
0.00777243
0.00734014
0.00679034
0.00610828
0.00528053
0.0042923
0.00311954
0.00171316
0.000200722
0.00888639
0.00887744
0.0088624
0.00883814
0.00880009
0.0087419
0.00865511
0.00852889
0.00835007
0.00810344
0.00777245
0.00734016
0.00679035
0.00610829
0.00528053
0.0042923
0.00311954
0.00171316
0.000200722
0.00888644
0.00887749
0.00886245
0.00883818
0.00880012
0.00874194
0.00865514
0.00852891
0.00835009
0.00810345
0.00777246
0.00734017
0.00679035
0.00610829
0.00528053
0.0042923
0.00311954
0.00171316
0.000200722
0.00888647
0.00887752
0.00886247
0.0088382
0.00880014
0.00874195
0.00865516
0.00852893
0.0083501
0.00810346
0.00777246
0.00734017
0.00679036
0.00610829
0.00528053
0.0042923
0.00311954
0.00171316
0.000200722
0.00888648
0.00887753
0.00886249
0.00883821
0.00880016
0.00874197
0.00865517
0.00852894
0.0083501
0.00810347
0.00777247
0.00734017
0.00679036
0.00610829
0.00528054
0.0042923
0.00311954
0.00171316
0.000200722
0.00888649
0.00887754
0.0088625
0.00883822
0.00880016
0.00874197
0.00865517
0.00852894
0.00835011
0.00810347
0.00777247
0.00734018
0.00679036
0.0061083
0.00528054
0.0042923
0.00311954
0.00171316
0.000200722
0.0088865
0.00887755
0.0088625
0.00883823
0.00880017
0.00874198
0.00865517
0.00852894
0.00835011
0.00810347
0.00777247
0.00734018
0.00679036
0.0061083
0.00528054
0.0042923
0.00311954
0.00171316
0.000200722
0.00888651
0.00887756
0.00886251
0.00883823
0.00880017
0.00874198
0.00865518
0.00852894
0.00835011
0.00810347
0.00777247
0.00734018
0.00679036
0.0061083
0.00528054
0.0042923
0.00311954
0.00171316
0.000200722
0.00888651
0.00887756
0.00886251
0.00883824
0.00880018
0.00874198
0.00865518
0.00852895
0.00835011
0.00810347
0.00777247
0.00734018
0.00679036
0.0061083
0.00528054
0.0042923
0.00311954
0.00171316
0.000200722
0.00888652
0.00887757
0.00886252
0.00883824
0.00880018
0.00874198
0.00865518
0.00852895
0.00835011
0.00810347
0.00777247
0.00734018
0.00679036
0.0061083
0.00528054
0.0042923
0.00311954
0.00171316
0.000200722
0.00888652
0.00887757
0.00886252
0.00883824
0.00880018
0.00874199
0.00865518
0.00852895
0.00835011
0.00810347
0.00777247
0.00734018
0.00679036
0.0061083
0.00528054
0.0042923
0.00311954
0.00171316
0.000200722
0.00888653
0.00887758
0.00886253
0.00883825
0.00880018
0.00874199
0.00865518
0.00852895
0.00835011
0.00810347
0.00777247
0.00734018
0.00679036
0.0061083
0.00528054
0.0042923
0.00311954
0.00171316
0.000200722
0.00888654
0.00887758
0.00886253
0.00883825
0.00880019
0.00874199
0.00865519
0.00852895
0.00835011
0.00810347
0.00777247
0.00734018
0.00679036
0.0061083
0.00528054
0.0042923
0.00311954
0.00171316
0.000200722
0.00888655
0.00887759
0.00886254
0.00883826
0.00880019
0.00874199
0.00865519
0.00852895
0.00835011
0.00810348
0.00777248
0.00734018
0.00679036
0.0061083
0.00528054
0.0042923
0.00311954
0.00171316
0.000200722
0.00888655
0.0088776
0.00886254
0.00883826
0.00880019
0.00874199
0.00865519
0.00852895
0.00835012
0.00810348
0.00777248
0.00734018
0.00679036
0.0061083
0.00528054
0.0042923
0.00311954
0.00171316
0.000200722
0.00888656
0.0088776
0.00886254
0.00883826
0.00880019
0.00874199
0.00865519
0.00852895
0.00835012
0.00810348
0.00777248
0.00734018
0.00679036
0.0061083
0.00528054
0.0042923
0.00311954
0.00171316
0.000200722
)
;

boundaryField
{
    leftWall
    {
        type            nutkWallFunction;
        blending        stepwise;
        value           nonuniform List<scalar> 
50
(
3.10376e-06
7.89027e-06
1.0375e-05
1.20635e-05
1.32939e-05
1.42329e-05
1.49707e-05
1.55617e-05
1.63084e-05
1.69745e-05
1.74162e-05
1.7709e-05
1.79014e-05
1.80261e-05
1.81056e-05
1.81554e-05
1.81862e-05
1.82048e-05
1.82159e-05
1.82224e-05
1.82262e-05
1.82284e-05
1.82296e-05
1.82303e-05
1.82307e-05
1.82309e-05
1.82311e-05
1.82311e-05
1.82312e-05
1.82312e-05
1.82312e-05
1.82312e-05
1.82312e-05
1.82312e-05
1.82312e-05
1.82312e-05
1.82312e-05
1.82312e-05
1.82312e-05
1.82312e-05
1.82312e-05
1.82312e-05
1.82312e-05
1.82312e-05
1.82312e-05
1.82312e-05
1.82312e-05
1.82312e-05
1.82312e-05
1.82312e-05
)
;
    }
    rightWall
    {
        type            nutkWallFunction;
        blending        stepwise;
        value           nonuniform List<scalar> 
50
(
5.36955e-06
1.06705e-05
1.33174e-05
1.51215e-05
1.64407e-05
1.74503e-05
1.82454e-05
1.88831e-05
1.96898e-05
2.04093e-05
2.0886e-05
2.12017e-05
2.1409e-05
2.15432e-05
2.16288e-05
2.16825e-05
2.17156e-05
2.17357e-05
2.17477e-05
2.17548e-05
2.17589e-05
2.17613e-05
2.17627e-05
2.17635e-05
2.17639e-05
2.17641e-05
2.17643e-05
2.17644e-05
2.17644e-05
2.17644e-05
2.17644e-05
2.17644e-05
2.17644e-05
2.17644e-05
2.17644e-05
2.17644e-05
2.17644e-05
2.17644e-05
2.17644e-05
2.17644e-05
2.17644e-05
2.17644e-05
2.17644e-05
2.17644e-05
2.17644e-05
2.17644e-05
2.17644e-05
2.17644e-05
2.17644e-05
2.17644e-05
)
;
    }
    lowerWall
    {
        type            nutkWallFunction;
        blending        stepwise;
        value           nonuniform List<scalar> 
62
(
0
0
0
0
5.37933e-07
8.99738e-07
1.14347e-06
1.30748e-06
1.41637e-06
1.48667e-06
1.52949e-06
1.55183e-06
1.55715e-06
1.54551e-06
1.51316e-06
1.45158e-06
1.34547e-06
1.16882e-06
8.76794e-07
3.87924e-07
0
0
0
0
8.03227e-06
1.09353e-05
1.29836e-05
1.46768e-05
1.63735e-05
1.87232e-05
2.35162e-05
2.53766e-05
2.25542e-05
2.25311e-05
2.52655e-05
0
1.07566e-05
1.38937e-05
1.61099e-05
1.79594e-05
1.98563e-05
2.25283e-05
2.77561e-05
0
0
0
5.81759e-07
1.02295e-06
1.27261e-06
1.41244e-06
1.48524e-06
1.51347e-06
1.50717e-06
1.46747e-06
1.38788e-06
1.25408e-06
1.04195e-06
7.12342e-07
1.97841e-07
0
0
0
)
;
    }
    atmosphere
    {
        type            calculated;
        value           nonuniform List<scalar> 
46
(
0.000177771
0.00155838
0.00287096
0.00397684
0.00492164
0.00572897
0.00641207
0.00698114
0.00744641
0.00781905
0.00811109
0.00833496
0.0085028
0.0086259
0.00871426
0.00877638
0.00881916
0.00884804
0.00886711
0.00887939
0.00888697
0.00889128
0.00889315
0.00889305
0.00889253
0.00889154
0.00889004
0.00888656
0.0088776
0.00886254
0.00883826
0.00880019
0.00874199
0.00865519
0.00852895
0.00835012
0.00810348
0.00777248
0.00734018
0.00679036
0.0061083
0.00528054
0.0042923
0.00311954
0.00171316
0.000200722
)
;
    }
    defaultFaces
    {
        type            empty;
    }
}


// ************************************************************************* //
