/*--------------------------------*- C++ -*----------------------------------*\
| =========                 |                                                 |
| \\      /  F ield         | OpenFOAM: The Open Source CFD Toolbox           |
|  \\    /   O peration     | Version:  2406                                  |
|   \\  /    A nd           | Website:  www.openfoam.com                      |
|    \\/     M anipulation  |                                                 |
\*---------------------------------------------------------------------------*/
FoamFile
{
    version     2.0;
    format      ascii;
    arch        "LSB;label=32;scalar=64";
    class       volScalarField;
    location    "0.35";
    object      nut;
}
// * * * * * * * * * * * * * * * * * * * * * * * * * * * * * * * * * * * * * //

dimensions      [0 2 -1 0 0 0 0];

internalField   nonuniform List<scalar> 
2268
(
0.000289337
0.000213038
0.000213038
0.000213038
0.000213038
0.000213038
0.000213038
0.000213038
0.000213038
0.000213038
0.000213038
0.000213038
0.000213038
5.99789e-05
5.18722e-05
5.82808e-05
6.17366e-05
6.33394e-05
6.34306e-05
6.19065e-05
5.81776e-05
5.05303e-05
3.17119e-05
0.000450785
0.000254306
0.000232321
0.000225511
0.000222385
0.000220634
0.000219545
0.000218827
0.000218345
0.000218026
0.00021783
0.000217737
0.000217737
0.000104219
0.000358367
0.000477302
0.000530943
0.000555429
0.000558024
0.000537889
0.000486985
0.000379731
0.000104494
0.000450785
0.000288167
0.000251962
0.000238672
0.000232268
0.000228639
0.000226375
0.000224885
0.000223885
0.000223224
0.000222819
0.000222627
0.000222627
0.000144068
0.000551167
0.000805438
0.000931503
0.000990918
0.000999185
0.000954919
0.000842116
0.000612621
0.000121383
0.000450785
0.000314823
0.000270613
0.00025196
0.00024245
0.000236938
0.000233468
0.000231177
0.000229635
0.000228616
0.000227993
0.000227696
0.000227696
0.000176932
0.000678945
0.00103846
0.00123289
0.0013284
0.00134469
0.00127967
0.00111123
0.000776581
0.000133542
0.000450785
0.000335499
0.000287639
0.000264954
0.00025271
0.000245414
0.000240758
0.00023766
0.00023557
0.000234185
0.000233336
0.000232932
0.000232932
0.000204786
0.000775755
0.00121908
0.00147601
0.00160781
0.00163498
0.00155424
0.00133804
0.00091101
0.000143898
0.000450785
0.000351572
0.000302834
0.000277373
0.000262866
0.000253958
0.000248177
0.000244294
0.000241659
0.000239908
0.000238833
0.000238321
0.000238321
0.000229127
0.000855772
0.00137054
0.00168594
0.00185479
0.0018964
0.00180603
0.00155028
0.00103776
0.000154759
0.000450785
0.000364209
0.000316232
0.000289058
0.00027278
0.000262475
0.000255663
0.000251036
0.000247874
0.000245763
0.000244465
0.000243845
0.000243845
0.000251008
0.000926397
0.00150669
0.00187875
0.00208623
0.00214669
0.00205416
0.0017693
0.00117602
0.000170395
0.000450785
0.00037429
0.00032798
0.000299934
0.000282354
0.000270887
0.000263158
0.000257844
0.000254183
0.000251727
0.000250211
0.000249487
0.000249487
0.000271232
0.000992699
0.00163751
0.00206652
0.00231502
0.00239949
0.00231405
0.00201678
0.00136064
0.000202228
3.28865e-05
5.27156e-05
6.0909e-05
6.53138e-05
6.78738e-05
6.93946e-05
7.02793e-05
7.07513e-05
7.09358e-05
7.08913e-05
7.06237e-05
7.00924e-05
6.92126e-05
6.78525e-05
6.58161e-05
6.27907e-05
5.81784e-05
5.04632e-05
5.30936e-05
0.000120885
0.000411628
0.00052696
0.000588229
0.000624071
0.000645585
0.000658208
0.000664967
0.000667578
0.000666849
0.000662846
0.000654984
0.000642073
0.000622311
0.000593126
0.000550532
0.000486715
0.000379092
0.00011949
0.000140181
0.00067937
0.00093354
0.00107416
0.00115837
0.00120968
0.00124004
0.00125632
0.00126253
0.00126057
0.00125059
0.00123119
0.00119959
0.00115176
0.00108229
0.000983376
0.000840168
0.000610484
0.000135513
0.00015435
0.000873964
0.00125353
0.00146997
0.00160166
0.00168274
0.00173097
0.00175685
0.00176655
0.001763
0.00174639
0.00171448
0.00166296
0.00158572
0.00147499
0.00132021
0.00110209
0.000767225
0.000146675
0.000166681
0.00103702
0.00153079
0.00181673
0.00199227
0.00210117
0.00216629
0.00220121
0.00221397
0.00220838
0.00218457
0.00213949
0.00206735
0.00196023
0.00180845
0.00159957
0.0013117
0.000885335
0.000155061
0.000179886
0.00119218
0.00179419
0.00214262
0.00235728
0.00249128
0.0025718
0.00261491
0.00263015
0.00262194
0.00259027
0.00253124
0.00243773
0.00230021
0.00210749
0.00184585
0.00149178
0.000982279
0.000161756
0.000198804
0.00136
0.00206576
0.00246742
0.00271521
0.00287092
0.00296497
0.00301519
0.00303216
0.00302063
0.00298031
0.00290647
0.00279075
0.00262227
0.00238863
0.00207508
0.00165674
0.00106789
0.000167368
0.000235047
0.00157661
0.00236708
0.00280684
0.0030802
0.00325355
0.00335886
0.00341488
0.00343267
0.00341702
0.00336721
0.00327766
0.00313893
0.00293904
0.00266457
0.00229966
0.00181754
0.00114906
0.000172261
0.000450785
0.000387195
0.000344346
0.000315956
0.00029696
0.000284002
0.000275004
0.000268694
0.00026429
0.000261312
0.000259465
0.000258579
0.000258579
0.000301467
0.00109661
0.00184713
0.00236992
0.00268918
0.00282155
0.00276493
0.0024932
0.00194578
0.00107807
0.000450785
0.000399213
0.000361271
0.000333994
0.000314484
0.000300479
0.00029038
0.000283101
0.000277923
0.000274375
0.000272154
0.000271085
0.000271086
0.000334759
0.00119542
0.00204806
0.00267454
0.00308513
0.00329618
0.00331448
0.00313904
0.00276678
0.0022217
0.000450785
0.00040801
0.000374623
0.000349178
0.000330023
0.000315684
0.000304998
0.0002971
0.000291377
0.000287402
0.000284893
0.000283679
0.00028368
0.000362845
0.00126705
0.00219333
0.00290458
0.00340036
0.00369595
0.00380473
0.00374193
0.00353184
0.0032243
0.000450785
0.000414732
0.000385377
0.000362021
0.000343728
0.00032956
0.000318699
0.000310493
0.000304443
0.000300188
0.00029748
0.000296163
0.000296163
0.000387405
0.00132215
0.00230399
0.00308482
0.00365685
0.00403395
0.00423254
0.00427453
0.00419164
0.00403027
0.000450785
0.000420036
0.000394196
0.000372955
0.000355794
0.000342128
0.000331402
0.000323139
0.000316954
0.000312555
0.000309732
0.000308353
0.000308353
0.000409273
0.00136565
0.0023899
0.00322725
0.00386467
0.00431442
0.00459319
0.00472381
0.00473669
0.0046689
0.000450785
0.000424322
0.000401534
0.000382319
0.000366408
0.000353448
0.000343074
0.000334948
0.000328784
0.000324354
0.000321492
0.000320088
0.000320088
0.000428892
0.00140036
0.00245669
0.00333895
0.00403015
0.00454075
0.00488627
0.00508776
0.00517168
0.005167
0.000450785
0.000427844
0.000407702
0.000390373
0.000375737
0.000363593
0.000353711
0.000345861
0.000339837
0.000335469
0.000332629
0.00033123
0.000331231
0.000446521
0.00142815
0.00250821
0.00342514
0.00415878
0.00471779
0.00511591
0.00537154
0.00550704
0.00554541
0.000450785
0.000430773
0.000412924
0.000397318
0.000383923
0.00037264
0.000363331
0.000355848
0.000350049
0.000345812
0.000343042
0.000341673
0.000341673
0.000462334
0.00145045
0.00254755
0.00349046
0.00425631
0.00485211
0.00528972
0.005585
0.00575679
0.00582391
0.000450785
0.000433225
0.000417363
0.000403308
0.000391085
0.000380661
0.000371962
0.000364899
0.00035938
0.00035532
0.000352653
0.000351332
0.000351332
0.000476472
0.00146843
0.00257742
0.00353923
0.00432872
0.00495136
0.00541741
0.00574054
0.00593693
0.00602254
0.000450785
0.000435287
0.000421138
0.000408465
0.000397325
0.000387726
0.000379639
0.000373018
0.000367808
0.000363954
0.000361412
0.000360149
0.000360149
0.000489062
0.0014831
0.00260023
0.00357556
0.00438193
0.00502351
0.00550924
0.00585115
0.00606353
0.00616051
0.000450785
0.00043702
0.000424344
0.000412887
0.000402727
0.000393898
0.000386401
0.000380221
0.000375328
0.000371692
0.000369285
0.000368087
0.000368087
0.000500235
0.00149536
0.00261819
0.00360322
0.0044215
0.0050761
0.00557492
0.00592893
0.00615118
0.00625471
0.000450785
0.000438472
0.000427051
0.000416653
0.000407364
0.000399235
0.000392288
0.000386528
0.000381945
0.000378526
0.000376257
0.000375125
0.000375125
0.000510152
0.00150614
0.0026334
0.00362577
0.00445258
0.00511593
0.00562307
0.00598432
0.00621209
0.00631889
0.000450785
0.000439679
0.000429316
0.000419825
0.000411295
0.000403788
0.000397339
0.000391965
0.000387673
0.000384461
0.000382323
0.000381256
0.000381256
0.000519039
0.00151645
0.00264812
0.00364679
0.00448005
0.00514918
0.00566107
0.0060259
0.00625594
0.00636359
0.000450785
0.000440669
0.000431185
0.000422456
0.000414574
0.000407604
0.000401591
0.000396561
0.000392531
0.000389506
0.000387489
0.000386481
0.000386482
0.000527282
0.00152776
0.00266518
0.00367041
0.00450903
0.00518167
0.00569536
0.00606066
0.00629021
0.00639663
0.000450785
0.000441465
0.000432693
0.000424588
0.000417242
0.000410722
0.000405078
0.000400342
0.000396538
0.000393676
0.000391766
0.00039081
0.00039081
0.000535627
0.00154247
0.00268883
0.00370214
0.00454553
0.00521945
0.00573185
0.00609442
0.00632064
0.00642368
0.000450785
0.000442083
0.000433868
0.000426256
0.000419335
0.000413176
0.000407829
0.000403334
0.000399714
0.000396988
0.000395166
0.000394253
0.000394253
0.00054567
0.00156516
0.0027264
0.00375032
0.00459743
0.00526932
0.00577629
0.00613213
0.00635169
0.00644885
0.000450785
0.000442535
0.000434732
0.000427484
0.000420881
0.000414992
0.000409871
0.000405557
0.000402079
0.000399456
0.000397701
0.000396822
0.000396823
0.00056129
0.00160599
0.002792
0.00382851
0.00467546
0.0053391
0.00583432
0.006178
0.00638673
0.00647501
0.000450785
0.000442832
0.000435299
0.000428292
0.0004219
0.000416191
0.000411221
0.00040703
0.000403647
0.000401094
0.000399385
0.000398528
0.000398529
0.000594019
0.00169197
0.00291497
0.00395866
0.00479358
0.00543712
0.00591091
0.00623524
0.00642804
0.00650399
0.000450785
0.000442979
0.00043558
0.000428693
0.000422406
0.000416788
0.000411893
0.000407763
0.000404428
0.000401911
0.000400225
0.00039938
0.00039938
0.000694594
0.00190801
0.00315516
0.00417188
0.00496631
0.00556991
0.00600904
0.00630533
0.00647656
0.00653659
0.000450785
0.00044298
0.00043558
0.000428694
0.000422406
0.000416788
0.000411893
0.000407763
0.000404428
0.000401911
0.000400225
0.00039938
0.000529354
0.00138191
0.00252661
0.00359884
0.00449149
0.00519868
0.00573752
0.00612769
0.00638733
0.00653174
0.00657262
0.000199296
0.000347507
0.000425
0.000472142
0.000501815
0.000520605
0.000532713
0.000541421
0.00055011
0.000563945
0.000595429
0.000696137
0.00138325
0.00230591
0.00326104
0.00413371
0.00487434
0.00547124
0.00592959
0.00626082
0.00647766
0.00659151
0.00661101
0.000143383
0.000704875
0.000982942
0.00115645
0.00127659
0.00136349
0.00142848
0.00148033
0.00152823
0.00158598
0.0016834
0.00190721
0.00252734
0.0032617
0.00400206
0.00468507
0.00527532
0.00575795
0.00613104
0.00639958
0.00657114
0.00665293
0.00665016
0.000149833
0.000991904
0.00150887
0.00184461
0.00208473
0.00226475
0.00240393
0.00251672
0.00261803
0.00272816
0.00288139
0.00314094
0.00359406
0.00413338
0.00468616
0.00520484
0.00565986
0.00603579
0.00632725
0.00653498
0.00666238
0.00671286
0.00668835
0.000157715
0.00115855
0.00186793
0.00235788
0.00272108
0.0030005
0.00322032
0.00339883
0.00355427
0.00370866
0.00389119
0.00413867
0.00447863
0.00487286
0.00527918
0.00566429
0.00600519
0.00628822
0.00650701
0.00665981
0.00674694
0.00676869
0.00672414
0.000163227
0.00126339
0.00211047
0.00272571
0.00319751
0.00356909
0.00386552
0.00410602
0.0043095
0.00449681
0.00469115
0.00491495
0.00517982
0.00547191
0.00576905
0.00605026
0.00629942
0.00650585
0.00666356
0.00676953
0.00682196
0.00681874
0.00675665
0.000167005
0.00133333
0.00227724
0.0029878
0.00354769
0.00399748
0.00436048
0.00465475
0.00489803
0.00510914
0.00530711
0.00550816
0.00572061
0.00594075
0.00615823
0.00636124
0.00653956
0.00668566
0.00679446
0.00686243
0.00688638
0.00686246
0.00678568
0.00016958
0.00138082
0.00239236
0.00317288
0.00380055
0.00431271
0.00472996
0.00506811
0.00534301
0.00557145
0.00577002
0.00595266
0.00612789
0.00629734
0.00645773
0.00660354
0.00672911
0.00682953
0.00690078
0.00693921
0.00694075
0.00690035
0.00681175
0.000171315
0.00141296
0.00247124
0.00330182
0.00397971
0.00453941
0.00499876
0.00537116
0.00567045
0.00591172
0.00611023
0.00627927
0.00642841
0.00656259
0.00668291
0.00678806
0.0068756
0.00694266
0.00698614
0.00700244
0.00698698
0.00693391
0.00683611
0.000172471
0.00143456
0.00252483
0.00339066
0.00410489
0.00469975
0.00519073
0.00558907
0.00590682
0.0061578
0.00635649
0.00651621
0.00664759
0.00675777
0.00685066
0.00692771
0.00698865
0.00703211
0.00705571
0.00705596
0.00702801
0.0069655
0.00686074
0.000173247
0.0014492
0.00256154
0.00345227
0.0041927
0.00481334
0.00532779
0.00574554
0.00607723
0.00633573
0.00653512
0.00668894
0.00680868
0.00690298
0.00697759
0.00703572
0.00707859
0.00710583
0.00711559
0.00710452
0.00706764
0.00699828
0.00688841
0.0001738
0.0014597
0.00258812
0.00349727
0.00425727
0.0048973
0.00542948
0.00586195
0.00620432
0.00646884
0.0066694
0.0068198
0.00693222
0.00701633
0.00707905
0.00712476
0.00715565
0.00717201
0.00717238
0.00715354
0.00711044
0.00703625
0.00692274
0.000174263
0.00146852
0.00261041
0.00353491
0.00431102
0.00496675
0.00551307
0.00595717
0.00630798
0.00657744
0.00677943
0.00692804
0.007036
0.0071137
0.00716884
0.00720655
0.00722965
0.00723888
0.00723303
0.00720901
0.00716174
0.00708431
0.00696841
0.000174775
0.00147811
0.00263422
0.00357422
0.00436578
0.00503582
0.00559442
0.00604819
0.00640582
0.00667923
0.00688253
0.00703017
0.00713534
0.00720895
0.00725924
0.00729183
0.00730993
0.00731458
0.00730476
0.00727744
0.00722759
0.00714827
0.00703117
0.000175514
0.00149155
0.00266643
0.00362541
0.00443436
0.00511908
0.00568913
0.00615107
0.00651387
0.00678991
0.00699379
0.00714041
0.00724343
0.00731414
0.00736114
0.00739035
0.00740523
0.00740701
0.0073948
0.00736565
0.00731457
0.00723469
0.00711772
0.000176754
0.00151328
0.00271656
0.00370182
0.0045324
0.00523314
0.00581378
0.00628178
0.00664725
0.00692361
0.00712631
0.00727089
0.00737139
0.00743942
0.00748378
0.00751053
0.00752327
0.00752332
0.00750991
0.00748017
0.00742922
0.00735029
0.00723525
0.000178965
0.0015503
0.00279871
0.00382207
0.00468022
0.00539789
0.00598664
0.0064565
0.00682004
0.0070926
0.00729088
0.00743114
0.00752777
0.00759247
0.00763408
0.00765867
0.00766984
0.00766895
0.0076553
0.00762617
0.00757686
0.00750083
0.0073902
0.000182943
0.00161332
0.00293366
0.00401216
0.00490423
0.00563693
0.00622718
0.00669058
0.00704412
0.00730606
0.00749468
0.00762691
0.00771721
0.00777716
0.00781532
0.00783757
0.00784738
0.00784608
0.00783307
0.00780581
0.00775992
0.00768926
0.00758641
0.000189976
0.00171712
0.00315035
0.00430703
0.00523696
0.00597606
0.00655369
0.00699588
0.00732653
0.00756769
0.00773921
0.00785824
0.00793883
0.00799192
0.00802547
0.00804486
0.00805327
0.00805195
0.00804037
0.00801631
0.00797585
0.00791351
0.0078226
0.000201964
0.00187995
0.003489
0.00475294
0.00571598
0.00643944
0.00697846
0.00737626
0.00766583
0.00787294
0.00801814
0.00811782
0.00818476
0.00822856
0.00825608
0.00827191
0.00827874
0.00827764
0.00826821
0.00824861
0.00821562
0.00816467
0.00809018
0.00022226
0.00212976
0.00401963
0.00541794
0.0063827
0.00704292
0.00750088
0.00782242
0.00804881
0.00820718
0.00831656
0.00839087
0.00844041
0.00847264
0.00849282
0.00850441
0.00850943
0.00850869
0.00850191
0.00848777
0.00846389
0.00842692
0.00837271
0.000265049
0.00255607
0.00492058
0.00642146
0.00727812
0.00778235
0.00809875
0.00830777
0.00844974
0.00854695
0.00861322
0.00865788
0.00868749
0.00870671
0.00871871
0.00872562
0.00872864
0.00872827
0.00872437
0.00871616
0.00870223
0.00868059
0.00864873
0.000417068
0.00368599
0.00678646
0.00796756
0.00840751
0.00860834
0.00871937
0.00878862
0.00883445
0.00886545
0.00888647
0.00890059
0.00890994
0.00891601
0.00891981
0.00892201
0.00892299
0.00892291
0.00892173
0.00891922
0.00891493
0.00890822
0.0088982
0.000216851
0.00019953
0.000200151
0.000219002
0.00175753
0.00167577
0.00168481
0.0017817
0.00300401
0.00293237
0.0029513
0.00305511
0.00390369
0.00385944
0.00388631
0.00397732
0.00459196
0.00456707
0.00460021
0.00468431
0.00512142
0.00510969
0.00514777
0.00522881
0.00552018
0.00551715
0.00555907
0.00563917
0.00581136
0.00581375
0.00585857
0.00593902
0.0060174
0.00602296
0.00606991
0.00615132
0.0061594
0.00616666
0.00621509
0.0062976
0.00625553
0.00626359
0.00631296
0.0063964
0.0063203
0.00632857
0.00637839
0.00646242
0.00636463
0.00637263
0.00642245
0.00650667
0.00639638
0.00640364
0.00645299
0.00653697
0.00642112
0.00642709
0.00647549
0.00655878
0.00644272
0.00644676
0.00649365
0.00657578
0.00646383
0.00646516
0.00650993
0.0065904
0.00648609
0.00648388
0.00652588
0.00660419
0.0065103
0.00650372
0.00654231
0.00661797
0.00653648
0.0065248
0.00655946
0.00663209
0.00656401
0.00654676
0.00657714
0.00664648
0.00659193
0.00656894
0.00659492
0.00666087
0.00661916
0.00659056
0.00661225
0.00667492
0.00664481
0.00661102
0.00662875
0.00668836
0.00666837
0.00663001
0.00664421
0.00670112
0.00668984
0.00664759
0.00665881
0.00671341
0.00670976
0.00666435
0.00667312
0.00672582
0.00672929
0.00668138
0.0066882
0.00673939
0.00675024
0.0067004
0.00670572
0.00675573
0.00677518
0.0067239
0.00672808
0.00677719
0.00680761
0.00675529
0.00675862
0.00680703
0.00685212
0.00679914
0.00680183
0.00684964
0.00691452
0.00686127
0.00686349
0.00691071
0.0070018
0.00694874
0.00695063
0.00699709
0.00712158
0.00706943
0.00707107
0.00711639
0.00728107
0.00723086
0.00723232
0.00727578
0.007485
0.00743819
0.00743953
0.00748002
0.00773298
0.00769144
0.00769266
0.00772869
0.00801682
0.00798265
0.00798372
0.0080135
0.00831955
0.00829465
0.00829549
0.00831738
0.00861788
0.00860332
0.00860387
0.00861686
0.00888867
0.00888431
0.00888455
0.00888876
0.00117872
0.00221321
0.0029303
0.00339143
0.00369214
0.00388686
0.00400636
0.00406939
0.00408687
0.00406313
0.0039965
0.00388013
0.00370312
0.00345207
0.00311207
0.00266494
0.00207905
0.00127698
0.00017903
0.00235498
0.00309576
0.00367892
0.00410229
0.00439877
0.00459822
0.00472238
0.00478612
0.00479807
0.00476073
0.00467063
0.00451914
0.00429384
0.00398023
0.00356272
0.00302212
0.0023246
0.0013912
0.000185219
0.00339567
0.00391905
0.00437526
0.00473612
0.00500381
0.00518987
0.00530645
0.00536304
0.00536479
0.00531157
0.00519774
0.00501284
0.00474322
0.00437397
0.00388985
0.00327259
0.00248946
0.00146442
0.000189259
0.00423994
0.00463524
0.00499263
0.00528904
0.00551711
0.00567876
0.00577907
0.00582258
0.00581074
0.00574052
0.00560396
0.00538888
0.00508069
0.00466445
0.00412591
0.00344852
0.00260176
0.00151285
0.000191919
0.00491284
0.00523164
0.00551626
0.00575553
0.00594229
0.00607494
0.00615444
0.00618153
0.00615441
0.00606731
0.00591008
0.00566902
0.00532878
0.00487466
0.00429354
0.00357076
0.002678
0.00154505
0.000193667
0.00543957
0.00571075
0.00594293
0.00613532
0.00628435
0.00638818
0.00644589
0.0064557
0.00641325
0.00631047
0.00613532
0.0058728
0.00550702
0.00502354
0.00441034
0.00365438
0.00272916
0.00156627
0.000194802
0.00584095
0.00608239
0.00627766
0.00643373
0.00655111
0.00662928
0.00666675
0.0066603
0.00660374
0.00648722
0.00629718
0.0060176
0.00563217
0.00512671
0.00449009
0.00371055
0.00276293
0.00158003
0.000195528
0.00613733
0.00636088
0.00653103
0.0066603
0.00675284
0.00680985
0.00683007
0.00680952
0.00674084
0.00661286
0.00641092
0.00611822
0.00571813
0.0051967
0.00454345
0.00374756
0.00278482
0.00158881
0.000195983
0.00634937
0.00656282
0.00671656
0.00682692
0.00690099
0.00694161
0.00694804
0.00691602
0.00683748
0.00670037
0.00648925
0.00618674
0.00577601
0.00524325
0.00457847
0.0037715
0.00279874
0.00159429
0.000196263
0.00649687
0.00670502
0.00684841
0.00694596
0.0070069
0.00703542
0.00703139
0.00699052
0.00690433
0.00676022
0.00654221
0.00623256
0.00581427
0.00527367
0.00460105
0.0037867
0.00280744
0.00159766
0.000196433
0.00659717
0.00680271
0.00693974
0.00702888
0.00708081
0.00710076
0.00708913
0.0070417
0.00694979
0.00680048
0.00657745
0.00626271
0.00583917
0.00529322
0.00461538
0.00379621
0.00281279
0.00159969
0.000196534
0.00666437
0.00686857
0.00700171
0.00708542
0.00713132
0.00714539
0.0071284
0.00707628
0.00698024
0.00682718
0.00660057
0.00628227
0.00585514
0.00530561
0.00462434
0.00380207
0.00281604
0.0016009
0.000196594
0.00670919
0.00691249
0.00704315
0.00712333
0.00716526
0.00717536
0.0071547
0.0070993
0.00700036
0.00684466
0.00661555
0.00629481
0.00586526
0.00531337
0.00462988
0.00380563
0.00281797
0.00160161
0.000196628
0.00673939
0.00694177
0.00707067
0.00714849
0.00718778
0.00719523
0.00717208
0.00711444
0.00701349
0.00685597
0.00662515
0.00630276
0.0058716
0.00531817
0.00463325
0.00380778
0.00281912
0.00160203
0.000196648
0.00676041
0.00696159
0.00708902
0.00716514
0.00720261
0.00720827
0.00718345
0.00712429
0.00702197
0.00686321
0.00663124
0.00630775
0.00587554
0.00532111
0.0046353
0.00380905
0.00281979
0.00160226
0.000196659
0.00677593
0.00697552
0.00710151
0.00717625
0.0072124
0.0072168
0.00719084
0.00713065
0.00702741
0.00686781
0.00663507
0.00631085
0.00587796
0.00532289
0.00463652
0.0038098
0.00282018
0.0016024
0.000196665
0.00678839
0.00698591
0.00711036
0.00718385
0.00721893
0.00722241
0.00719564
0.00713474
0.00703087
0.00687071
0.00663746
0.00631277
0.00587943
0.00532397
0.00463725
0.00381024
0.0028204
0.00160247
0.000196669
0.00679933
0.00699431
0.00711702
0.00718928
0.00722342
0.00722616
0.00719878
0.00713738
0.00703308
0.00687254
0.00663895
0.00631395
0.00588033
0.00532462
0.00463768
0.0038105
0.00282053
0.00160252
0.000196671
0.00680967
0.00700164
0.00712242
0.0071934
0.00722666
0.00722876
0.0072009
0.00713912
0.00703452
0.00687371
0.00663989
0.00631468
0.00588089
0.00532501
0.00463793
0.00381065
0.0028206
0.00160254
0.000196672
0.00681984
0.00700843
0.0071271
0.00719675
0.00722915
0.00723068
0.00720241
0.00714032
0.00703548
0.00687449
0.00664051
0.00631516
0.00588124
0.00532525
0.00463809
0.00381074
0.00282065
0.00160256
0.000196672
0.00682997
0.00701495
0.00713141
0.00719969
0.00723123
0.00723221
0.00720357
0.00714123
0.0070362
0.00687506
0.00664096
0.00631551
0.00588149
0.00532543
0.0046382
0.0038108
0.00282068
0.00160256
0.000196673
0.00684
0.0070213
0.00713551
0.00720243
0.00723313
0.00723358
0.0072046
0.00714203
0.00703684
0.00687557
0.00664136
0.00631581
0.00588172
0.00532559
0.0046383
0.00381086
0.0028207
0.00160257
0.000196673
0.0068498
0.00702751
0.00713955
0.00720514
0.00723504
0.00723498
0.00720569
0.0071429
0.00703754
0.00687615
0.00664182
0.00631618
0.00588199
0.00532578
0.00463842
0.00381093
0.00282074
0.00160258
0.000196674
0.00685929
0.00703367
0.00714366
0.00720802
0.00723715
0.00723662
0.00720702
0.00714401
0.00703849
0.00687695
0.00664249
0.00631671
0.0058824
0.00532607
0.00463861
0.00381103
0.00282079
0.0016026
0.000196674
0.00686854
0.00703992
0.00714809
0.00721132
0.00723976
0.00723878
0.00720887
0.00714564
0.00703992
0.0068782
0.00664355
0.00631759
0.00588308
0.00532656
0.00463894
0.00381122
0.00282087
0.00160263
0.000196675
0.00687783
0.00704664
0.00715322
0.00721546
0.00724327
0.00724187
0.00721166
0.00714817
0.00704222
0.00688024
0.00664533
0.00631907
0.00588425
0.00532742
0.00463951
0.00381156
0.00282104
0.00160268
0.000196678
0.00688776
0.00705444
0.00715968
0.00722108
0.00724834
0.00724654
0.00721601
0.00715222
0.00704596
0.00688363
0.00664831
0.0063216
0.00588628
0.00532894
0.00464055
0.00381219
0.00282135
0.00160278
0.000196682
0.00689934
0.0070643
0.00716846
0.00722916
0.00725593
0.00725375
0.00722287
0.00715872
0.00705205
0.00688923
0.00665331
0.00632589
0.00588979
0.00533162
0.00464242
0.00381333
0.00282192
0.00160297
0.00019669
0.00691411
0.00707773
0.00718104
0.00724116
0.0072675
0.00726494
0.00723368
0.00716909
0.00706187
0.00689836
0.00666158
0.00633311
0.00589579
0.00533629
0.00464574
0.00381542
0.002823
0.00160333
0.000196707
0.00693433
0.00709689
0.00719953
0.00725918
0.00728513
0.0072822
0.00725051
0.0071854
0.00707748
0.00691306
0.00667507
0.00634509
0.00590593
0.00534435
0.00465162
0.0038192
0.002825
0.00160402
0.000196738
0.00696312
0.00712478
0.00722687
0.00728612
0.00731171
0.00730841
0.00727627
0.00721056
0.00710183
0.00693625
0.0066967
0.00636463
0.00592284
0.00535812
0.00466193
0.00382604
0.00282872
0.00160534
0.000196799
0.00700467
0.00716541
0.00726693
0.00732578
0.00735104
0.0073474
0.00731484
0.00724854
0.00713894
0.00697209
0.00673067
0.00639594
0.00595058
0.00538136
0.00467988
0.00383834
0.00283563
0.00160786
0.000196917
0.00706436
0.00722382
0.00732456
0.00738291
0.00740782
0.0074039
0.00737105
0.00730434
0.00719407
0.00702607
0.00678275
0.00644504
0.00599527
0.00541997
0.00471078
0.00386033
0.00284851
0.00161272
0.000197149
0.00714855
0.00730586
0.00740529
0.00746286
0.00748737
0.0074833
0.00745046
0.0073838
0.00727345
0.00710499
0.00686041
0.00652009
0.00606568
0.00548301
0.00476331
0.00389943
0.00287246
0.00162217
0.00019761
0.00726413
0.00741761
0.00751468
0.00757091
0.00759486
0.00759085
0.00755855
0.00749285
0.00738369
0.00721638
0.00697243
0.00663138
0.00617367
0.00558367
0.00485114
0.00396822
0.00291693
0.00164063
0.000198539
0.00741723
0.00756415
0.0076571
0.00771101
0.00773408
0.00773037
0.00769946
0.00763614
0.00753035
0.00736721
0.00712773
0.00679043
0.00633393
0.00573987
0.00499462
0.00408719
0.00299873
0.00167679
0.000200439
0.00761135
0.00774763
0.00783388
0.007884
0.00790562
0.00790248
0.007874
0.00781511
0.0077159
0.00756164
0.00733312
0.00700789
0.00656222
0.00597344
0.00522136
0.00428709
0.00314557
0.00174654
0.000204347
0.00784483
0.0079652
0.00804138
0.00808575
0.0081051
0.00810267
0.00807783
0.00802581
0.0079373
0.00779831
0.00759012
0.00728986
0.00687147
0.00630647
0.00556382
0.00460816
0.00339673
0.00187426
0.000212228
0.00810875
0.00820736
0.00826974
0.00830615
0.00832219
0.00832049
0.00830041
0.00825777
0.00818448
0.00806817
0.0078918
0.00763351
0.007266
0.00675459
0.00605252
0.00509437
0.0037962
0.00208356
0.000226968
0.00838658
0.00845827
0.00850359
0.00853007
0.00854183
0.00854073
0.00852621
0.00849505
0.00844102
0.00835441
0.00822154
0.00802383
0.00773567
0.00731872
0.00670855
0.00579185
0.00439517
0.00238429
0.000251555
0.00865717
0.0086991
0.00872559
0.00874105
0.00874791
0.00874725
0.00873867
0.00872019
0.00868795
0.00863591
0.00855533
0.00843378
0.00825236
0.00797762
0.00753875
0.00677219
0.00533435
0.002848
0.000299362
0.00890117
0.00891404
0.00892218
0.00892691
0.00892899
0.00892874
0.00892602
0.00892017
0.00890997
0.00889347
0.00886784
0.00882897
0.00877015
0.00867768
0.00851422
0.00815365
0.00712176
0.00406053
0.000466033
)
;

boundaryField
{
    leftWall
    {
        type            nutkWallFunction;
        blending        stepwise;
        value           nonuniform List<scalar> 
50
(
0
0
0
0
0
0
0
0
0
0
0
0
0
0
0
0
0
0
0
0
0
0
0
0
0
0
0
5.36008e-05
2.05712e-05
1.376e-05
1.47932e-05
1.58746e-05
1.65987e-05
1.70732e-05
1.73811e-05
1.75782e-05
1.77028e-05
1.77819e-05
1.78349e-05
1.78771e-05
1.79227e-05
1.79893e-05
1.81048e-05
1.83191e-05
1.87233e-05
1.94807e-05
2.08683e-05
2.34114e-05
2.91075e-05
4.92453e-05
)
;
    }
    rightWall
    {
        type            nutkWallFunction;
        blending        stepwise;
        value           nonuniform List<scalar> 
50
(
5.31326e-06
1.04931e-05
1.30078e-05
1.47015e-05
1.59426e-05
1.69092e-05
1.76982e-05
1.83692e-05
1.92804e-05
2.00709e-05
2.05605e-05
2.08671e-05
2.1059e-05
2.1178e-05
2.12507e-05
2.12944e-05
2.13203e-05
2.13354e-05
2.13441e-05
2.13491e-05
2.13518e-05
2.13534e-05
2.13543e-05
2.13547e-05
2.1355e-05
2.13551e-05
2.13552e-05
2.13552e-05
2.13553e-05
2.13553e-05
2.13553e-05
2.13554e-05
2.13554e-05
2.13556e-05
2.13559e-05
2.13565e-05
2.13576e-05
2.13598e-05
2.13641e-05
2.13727e-05
2.13899e-05
2.14249e-05
2.14971e-05
2.16492e-05
2.19752e-05
2.26777e-05
2.41537e-05
2.71329e-05
3.38765e-05
5.55421e-05
)
;
    }
    lowerWall
    {
        type            nutkWallFunction;
        blending        stepwise;
        value           nonuniform List<scalar> 
62
(
0
0
0
0
0
0
0
0
0
0
0
0
2.16739e-05
0
0
0
0
2.31137e-08
1.82751e-08
0
0
0
0
0
7.73894e-06
1.04321e-05
1.22956e-05
1.38407e-05
1.54302e-05
1.77113e-05
2.24057e-05
2.43304e-05
2.16212e-05
2.16751e-05
2.45103e-05
0
1.05411e-05
1.35258e-05
1.56143e-05
1.73769e-05
1.92328e-05
2.1903e-05
2.71019e-05
0
0
0
2.03259e-07
6.2496e-07
8.63686e-07
9.95741e-07
1.06341e-06
1.08998e-06
1.08617e-06
1.05328e-06
9.84325e-07
8.63962e-07
6.6695e-07
3.54336e-07
0
0
0
0
)
;
    }
    atmosphere
    {
        type            calculated;
        value           uniform 0.009;
    }
    defaultFaces
    {
        type            empty;
    }
}


// ************************************************************************* //
