/*--------------------------------*- C++ -*----------------------------------*\
| =========                 |                                                 |
| \\      /  F ield         | OpenFOAM: The Open Source CFD Toolbox           |
|  \\    /   O peration     | Version:  2406                                  |
|   \\  /    A nd           | Website:  www.openfoam.com                      |
|    \\/     M anipulation  |                                                 |
\*---------------------------------------------------------------------------*/
FoamFile
{
    version     2.0;
    format      ascii;
    arch        "LSB;label=32;scalar=64";
    class       surfaceScalarField;
    location    "0.35";
    object      phi;
}
// * * * * * * * * * * * * * * * * * * * * * * * * * * * * * * * * * * * * * //

dimensions      [0 3 -1 0 0 0 0];

oriented        oriented;

internalField   nonuniform List<scalar> 
4432
(
-1.52323e-304
-7.93606e-305
-3.10751e-304
-3.76322e-304
-4.9272e-304
-5.2866e-304
-7.09392e-304
-5.77324e-304
-9.71795e-304
-4.88186e-304
-1.2867e-303
-1.76118e-304
-1.65342e-303
5.03767e-304
-2.05583e-303
1.78481e-303
-2.4396e-303
4.04074e-303
-2.61381e-303
7.90582e-303
-1.72447e-303
1.45672e-302
4.5871e-303
2.6364e-302
6.14304e-303
4.85629e-302
-3.96912e-303
1.38623e-302
-3.75686e-303
1.08865e-303
-1.89328e-303
-1.13296e-303
-9.32295e-304
-9.97788e-304
-4.63913e-304
-5.82191e-304
-2.32415e-304
-2.71668e-304
-1.13909e-304
-9.412e-305
-5.10188e-305
-8.65532e-306
-1.65109e-305
2.15021e-305
1.59821e-305
-4.77356e-304
-1.45014e-304
-9.64816e-304
-6.77986e-304
-1.51782e-303
-9.62893e-304
-2.17452e-303
-1.03582e-303
-2.96541e-303
-8.23858e-304
-3.90831e-303
-1.60303e-304
-4.99807e-303
1.23821e-303
-6.1839e-303
3.81995e-303
-7.3144e-303
8.29423e-303
-7.98305e-303
1.58163e-302
-6.87894e-303
2.84293e-302
-4.62338e-303
5.03286e-302
1.91558e-303
8.52328e-302
-7.2536e-303
2.11396e-302
-5.32263e-303
2.40104e-303
-2.94226e-303
-6.79419e-304
-1.57983e-303
-8.8288e-304
-8.42435e-304
-5.65528e-304
-4.48082e-304
-2.67807e-304
-2.34078e-304
-8.12168e-305
-1.14755e-304
1.44196e-305
-4.36371e-305
5.05854e-305
4.01887e-305
-8.1654e-304
-2.2115e-304
-1.65744e-303
-9.68959e-304
-2.60975e-303
-1.37724e-303
-3.73902e-303
-1.4618e-303
-5.09888e-303
-1.10837e-303
-6.72396e-303
-6.94606e-305
-8.61518e-303
2.06807e-303
-1.07095e-302
5.95358e-303
-1.2817e-302
1.25956e-302
-1.44862e-302
2.36022e-302
-1.44264e-302
4.16923e-302
-1.69139e-302
7.20163e-302
-3.64746e-303
1.16875e-301
-9.99154e-303
2.65605e-302
-6.50406e-303
3.70152e-303
-3.75286e-303
-1.4248e-304
-2.11543e-303
-6.73251e-304
-1.1791e-303
-4.85393e-304
-6.52872e-304
-2.29404e-304
-3.55708e-304
-5.18072e-305
-1.84291e-304
4.52759e-305
-7.71002e-305
8.55065e-305
7.29933e-305
-1.18907e-303
-3.02053e-304
-2.42198e-303
-1.26559e-303
-3.81573e-303
-1.7939e-303
-5.46478e-303
-1.87997e-303
-7.44915e-303
-1.36523e-303
-9.82603e-303
7.54298e-305
-1.26127e-302
2.97878e-303
-1.57546e-302
8.17604e-303
-1.90669e-302
1.69423e-302
-2.21383e-302
3.12624e-302
-2.38137e-302
5.43591e-302
-3.13012e-302
9.17648e-302
-1.03069e-302
1.43949e-301
-1.28715e-302
3.15993e-302
-7.8012e-303
5.02754e-303
-4.59069e-303
3.95924e-304
-2.67079e-303
-4.39925e-304
-1.53995e-303
-3.82564e-304
-8.82113e-304
-1.76648e-304
-4.98848e-304
-1.47524e-305
-2.71375e-304
8.05341e-305
-1.22958e-304
1.25521e-304
1.16209e-304
-1.61307e-303
-3.89367e-304
-3.29171e-303
-1.58377e-303
-5.18393e-303
-2.23624e-303
-7.41477e-303
-2.31711e-303
-1.00937e-302
-1.62279e-303
-1.33054e-302
2.48468e-304
-1.70925e-302
3.94787e-303
-2.14244e-302
1.04722e-302
-2.61477e-302
2.13249e-302
-3.09187e-302
3.87995e-302
-3.46756e-302
6.64789e-302
-4.71681e-302
1.10035e-301
-1.78672e-302
1.68508e-301
-1.60949e-302
3.65649e-302
-9.32506e-303
6.35962e-303
-5.54211e-303
9.20163e-304
-3.29792e-303
-2.04987e-304
-1.95438e-303
-2.72802e-304
-1.15315e-303
-1.19008e-304
-6.74605e-304
2.39289e-305
-3.83996e-304
1.15253e-304
-1.86989e-304
1.65541e-304
1.66394e-304
-2.10646e-303
-4.87092e-304
-4.30074e-303
-1.93806e-303
-6.76408e-303
-2.72644e-303
-9.65377e-303
-2.80079e-303
-1.31112e-302
-1.91021e-303
-1.72529e-302
4.21043e-304
-2.21531e-302
4.95187e-303
-2.78161e-302
1.2825e-302
-3.41335e-302
2.57375e-302
-4.08321e-302
4.6222e-302
-4.68753e-302
7.81163e-302
-6.43227e-302
1.27222e-301
-2.62959e-302
1.92104e-301
-1.97344e-302
4.15542e-302
-1.11118e-302
7.70747e-303
-6.65055e-303
1.44053e-303
-4.02914e-303
3.02739e-305
-2.44338e-303
-1.60876e-304
-1.47947e-303
-6.13095e-305
-8.92224e-304
5.94126e-305
-5.29806e-304
1.43243e-304
-2.7716e-304
1.95654e-304
2.06827e-304
-2.68758e-303
-6.0226e-304
-5.48461e-303
-2.34262e-303
-8.60833e-303
-3.28838e-303
-1.22493e-302
-3.36144e-303
-1.65832e-302
-2.26174e-303
-2.17608e-302
5.5991e-304
-2.7893e-302
5.96156e-303
-3.50255e-302
1.52151e-302
-4.31026e-302
3.01748e-302
-5.19223e-302
5.35506e-302
-6.04451e-302
8.93465e-302
-8.28661e-302
1.43528e-301
-3.56866e-302
2.15079e-301
-2.38154e-302
4.64913e-302
-1.31818e-302
9.09298e-303
-7.94825e-303
1.97993e-303
-4.89213e-303
2.7419e-304
-3.02681e-303
-4.63733e-305
-1.87445e-303
-6.29934e-306
-1.1606e-303
8.73258e-305
-7.1585e-304
1.57331e-304
-4.04945e-304
1.9905e-304
1.86537e-304
-3.37537e-303
-7.42517e-304
-6.8809e-303
-2.80532e-303
-1.07717e-302
-3.93889e-303
-1.52727e-302
-4.02572e-303
-2.05947e-302
-2.7133e-303
-2.69251e-302
6.20542e-304
-3.44135e-302
6.92423e-303
-4.31507e-302
1.75829e-302
-5.31391e-302
3.45725e-302
-6.42545e-302
6.07245e-302
-7.53727e-302
1.00118e-301
-1.03197e-301
1.58712e-301
-4.57249e-302
2.35204e-301
-2.83146e-302
5.1159e-302
-1.5528e-302
1.05353e-302
-9.44578e-303
2.5702e-303
-5.90058e-303
5.44437e-304
-3.71572e-303
7.88302e-305
-2.34521e-303
4.89236e-305
-1.48261e-303
1.07488e-304
-9.40816e-304
1.54618e-304
-5.84104e-304
1.68591e-304
1.11783e-304
-2.27495e-309
-1.38472e-308
-2.76972e-309
-8.46794e-308
-1.49702e-309
-6.35839e-308
-1.58386e-309
-2.73163e-308
-1.46748e-309
-8.12961e-309
-1.0066e-309
-1.44389e-309
-5.54443e-310
1.53787e-310
-2.61356e-310
2.92363e-310
-1.09646e-310
1.74965e-310
-4.19323e-311
8.01614e-311
-1.48331e-311
3.21299e-311
-4.89256e-312
1.18475e-311
-1.50864e-312
4.11937e-312
-4.3353e-313
1.3657e-312
-1.14827e-313
4.31488e-313
-2.73265e-314
1.28141e-313
-5.49333e-315
3.46096e-314
-7.7258e-316
7.76741e-315
8.07604e-316
-6.3775e-309
-5.26372e-308
-1.143e-308
-2.15345e-307
-9.61322e-309
-1.43915e-307
-8.32313e-309
-5.89511e-308
-6.02967e-309
-1.69414e-308
-3.62521e-309
-2.67941e-309
-1.87724e-309
6.20199e-310
-8.64861e-310
8.07494e-310
-3.62648e-310
4.73983e-310
-1.40522e-310
2.1994e-310
-5.08126e-311
9.00602e-311
-1.72412e-311
3.40025e-311
-5.49776e-312
1.2103e-311
-1.64237e-312
4.10508e-312
-4.55127e-313
1.3282e-312
-1.14411e-313
4.06042e-313
-2.47368e-314
1.14476e-313
-3.85977e-315
2.78113e-314
3.55401e-315
-1.64851e-308
-1.69916e-307
-3.26507e-308
-4.82421e-307
-2.95025e-308
-2.84694e-307
-2.3382e-308
-1.09238e-307
-1.5334e-308
-2.98602e-308
-8.61494e-309
-4.11724e-309
-4.28935e-309
1.56007e-309
-1.93918e-309
1.70818e-309
-8.09175e-310
9.89583e-310
-3.15072e-310
4.63302e-310
-1.15289e-310
1.9287e-310
-3.97996e-311
7.4283e-311
-1.29719e-311
2.70203e-311
-3.97922e-312
9.37919e-312
-1.13842e-312
3.11289e-312
-2.97683e-313
9.81003e-313
-6.78105e-314
2.88237e-313
-1.1414e-314
7.49302e-314
1.12465e-314
-4.69137e-308
-5.26561e-307
-8.7397e-308
-1.02936e-306
-7.78195e-308
-5.34411e-307
-5.68734e-308
-1.91039e-307
-3.46938e-308
-4.95118e-308
-1.8539e-308
-5.88313e-309
-8.95452e-309
3.26576e-309
-3.98655e-309
3.23533e-309
-1.65622e-309
1.86028e-309
-6.47253e-310
8.78656e-310
-2.39149e-310
3.71379e-310
-8.37642e-311
1.45702e-310
-2.78164e-311
5.40971e-311
-8.72966e-312
1.92005e-311
-2.56715e-312
6.53089e-312
-6.94403e-313
2.11821e-312
-1.65331e-313
6.46164e-313
-2.96405e-314
1.78072e-313
3.05734e-314
-1.4263e-307
-1.61481e-306
-2.24596e-307
-2.1014e-306
-1.89698e-307
-9.56221e-307
-1.28039e-307
-3.18809e-307
-7.35318e-308
-7.86963e-308
-3.77646e-308
-8.0986e-309
-1.78223e-308
6.07946e-309
-7.84808e-309
5.68141e-309
-3.25419e-309
3.26166e-309
-1.27781e-309
1.55644e-309
-4.76813e-310
6.67963e-310
-1.6936e-310
2.66813e-310
-5.72387e-311
1.01039e-310
-1.83473e-311
3.66306e-311
-5.53327e-312
1.27512e-311
-1.54343e-312
4.247e-312
-3.82337e-313
1.34005e-312
-7.25087e-314
3.88662e-313
7.53804e-314
-4.5356e-307
-4.84806e-306
-5.60831e-307
-4.06922e-306
-4.34925e-307
-1.62197e-306
-2.71191e-307
-5.07593e-307
-1.47736e-307
-1.20533e-307
-7.34778e-308
-1.09805e-308
-3.40813e-308
1.03749e-308
-1.49061e-308
9.39991e-309
-6.18563e-309
5.41866e-309
-2.44444e-309
2.61777e-309
-9.21918e-310
1.14153e-309
-3.32113e-310
4.64257e-310
-1.14187e-310
1.79228e-310
-3.73478e-311
6.63069e-311
-1.15335e-311
2.35839e-311
-3.31018e-312
8.04578e-312
-8.50512e-313
2.61422e-312
-1.69965e-313
7.90418e-313
1.69808e-313
-1.48923e-306
-1.47164e-305
-1.37603e-306
-7.2797e-306
-9.48694e-307
-2.57386e-306
-5.46192e-307
-7.68693e-307
-2.84102e-307
-1.78796e-307
-1.37764e-307
-1.5359e-308
-6.31474e-308
1.62605e-308
-2.75445e-308
1.46621e-308
-1.14733e-308
8.54274e-309
-4.5727e-309
4.18885e-309
-1.7456e-309
1.85765e-309
-6.3836e-310
7.69102e-310
-2.23378e-310
3.02399e-310
-7.45478e-311
1.13963e-310
-2.35592e-311
4.13032e-311
-6.94813e-312
1.4373e-311
-1.84698e-312
4.77578e-312
-3.87271e-313
1.48412e-312
3.41896e-313
-4.75814e-306
-2.84722e-305
-3.25866e-306
-1.10882e-305
-1.93227e-306
-3.69888e-306
-1.03394e-306
-1.08288e-306
-5.18094e-307
-2.49848e-307
-2.46684e-307
-2.03552e-308
-1.12307e-307
2.40986e-308
-4.90205e-308
2.16839e-308
-2.05396e-308
1.27679e-308
-8.26604e-309
6.34666e-309
-3.19561e-309
2.85667e-309
-1.18623e-309
1.20076e-309
-4.22179e-310
4.79199e-310
-1.43572e-310
1.83188e-310
-4.63368e-311
6.73e-311
-1.39999e-311
2.37274e-311
-3.83384e-312
7.98378e-312
-8.41283e-313
2.50576e-312
5.85478e-313
-9.79373e-303
-1.10664e-303
-1.99331e-302
-3.92968e-303
-3.10882e-302
-5.5717e-303
-4.38542e-302
-5.80806e-303
-5.88015e-302
-4.1704e-303
-7.64534e-302
9.97205e-305
-9.72631e-302
8.11203e-303
-1.21581e-301
2.14218e-302
-1.49614e-301
4.21631e-302
-1.81382e-301
7.3243e-302
-2.12054e-301
1.18628e-301
-2.9511e-301
1.8362e-301
-1.30653e-301
2.64464e-301
-7.61743e-302
5.90905e-302
-4.14051e-302
1.33715e-302
-2.5503e-302
3.83954e-303
-1.62281e-302
1.15967e-303
-1.04324e-302
3.72811e-304
-6.72182e-303
1.74099e-304
-4.33045e-303
1.3965e-304
-2.78916e-303
1.25818e-304
-1.78461e-303
8.38426e-305
-7.70215e-306
-9.73866e-304
-1.34984e-302
-1.5724e-303
-2.74371e-302
-5.32937e-303
-4.26762e-302
-7.69569e-303
-5.99853e-302
-8.33671e-303
-8.01169e-302
-6.67684e-303
-1.03785e-301
-1.84627e-303
-1.31645e-301
7.377e-303
-1.64277e-301
2.26413e-302
-2.02161e-301
4.61172e-302
-2.45659e-301
8.06126e-302
-2.88758e-301
1.29724e-301
-3.99929e-301
1.97794e-301
-1.84918e-301
2.7927e-301
-9.90537e-302
6.40088e-302
-5.29432e-302
1.54528e-302
-3.26841e-302
4.86821e-303
-2.09831e-302
1.70063e-303
-1.36404e-302
6.47655e-304
-8.8792e-303
2.94736e-304
-5.7499e-303
1.69438e-304
-3.6734e-303
1.02061e-304
-2.2631e-303
3.4612e-305
-4.40651e-305
-1.22897e-303
-1.73179e-302
-2.21345e-303
-3.51367e-302
-7.26076e-303
-5.4539e-302
-1.0719e-302
-7.64804e-302
-1.21503e-302
-1.01906e-301
-1.08818e-302
-1.31724e-301
-5.95059e-303
-1.66793e-301
3.94346e-303
-2.07901e-301
2.04929e-302
-2.55752e-301
4.58375e-302
-3.1094e-301
8.26104e-302
-3.66525e-301
1.33976e-301
-5.03928e-301
2.03388e-301
-2.39936e-301
2.84118e-301
-1.22842e-301
6.6466e-302
-6.47961e-302
1.66855e-302
-3.9842e-302
5.52975e-303
-2.55924e-302
2.07819e-303
-1.66756e-302
8.55683e-304
-1.08753e-302
3.95879e-304
-7.03413e-303
2.0502e-304
-4.45892e-303
1.02363e-304
-2.69946e-303
2.59089e-305
-3.50078e-305
-1.45432e-303
-2.12828e-302
-3.12513e-303
-4.30711e-302
-1.00165e-302
-6.67066e-302
-1.51122e-302
-9.33402e-302
-1.7874e-302
-1.24114e-301
-1.75347e-302
-1.60133e-301
-1.30487e-302
-2.02443e-301
-3.05352e-303
-2.52014e-301
1.41662e-302
-3.09722e-301
4.07024e-302
-3.76313e-301
7.90166e-302
-4.43792e-301
1.31909e-301
-6.06549e-301
2.02178e-301
-2.94552e-301
2.82414e-301
-1.47404e-301
6.71686e-302
-7.70832e-302
1.72001e-302
-4.71461e-302
5.83463e-303
-3.02059e-302
2.27509e-303
-1.96559e-302
9.79993e-304
-1.28024e-302
4.68153e-304
-8.2601e-303
2.43067e-304
-5.21171e-303
1.22817e-304
-3.13536e-303
4.39885e-305
-8.1694e-306
-1.68839e-303
-2.54254e-302
-4.42223e-303
-5.12881e-302
-1.39401e-302
-7.92311e-302
-2.14315e-302
-1.1061e-301
-2.62499e-302
-1.46771e-301
-2.75299e-302
-1.89014e-301
-2.41417e-302
-2.38565e-301
-1.46611e-302
-2.96557e-301
2.65512e-303
-3.64002e-301
2.98703e-302
-4.41761e-301
6.93308e-302
-5.20733e-301
1.23599e-301
-7.08335e-301
1.9507e-301
-3.49105e-301
2.75961e-301
-1.72693e-301
6.65084e-302
-8.98292e-302
1.70845e-302
-5.46721e-302
5.79757e-303
-3.49086e-302
2.28234e-303
-2.26579e-302
1.00566e-303
-1.47239e-302
4.97214e-304
-9.47645e-303
2.7052e-304
-5.96292e-303
1.49644e-304
-3.5796e-303
7.31332e-305
2.386e-305
-1.93068e-303
-2.97834e-302
-6.24429e-303
-5.98468e-302
-1.94462e-302
-9.21878e-302
-3.03481e-302
-1.2838e-301
-3.81774e-302
-1.69987e-301
-4.19552e-302
-2.1851e-301
-4.0457e-302
-2.75353e-301
-3.21835e-302
-3.41803e-301
-1.53419e-302
-4.18998e-301
1.21489e-302
-5.07898e-301
5.2605e-302
-5.98287e-301
1.08498e-301
-8.10659e-301
1.82049e-301
-4.04465e-301
2.65282e-301
-1.98792e-301
6.45281e-302
-1.03052e-301
1.63122e-302
-6.24554e-302
5.38714e-303
-3.97452e-302
2.07069e-303
-2.57257e-302
9.07029e-304
-1.6677e-302
4.61182e-304
-1.07103e-302
2.68543e-304
-6.7274e-303
1.66272e-304
-4.03525e-303
9.96295e-305
5.33333e-305
-2.17977e-303
-3.43946e-302
-8.76314e-303
-6.88056e-302
-2.70405e-302
-1.05656e-301
-4.2682e-302
-1.4676e-301
-5.47551e-302
-1.93921e-301
-6.21439e-302
-2.48856e-301
-6.3509e-302
-3.13157e-301
-5.72575e-302
-3.88268e-301
-4.15133e-302
-4.7545e-301
-1.41197e-302
-5.75762e-301
2.73109e-302
-6.77876e-301
8.53139e-302
-9.15394e-301
1.62146e-301
-4.61845e-301
2.49758e-301
-2.25901e-301
6.09186e-302
-1.16794e-301
1.47136e-302
-7.05217e-302
4.50114e-303
-4.47402e-302
1.57396e-303
-2.8883e-302
6.38712e-304
-1.86818e-302
3.27472e-304
-1.19756e-302
2.1291e-304
-7.51224e-303
1.54534e-304
-4.50397e-303
1.10783e-304
7.34852e-305
-2.43552e-303
-3.92837e-302
-1.21918e-302
-7.81947e-302
-3.73448e-302
-1.19679e-301
-5.9438e-302
-1.65826e-301
-7.73287e-302
-2.18714e-301
-8.97268e-302
-2.80303e-301
-9.51587e-302
-3.52392e-301
-9.19173e-302
-4.36588e-301
-7.80133e-302
-5.34284e-301
-5.11504e-302
-6.46643e-301
-8.7638e-303
-7.61225e-301
5.19086e-302
-1.02475e-300
1.33372e-301
-5.22711e-301
2.27628e-301
-2.54311e-301
5.49929e-302
-1.31122e-301
1.19549e-302
-7.8894e-302
2.95101e-303
-4.99059e-302
6.7877e-304
-3.21389e-302
1.2988e-304
-2.07453e-302
5.04146e-305
-1.32768e-302
7.34153e-305
-8.31936e-303
9.4365e-305
-4.98586e-303
9.39351e-305
7.75963e-305
-2.69772e-303
-4.44397e-302
-1.6797e-302
-8.79706e-302
-5.11275e-302
-1.34196e-301
-8.18527e-302
-1.85533e-301
-1.07542e-301
-2.44387e-301
-1.26688e-301
-3.12999e-301
-1.37665e-301
-3.934e-301
-1.38648e-301
-4.87379e-301
-1.27515e-301
-5.96466e-301
-1.0178e-301
-7.21928e-301
-5.85901e-302
-8.50218e-301
5.21057e-303
-1.14117e-300
9.26177e-302
-5.88704e-301
1.95846e-301
-2.84378e-301
4.56184e-302
-1.46117e-301
7.50733e-303
-8.75892e-302
4.47356e-304
-5.52427e-302
-7.82507e-304
-3.54908e-302
-7.18871e-304
-2.28648e-302
-4.29819e-304
-1.46116e-302
-1.86375e-304
-9.14656e-303
-3.64121e-305
-5.47912e-303
3.6072e-305
5.88895e-305
-2.96539e-303
-4.97824e-302
-2.29164e-302
-9.79474e-302
-6.93483e-302
-1.48944e-301
-1.11453e-301
-2.05594e-301
-1.47402e-301
-2.70701e-301
-1.75418e-301
-3.46835e-301
-1.93729e-301
-4.36292e-301
-2.00417e-301
-5.41057e-301
-1.93241e-301
-6.62807e-301
-1.69492e-301
-8.02917e-301
-1.25942e-301
-9.46729e-301
-5.88606e-302
-1.26716e-300
3.55117e-302
-6.61545e-301
1.49848e-301
-3.16477e-301
3.11076e-302
-1.61843e-301
6.09797e-304
-9.66068e-302
-3.413e-303
-6.0736e-302
-3.03483e-303
-3.89239e-302
-2.03498e-303
-2.50287e-302
-1.18584e-303
-1.59715e-302
-6.07988e-304
-9.9879e-303
-2.61484e-304
-5.97989e-303
-7.59608e-305
1.06988e-305
-3.23646e-303
-5.51115e-302
-3.09879e-302
-1.07698e-301
-9.32238e-302
-1.63319e-301
-1.50147e-301
-2.25315e-301
-1.99362e-301
-2.96971e-301
-2.38784e-301
-3.81245e-301
-2.66532e-301
-4.80722e-301
-2.80682e-301
-5.97605e-301
-2.78943e-301
-7.33721e-301
-2.58403e-301
-8.90559e-301
-2.15385e-301
-1.05235e-300
-1.45426e-301
-1.40502e-300
-4.36967e-302
-7.42862e-301
8.32686e-302
-3.50926e-301
9.08677e-303
-1.78315e-301
-9.76521e-303
-1.05913e-301
-9.14887e-303
-6.63492e-302
-6.35313e-303
-4.24095e-302
-3.96585e-303
-2.72166e-302
-2.29695e-303
-1.73424e-302
-1.23427e-303
-1.0834e-302
-6.04031e-304
-6.48226e-303
-2.54519e-304
-7.31261e-305
-3.5077e-303
-6.00325e-302
-4.15999e-302
-1.16405e-301
-1.2434e-301
-1.76184e-301
-2.00348e-301
-2.43374e-301
-2.66439e-301
-3.2184e-301
-3.20191e-301
-4.14966e-301
-3.59751e-301
-5.25643e-301
-3.83364e-301
-6.56292e-301
-3.8885e-301
-8.08906e-301
-3.73169e-301
-9.85098e-301
-3.32189e-301
-1.16801e-300
-2.60584e-301
-1.55645e-300
-1.52173e-301
-8.33861e-301
-1.2285e-302
-3.8787e-301
-2.361e-302
-1.9545e-301
-2.49076e-302
-1.15418e-301
-1.7364e-302
-7.20167e-302
-1.10322e-302
-4.5903e-302
-6.65692e-303
-2.93984e-302
-3.83544e-303
-1.87043e-302
-2.10165e-303
-1.16715e-302
-1.08279e-303
-6.97785e-303
-5.09329e-304
-1.97475e-304
-3.7744e-303
-6.38304e-302
-5.55913e-302
-1.22631e-301
-1.64836e-301
-1.85583e-301
-2.65189e-301
-2.57536e-301
-3.52364e-301
-3.42999e-301
-4.23673e-301
-4.45771e-301
-4.77565e-301
-5.69014e-301
-5.1279e-301
-7.15358e-301
-5.27543e-301
-8.86969e-301
-5.18836e-301
-1.08562e-300
-4.82134e-301
-1.29339e-300
-4.1121e-301
-1.72184e-300
-2.98336e-301
-9.34872e-301
-1.47233e-301
-4.27102e-301
-7.09221e-302
-2.13002e-301
-4.62617e-302
-1.24961e-301
-2.86456e-302
-7.76378e-302
-1.73153e-302
-4.9341e-302
-1.02083e-302
-3.15331e-302
-5.8426e-303
-2.00296e-302
-3.22788e-303
-1.24821e-302
-1.70606e-303
-7.45476e-303
-8.44744e-304
-3.64825e-304
-4.02972e-303
-6.52483e-302
-7.42612e-302
-1.23928e-301
-2.17743e-301
-1.88325e-301
-3.48842e-301
-2.64281e-301
-4.6181e-301
-3.56888e-301
-5.53968e-301
-4.70207e-301
-6.2462e-301
-6.07553e-301
-6.73562e-301
-7.71707e-301
-6.99783e-301
-9.65035e-301
-7.00596e-301
-1.18952e-300
-6.71205e-301
-1.42633e-300
-6.04555e-301
-1.8995e-300
-4.914e-301
-1.04471e-300
-3.33594e-301
-4.67837e-301
-1.37227e-301
-2.30504e-301
-7.50891e-302
-1.34288e-301
-4.33353e-302
-8.30693e-302
-2.52622e-302
-5.26358e-302
-1.46056e-302
-3.35623e-302
-8.29506e-303
-2.12781e-302
-4.5962e-303
-1.32381e-302
-2.46451e-303
-7.89509e-303
-1.25643e-303
-5.73741e-304
-4.26321e-303
-6.20159e-302
-9.98391e-302
-1.1612e-301
-2.87576e-301
-1.79323e-301
-4.56999e-301
-2.58338e-301
-6.00628e-301
-3.58408e-301
-7.16556e-301
-4.83423e-301
-8.05921e-301
-6.36575e-301
-8.70383e-301
-8.20714e-301
-9.10263e-301
-1.03845e-300
-9.23486e-301
-1.29212e-300
-9.05171e-301
-1.5621e-300
-8.4765e-301
-2.08478e-300
-7.4052e-301
-1.15995e-300
-5.83931e-301
-5.08408e-301
-2.26284e-301
-2.47196e-301
-1.11687e-301
-1.43033e-301
-6.11079e-302
-8.81047e-302
-3.45497e-302
-5.56541e-302
-1.96337e-302
-3.53939e-302
-1.10686e-302
-2.23852e-302
-6.14026e-303
-1.38956e-302
-3.32444e-303
-8.27067e-303
-1.72814e-303
-8.17211e-304
-4.4587e-303
-4.97214e-302
-1.3648e-301
-9.18788e-302
-3.81365e-301
-1.50554e-301
-5.97514e-301
-2.32154e-301
-7.76053e-301
-3.40773e-301
-9.1756e-301
-4.79195e-301
-1.0266e-300
-6.50066e-301
-1.10777e-300
-8.56238e-301
-1.16332e-300
-1.10071e-300
-1.19206e-300
-1.38636e-300
-1.18915e-300
-1.69303e-300
-1.14655e-300
-2.26935e-300
-1.05351e-300
-1.27411e-300
-9.09488e-301
-5.45722e-301
-3.38418e-301
-2.61906e-301
-1.53825e-301
-1.50634e-301
-8.0339e-302
-9.24031e-302
-4.42496e-302
-5.81633e-302
-2.48051e-302
-3.6866e-302
-1.39163e-302
-2.32412e-302
-7.73645e-303
-1.43834e-302
-4.22424e-303
-8.53785e-303
-2.22946e-303
-1.08107e-303
-4.59201e-303
-1.86611e-302
-1.9205e-301
-3.77653e-302
-5.10119e-301
-8.94604e-302
-7.80908e-301
-1.75483e-301
-9.96501e-301
-2.95726e-301
-1.16331e-300
-4.50366e-301
-1.29148e-300
-6.41097e-301
-1.3897e-300
-8.70966e-301
-1.46264e-300
-1.14372e-300
-1.5101e-300
-1.46309e-300
-1.5272e-300
-1.80858e-300
-1.50558e-300
-2.4411e-300
-1.43524e-300
-1.37654e-300
-1.31729e-300
-5.73934e-301
-4.63005e-301
-2.72707e-301
-1.94142e-301
-1.56076e-301
-9.74606e-302
-9.53057e-302
-5.27307e-302
-5.97233e-302
-2.93708e-302
-3.76929e-302
-1.64835e-302
-2.36677e-302
-9.21094e-303
-1.45941e-302
-5.07598e-303
-8.63508e-303
-2.71527e-303
-1.343e-303
-4.63079e-303
5.61364e-302
-2.52053e-301
7.19254e-302
-6.6392e-301
2.30824e-302
-9.93867e-301
-7.56479e-302
-1.24438e-300
-2.14603e-301
-1.43313e-300
-3.8991e-301
-1.57804e-300
-6.0267e-301
-1.69273e-300
-8.57076e-301
-1.78453e-300
-1.15852e-300
-1.85405e-300
-1.51198e-300
-1.8959e-300
-1.89634e-300
-1.9007e-300
-2.58531e-300
-1.85489e-300
-1.45057e-300
-1.80485e-300
-5.81236e-301
-5.49661e-301
-2.76097e-301
-2.15704e-301
-1.57253e-301
-1.06992e-301
-9.55006e-302
-5.79841e-302
-5.9554e-302
-3.24872e-302
-3.74282e-302
-1.83748e-302
-2.34152e-302
-1.03633e-302
-1.43913e-302
-5.77323e-303
-8.49016e-303
-3.12819e-303
-1.57306e-303
-4.53948e-303
2.47335e-301
-6.14187e-301
2.85643e-301
-1.14658e-300
2.12214e-301
-1.53268e-300
7.8843e-302
-1.81278e-300
-9.1773e-302
-2.01922e-300
-2.93343e-301
-2.17846e-300
-5.29082e-301
-2.30913e-300
-8.06951e-301
-2.42108e-300
-1.13595e-300
-2.51551e-300
-1.52305e-300
-2.58597e-300
-1.94038e-300
-2.62125e-300
-2.68978e-300
-2.61399e-300
-1.47854e-300
-1.51276e-300
-5.48734e-301
-4.80651e-301
-2.62976e-301
-2.03711e-301
-1.49384e-301
-1.05583e-301
-9.06949e-302
-5.87657e-302
-5.65626e-302
-3.35426e-302
-3.55482e-302
-1.92553e-302
-2.22306e-302
-1.10035e-302
-1.36524e-302
-6.20728e-303
-8.04421e-303
-3.4065e-303
-1.73774e-303
-4.29158e-303
7.33556e-301
-6.93585e-302
6.4698e-301
-4.83481e-301
4.80099e-301
-7.49534e-301
2.78904e-301
-9.36625e-301
6.32061e-302
-1.07281e-300
-1.66754e-301
-1.17725e-300
-4.21907e-301
-1.26306e-300
-7.18168e-301
-1.33693e-300
-1.07147e-300
-1.39914e-300
-1.49272e-300
-1.44325e-300
-1.98097e-300
-1.45627e-300
-1.62054e-300
-1.42857e-300
-7.33073e-301
-7.07471e-301
-3.62399e-301
-3.24159e-301
-2.06951e-301
-1.69042e-301
-1.25704e-301
-9.50278e-302
-7.88469e-302
-5.51614e-302
-5.00734e-302
-3.23463e-302
-3.18141e-302
-1.89445e-302
-2.0028e-302
-1.1004e-302
-1.23476e-302
-6.29608e-303
-7.28853e-303
-3.5003e-303
-1.80857e-303
-3.886e-303
2.68272e-301
-2.5348e-301
1.83983e-301
-3.97871e-301
1.21862e-301
-4.66276e-301
5.81659e-302
-5.15487e-301
-8.46553e-303
-5.51753e-301
-8.14744e-302
-5.78534e-301
-1.65637e-301
-5.98502e-301
-2.65758e-301
-6.12897e-301
-3.83305e-301
-6.20912e-301
-5.08119e-301
-6.18718e-301
-5.88681e-301
-5.97362e-301
-5.04789e-301
-5.45163e-301
-3.33786e-301
-3.5731e-301
-2.202e-301
-2.16891e-301
-1.45212e-301
-1.30676e-301
-9.57451e-302
-7.93165e-302
-6.3025e-302
-4.8222e-302
-4.12561e-302
-2.91854e-302
-2.67336e-302
-1.75018e-302
-1.70499e-302
-1.03582e-302
-1.06008e-302
-6.01921e-303
-6.2882e-303
-3.39104e-303
-1.77259e-303
-3.356e-303
1.32307e-302
-1.36961e-301
8.83424e-303
-2.11242e-301
1.93556e-303
-2.43237e-301
-1.15107e-302
-2.6577e-301
-3.06807e-302
-2.81786e-301
-5.56639e-302
-2.92604e-301
-8.70792e-302
-2.99295e-301
-1.25033e-301
-3.0252e-301
-1.67334e-301
-3.02378e-301
-2.0672e-301
-2.98248e-301
-2.26286e-301
-2.88347e-301
-2.11117e-301
-2.66082e-301
-1.73109e-301
-2.06755e-301
-1.32519e-301
-1.44399e-301
-9.67172e-302
-9.60549e-302
-6.83557e-302
-6.22538e-302
-4.71974e-302
-3.96001e-302
-3.1943e-302
-2.47702e-302
-2.11903e-302
-1.52321e-302
-1.37398e-302
-9.19603e-303
-8.64067e-303
-5.431e-303
-5.16192e-303
-3.1005e-303
-1.6378e-303
-2.76052e-303
-2.74047e-302
-6.49317e-302
-2.3429e-302
-1.15971e-301
-2.1447e-302
-1.40299e-301
-2.3332e-302
-1.55622e-301
-2.92201e-302
-1.65594e-301
-3.89835e-302
-1.71749e-301
-5.24958e-302
-1.75046e-301
-6.91767e-302
-1.76114e-301
-8.72898e-302
-1.7526e-301
-1.03239e-301
-1.72323e-301
-1.11545e-301
-1.66163e-301
-1.08827e-301
-1.53072e-301
-9.70016e-302
-1.26808e-301
-8.03267e-302
-9.58897e-302
-6.2676e-302
-6.82521e-302
-4.67335e-302
-4.66206e-302
-3.36319e-302
-3.08735e-302
-2.34885e-302
-1.99219e-302
-1.59542e-302
-1.25548e-302
-1.05276e-302
-7.7302e-303
-6.70472e-303
-4.63867e-303
-4.038e-303
-2.68214e-303
-1.42988e-303
-2.16446e-303
-2.38884e-302
-3.11579e-302
-2.33042e-302
-6.40329e-302
-2.18195e-302
-8.23593e-302
-2.15173e-302
-9.39785e-302
-2.32376e-302
-1.01338e-301
-2.71491e-302
-1.05719e-301
-3.3164e-302
-1.07951e-301
-4.08384e-302
-1.08596e-301
-4.91649e-302
-1.07951e-301
-5.64675e-302
-1.0594e-301
-6.07102e-302
-1.01827e-301
-6.06186e-302
-9.38446e-302
-5.6285e-302
-8.01642e-302
-4.88094e-302
-6.34842e-302
-3.98525e-302
-4.73253e-302
-3.09451e-302
-3.36604e-302
-2.30407e-302
-2.30529e-302
-1.65417e-302
-1.52901e-302
-1.14838e-302
-9.85456e-303
-7.70687e-303
-6.18004e-303
-4.97035e-303
-3.76431e-303
-3.01808e-303
-2.20233e-303
-1.18312e-303
-1.62089e-303
-1.5807e-302
-1.5375e-302
-1.69469e-302
-3.54066e-302
-1.66664e-302
-4.82683e-302
-1.63818e-302
-5.69249e-302
-1.68824e-302
-6.25604e-302
-1.84545e-302
-6.59754e-302
-2.11286e-302
-6.77703e-302
-2.46845e-302
-6.83744e-302
-2.8615e-302
-6.80229e-302
-3.21487e-302
-6.66816e-302
-3.44204e-302
-6.39322e-302
-3.47985e-302
-5.89719e-302
-3.30832e-302
-5.12389e-302
-2.95607e-302
-4.17595e-302
-2.49238e-302
-3.21439e-302
-1.99576e-302
-2.35716e-302
-1.5273e-302
-1.65874e-302
-1.12241e-302
-1.1261e-302
-7.94359e-303
-7.40174e-303
-5.4137e-303
-4.71853e-303
-3.53261e-303
-2.91303e-303
-2.16153e-303
-1.72216e-303
-9.3076e-304
-1.16214e-303
-9.52316e-303
-7.7485e-303
-1.0948e-302
-1.95565e-302
-1.12706e-302
-2.80754e-302
-1.12769e-302
-3.42332e-302
-1.14847e-302
-3.84477e-302
-1.21415e-302
-4.11164e-302
-1.33288e-302
-4.26045e-302
-1.49729e-302
-4.31997e-302
-1.68458e-302
-4.30677e-302
-1.85951e-302
-4.22033e-302
-1.98185e-302
-4.03962e-302
-2.0173e-302
-3.72987e-302
-1.94709e-302
-3.27447e-302
-1.77621e-302
-2.71881e-302
-1.53312e-302
-2.14031e-302
-1.25693e-302
-1.60588e-302
-9.83235e-303
-1.15456e-302
-7.36734e-303
-7.98987e-303
-5.30074e-303
-5.33982e-303
-3.66172e-303
-3.45265e-303
-2.41455e-303
-2.15665e-303
-1.48741e-303
-1.28643e-303
-6.98279e-304
-7.99688e-304
-5.44302e-303
-3.94961e-303
-6.6064e-303
-1.0758e-302
-7.07434e-303
-1.6162e-302
-7.24315e-303
-2.03454e-302
-7.39891e-303
-2.33707e-302
-7.70626e-303
-2.53862e-302
-8.24464e-303
-2.65805e-302
-9.00794e-303
-2.71242e-302
-9.90632e-303
-2.71238e-302
-1.07814e-302
-2.65895e-302
-1.14377e-302
-2.54278e-302
-1.16854e-302
-2.34982e-302
-1.13944e-302
-2.07658e-302
-1.05503e-302
-1.74571e-302
-9.26755e-303
-1.39627e-302
-7.73797e-303
-1.06569e-302
-6.16014e-303
-7.79105e-303
-4.68988e-303
-5.47564e-303
-3.42145e-303
-3.7103e-303
-2.39107e-303
-2.42783e-303
-1.59106e-303
-1.53163e-303
-9.85701e-304
-9.20383e-304
-5.00923e-304
-5.29305e-304
-2.99174e-303
-2.02086e-303
-3.79363e-303
-5.87516e-303
-4.20177e-303
-9.18759e-303
-4.40453e-303
-1.19155e-302
-4.54395e-303
-1.39955e-302
-4.71391e-303
-1.54513e-302
-4.972e-303
-1.63624e-302
-5.33375e-303
-1.68179e-302
-5.77003e-303
-1.68808e-302
-6.21186e-303
-1.65653e-302
-6.56266e-303
-1.58365e-302
-6.71848e-303
-1.46451e-302
-6.59813e-303
-1.29981e-302
-6.17683e-303
-1.10191e-302
-5.49871e-303
-8.91356e-303
-4.65706e-303
-6.89014e-303
-3.75976e-303
-5.10267e-303
-2.89984e-303
-3.63058e-303
-2.14004e-303
-2.48781e-303
-1.51023e-303
-1.644e-303
-1.01269e-303
-1.04569e-303
-6.30269e-304
-6.32091e-304
-3.444e-304
-3.37621e-304
-1.59015e-303
-1.03195e-303
-2.0902e-303
-3.17539e-303
-2.38347e-303
-5.1465e-303
-2.55544e-303
-6.86113e-303
-2.67121e-303
-8.23338e-303
-2.77866e-303
-9.23815e-303
-2.91321e-303
-9.89745e-303
-3.09182e-303
-1.02513e-302
-3.3086e-303
-1.03332e-302
-3.53462e-303
-1.01559e-302
-3.72233e-303
-9.71056e-303
-3.81566e-303
-8.9852e-303
-3.76691e-303
-7.99752e-303
-3.55575e-303
-6.81874e-303
-3.19812e-303
-5.56028e-303
-2.73911e-303
-4.33867e-303
-2.23625e-303
-3.24497e-303
-1.74306e-303
-2.33121e-303
-1.2986e-303
-1.61184e-303
-9.2388e-304
-1.07367e-303
-6.23482e-304
-6.87469e-304
-3.8941e-304
-4.1744e-304
-2.27374e-304
-2.07851e-304
-8.19578e-304
-5.234e-304
-1.10974e-303
-1.69345e-303
-1.29777e-303
-2.83468e-303
-1.42102e-303
-3.87653e-303
-1.50728e-303
-4.74729e-303
-1.57881e-303
-5.41113e-303
-1.655e-303
-5.86485e-303
-1.74814e-303
-6.12227e-303
-1.85942e-303
-6.19935e-303
-1.97717e-303
-6.10501e-303
-2.07817e-303
-5.84021e-303
-2.13276e-303
-5.40668e-303
-2.11405e-303
-4.82151e-303
-2.00839e-303
-4.12689e-303
-1.82096e-303
-3.38447e-303
-1.57345e-303
-2.65922e-303
-1.29613e-303
-2.00382e-303
-1.01893e-303
-1.45038e-303
-7.64992e-304
-1.00995e-303
-5.47879e-304
-6.7703e-304
-3.71668e-304
-4.35777e-304
-2.32734e-304
-2.65482e-304
-1.44376e-304
-1.23646e-304
-4.10351e-304
-2.62576e-304
-5.69265e-304
-8.88716e-304
-6.80395e-304
-1.53212e-303
-7.59619e-304
-2.14511e-303
-8.18054e-304
-2.67761e-303
-8.65152e-304
-3.09836e-303
-9.10581e-304
-3.39631e-303
-9.61737e-304
-3.57318e-303
-1.0209e-303
-3.63532e-303
-1.0835e-303
-3.58817e-303
-1.13829e-303
-3.43524e-303
-1.16983e-303
-3.18177e-303
-1.16351e-303
-2.84102e-303
-1.11102e-303
-2.43816e-303
-1.01375e-303
-2.00759e-303
-8.82124e-304
-1.58537e-303
-7.31859e-304
-1.20136e-303
-5.79287e-304
-8.74569e-304
-4.37638e-304
-6.12362e-304
-3.15122e-304
-4.12543e-304
-2.14664e-304
-2.66606e-304
-1.34651e-304
-1.6278e-304
-8.8287e-305
-7.1135e-305
-1.99899e-304
-1.29828e-304
-2.8274e-304
-4.57845e-304
-3.44301e-304
-8.11071e-304
-3.91255e-304
-1.1606e-303
-4.27786e-304
-1.47487e-303
-4.5755e-304
-1.73121e-303
-4.8498e-304
-1.91847e-303
-5.14017e-304
-2.03394e-303
-5.4636e-304
-2.07931e-303
-5.80213e-304
-2.05751e-303
-6.10122e-304
-1.97183e-303
-6.2821e-304
-1.82724e-303
-6.2673e-304
-1.63298e-303
-6.0098e-304
-1.40392e-303
-5.51162e-304
-1.15924e-303
-4.82284e-304
-9.18782e-304
-4.02413e-304
-6.99141e-304
-3.20265e-304
-5.11179e-304
-2.43161e-304
-3.59433e-304
-1.7584e-304