/*--------------------------------*- C++ -*----------------------------------*\
| =========                 |                                                 |
| \\      /  F ield         | OpenFOAM: The Open Source CFD Toolbox           |
|  \\    /   O peration     | Version:  2406                                  |
|   \\  /    A nd           | Website:  www.openfoam.com                      |
|    \\/     M anipulation  |                                                 |
\*---------------------------------------------------------------------------*/
FoamFile
{
    version     2.0;
    format      ascii;
    arch        "LSB;label=32;scalar=64";
    class       volVectorField;
    location    "0.35";
    object      U;
}
// * * * * * * * * * * * * * * * * * * * * * * * * * * * * * * * * * * * * * //

dimensions      [0 1 -1 0 0 0 0];

internalField   nonuniform List<vector> 
2268
(
(-8.88056e-301 -2.73074e-301 0)
(-2.58971e-300 -1.19208e-300 0)
(-4.50522e-300 -1.63984e-300 0)
(-6.74433e-300 -1.82036e-300 0)
(-9.45218e-300 -1.64542e-300 0)
(-1.27354e-299 -8.83144e-301 0)
(-1.6642e-299 8.72315e-301 0)
(-2.11081e-299 4.2707e-300 0)
(-2.58298e-299 1.03906e-299 0)
(-2.98701e-299 2.11401e-299 0)
(-2.98072e-299 4.04155e-299 0)
(-1.02654e-299 7.43632e-299 0)
(1.36613e-298 1.57149e-298 0)
(-3.38386e-299 5.0964e-299 0)
(-5.67826e-299 2.24015e-300 0)
(-2.89924e-299 -7.13572e-300 0)
(-1.42341e-299 -5.49425e-300 0)
(-7.05167e-300 -3.06114e-300 0)
(-3.54018e-300 -1.41092e-300 0)
(-1.7662e-300 -5.13108e-301 0)
(-8.34519e-301 -9.68954e-302 0)
(-3.3032e-301 4.42644e-302 0)
(-4.66483e-302 3.00616e-302 0)
(-2.79544e-300 -5.83228e-301 0)
(-8.10334e-300 -2.86844e-300 0)
(-1.39249e-299 -4.06441e-300 0)
(-2.07292e-299 -4.40898e-300 0)
(-2.89186e-299 -3.62212e-300 0)
(-3.87864e-299 -1.01717e-300 0)
(-5.04463e-299 4.56334e-300 0)
(-6.36675e-299 1.49874e-299 0)
(-7.75205e-299 3.32091e-299 0)
(-8.94785e-299 6.41638e-299 0)
(-9.27868e-299 1.16765e-298 0)
(-6.7271e-299 2.10104e-298 0)
(2.74624e-299 3.66846e-298 0)
(-8.77372e-299 9.86101e-299 0)
(-7.78737e-299 9.50638e-300 0)
(-4.36502e-299 -5.08894e-300 0)
(-2.35261e-299 -5.27189e-300 0)
(-1.25439e-299 -3.22071e-300 0)
(-6.69025e-300 -1.52039e-300 0)
(-3.54015e-300 -5.02448e-301 0)
(-1.80422e-300 3.50439e-303 0)
(-8.15813e-301 1.87744e-301 0)
(-1.80489e-301 1.42386e-301 0)
(-4.73917e-300 -9.81473e-301 0)
(-1.39037e-299 -4.44704e-300 0)
(-2.39382e-299 -6.32522e-300 0)
(-3.56464e-299 -6.76758e-300 0)
(-4.97212e-299 -5.26732e-300 0)
(-6.6694e-299 -7.12507e-301 0)
(-8.68243e-299 8.79694e-300 0)
(-1.09874e-298 2.62299e-299 0)
(-1.34641e-298 5.62858e-299 0)
(-1.57991e-298 1.06495e-298 0)
(-1.72752e-298 1.89987e-298 0)
(-1.61627e-298 3.32942e-298 0)
(-1.1496e-298 5.52817e-298 0)
(-1.34316e-298 1.29486e-298 0)
(-9.38058e-299 1.64009e-299 0)
(-5.46919e-299 -2.242e-300 0)
(-3.09917e-299 -4.25439e-300 0)
(-1.73069e-299 -2.88134e-300 0)
(-9.6138e-300 -1.36926e-300 0)
(-5.29227e-300 -3.73882e-301 0)
(-2.8291e-300 1.52083e-301 0)
(-1.37854e-300 3.58073e-301 0)
(-3.81774e-301 2.91251e-301 0)
(-6.85291e-300 -1.40474e-300 0)
(-2.02954e-299 -6.00804e-300 0)
(-3.50022e-299 -8.53519e-300 0)
(-5.21169e-299 -9.00529e-300 0)
(-7.26525e-299 -6.69201e-300 0)
(-9.74232e-299 -3.69741e-302 0)
(-1.2692e-298 1.35176e-299 0)
(-1.61047e-298 3.80093e-299 0)
(-1.98654e-298 7.96213e-299 0)
(-2.36673e-298 1.48173e-298 0)
(-2.6878e-298 2.59873e-298 0)
(-2.81925e-298 4.44115e-298 0)
(-2.79312e-298 7.08269e-298 0)
(-1.81928e-298 1.57102e-298 0)
(-1.11948e-298 2.35386e-299 0)
(-6.61653e-299 7.04641e-301 0)
(-3.86471e-299 -3.00999e-300 0)
(-2.23311e-299 -2.35606e-300 0)
(-1.28284e-299 -1.10601e-300 0)
(-7.31157e-300 -1.85118e-301 0)
(-4.0779e-300 3.36445e-301 0)
(-2.118e-300 5.64543e-301 0)
(-6.89325e-301 4.96348e-301 0)
(-9.25515e-300 -1.85442e-300 0)
(-2.75738e-299 -7.64768e-300 0)
(-4.75809e-299 -1.08211e-299 0)
(-7.07762e-299 -1.12796e-299 0)
(-9.85144e-299 -8.0388e-300 0)
(-1.3194e-298 8.50863e-301 0)
(-1.71844e-298 1.86235e-299 0)
(-2.18405e-298 5.02103e-299 0)
(-2.70748e-298 1.03186e-298 0)
(-3.26244e-298 1.89148e-298 0)
(-3.79677e-298 3.26663e-298 0)
(-4.21023e-298 5.46028e-298 0)
(-4.58647e-298 8.44945e-298 0)
(-2.33847e-298 1.83855e-298 0)
(-1.33625e-298 3.07087e-299 0)
(-7.92809e-299 3.56739e-300 0)
(-4.72539e-299 -1.73681e-300 0)
(-2.80426e-299 -1.77182e-300 0)
(-1.6579e-299 -8.00026e-301 0)
(-9.74912e-300 2.59389e-302 0)
(-5.65316e-300 5.3252e-301 0)
(-3.11406e-300 7.89826e-301 0)
(-1.15518e-300 7.57544e-301 0)
(-1.20569e-299 -2.34686e-300 0)
(-3.60369e-299 -9.44123e-300 0)
(-6.21556e-299 -1.3308e-299 0)
(-9.22789e-299 -1.37221e-299 0)
(-1.28132e-298 -9.47115e-300 0)
(-1.71218e-298 1.83012e-300 0)
(-2.22692e-298 2.39741e-299 0)
(-2.83097e-298 6.27853e-299 0)
(-3.51987e-298 1.2691e-298 0)
(-4.27334e-298 2.29499e-298 0)
(-5.04927e-298 3.90645e-298 0)
(-5.76311e-298 6.41255e-298 0)
(-6.51192e-298 9.73264e-298 0)
(-2.91454e-298 2.10682e-298 0)
(-1.59114e-298 3.79117e-299 0)
(-9.45854e-299 6.36119e-300 0)
(-5.72569e-299 -4.75009e-301 0)
(-3.47345e-299 -1.17172e-300 0)
(-2.10516e-299 -4.8407e-301 0)
(-1.2727e-299 2.32255e-301 0)
(-7.64389e-300 7.11066e-301 0)
(-4.4524e-300 9.96364e-301 0)
(-1.87558e-300 1.03786e-300 0)
(-1.53676e-299 -2.90887e-300 0)
(-4.5994e-299 -1.14705e-299 0)
(-7.92282e-299 -1.61103e-299 0)
(-1.17313e-298 -1.64985e-299 0)
(-1.62358e-298 -1.114e-299 0)
(-2.16262e-298 2.71294e-300 0)
(-2.80572e-298 2.94567e-299 0)
(-3.56269e-298 7.55963e-299 0)
(-4.43416e-298 1.50798e-298 0)
(-5.40683e-298 2.69238e-298 0)
(-6.44784e-298 4.52231e-298 0)
(-7.48276e-298 7.31474e-298 0)
(-8.58767e-298 1.09954e-297 0)
(-3.55234e-298 2.37689e-298 0)
(-1.88509e-298 4.5252e-299 0)
(-1.12453e-298 9.1822e-300 0)
(-6.90183e-299 8.01665e-301 0)
(-4.26767e-299 -5.64132e-301 0)
(-2.64302e-299 -1.7746e-301 0)
(-1.63665e-299 4.08808e-301 0)
(-1.01318e-299 8.3453e-301 0)
(-6.21217e-300 1.11474e-300 0)
(-3.03335e-300 1.19381e-300 0)
(-1.92952e-299 -3.58953e-300 0)
(-5.77697e-299 -1.38065e-299 0)
(-9.93318e-299 -1.93714e-299 0)
(-1.46602e-298 -1.97715e-299 0)
(-2.02096e-298 -1.32642e-299 0)
(-2.68113e-298 3.3285e-300 0)
(-3.46629e-298 3.48687e-299 0)
(-4.39085e-298 8.85745e-299 0)
(-5.46113e-298 1.74789e-298 0)
(-6.67134e-298 3.08574e-298 0)
(-7.99895e-298 5.1182e-298 0)
(-9.38724e-298 8.17192e-298 0)
(-1.08592e-297 1.22117e-297 0)
(-4.24898e-298 2.63952e-298 0)
(-2.21568e-298 5.28615e-299 0)
(-1.32959e-298 1.21813e-299 0)
(-8.27026e-299 2.15685e-300 0)
(-5.20166e-299 6.37634e-302 0)
(-3.2819e-299 1.0949e-301 0)
(-2.07257e-299 5.33439e-301 0)
(-1.31247e-299 8.63079e-301 0)
(-8.35563e-300 1.03301e-300 0)
(-4.98036e-300 8.18933e-301 0)
(-5.73478e-306 -1.93157e-305 0)
(-4.62058e-305 -1.96173e-304 0)
(-1.70311e-305 -1.62168e-304 0)
(-1.71482e-305 -7.12748e-305 0)
(-1.90137e-305 -2.15315e-305 0)
(-1.44911e-305 -4.17011e-306 0)
(-8.49123e-306 3.19383e-308 0)
(-4.16755e-306 5.0825e-307 0)
(-1.79962e-306 3.14128e-307 0)
(-7.03768e-307 1.40763e-307 0)
(-2.53611e-307 5.45338e-308 0)
(-8.50519e-308 1.94285e-308 0)
(-2.66527e-308 6.55709e-309 0)
(-7.79186e-309 2.12258e-309 0)
(-2.10631e-309 6.56638e-310 0)
(-5.15381e-310 1.89908e-310 0)
(-1.08525e-310 4.88854e-311 0)
(-1.68967e-311 9.78514e-312 0)
(-7.42493e-313 7.07594e-313 0)
(1.95496e-306 -1.15164e-304 0)
(-1.47563e-304 -6.26207e-304 0)
(-1.13401e-304 -4.5534e-304 0)
(-1.06084e-304 -1.94013e-304 0)
(-8.39458e-305 -5.74209e-305 0)
(-5.37208e-305 -9.85247e-306 0)
(-2.90484e-305 1.46159e-306 0)
(-1.38119e-305 2.33109e-306 0)
(-5.93426e-306 1.38508e-306 0)
(-2.34555e-306 6.3774e-307 0)
(-8.62774e-307 2.57502e-307 0)
(-2.97358e-307 9.56306e-308 0)
(-9.62846e-308 3.3449e-308 0)
(-2.92378e-308 1.11407e-308 0)
(-8.26014e-309 3.53384e-309 0)
(-2.13111e-309 1.05456e-309 0)
(-4.81062e-310 2.87232e-310 0)
(-8.37168e-311 6.56496e-311 0)
(-4.4077e-312 7.13561e-312 0)
(9.04749e-306 -3.96033e-304 0)
(-3.85429e-304 -1.46516e-303 0)
(-3.60037e-304 -9.4232e-304 0)
(-3.13551e-304 -3.78502e-304 0)
(-2.20295e-304 -1.07109e-304 0)
(-1.29804e-304 -1.61692e-305 0)
(-6.68885e-305 4.56159e-306 0)
(-3.10441e-305 5.51104e-306 0)
(-1.32305e-305 3.2181e-306 0)
(-5.24422e-306 1.49825e-306 0)
(-1.94937e-306 6.17136e-307 0)
(-6.82869e-307 2.34592e-307 0)
(-2.25817e-307 8.40913e-308 0)
(-7.03529e-308 2.87266e-308 0)
(-2.04988e-308 9.36527e-309 0)
(-5.49318e-309 2.8888e-309 0)
(-1.30338e-309 8.24522e-310 0)
(-2.44836e-310 2.04446e-310 0)
(-1.57639e-311 2.73798e-311 0)
(-6.32664e-305 -1.25414e-303 0)
(-1.00785e-303 -3.21997e-303 0)
(-9.87562e-304 -1.82254e-303 0)
(-7.89177e-304 -6.82386e-304 0)
(-5.09331e-304 -1.82884e-304 0)
(-2.82782e-304 -2.38162e-305 0)
(-1.40492e-304 1.05893e-305 0)
(-6.39536e-305 1.10783e-305 0)
(-2.70656e-305 6.39243e-306 0)
(-1.07484e-305 3.0012e-306 0)
(-4.02936e-306 1.25596e-306 0)
(-1.43078e-306 4.86822e-307 0)
(-4.81683e-307 1.78321e-307 0)
(-1.53408e-307 6.23613e-308 0)
(-4.59034e-308 2.08662e-308 0)
(-1.27086e-308 6.63841e-309 0)
(-3.14565e-309 1.97474e-309 0)
(-6.2911e-310 5.23254e-310 0)
(-4.76296e-311 8.18432e-311 0)
(-6.33831e-304 -3.85966e-303 0)
(-2.62263e-303 -6.77682e-303 0)
(-2.50525e-303 -3.36749e-303 0)
(-1.82585e-303 -1.17293e-303 0)
(-1.09748e-303 -2.97959e-304 0)
(-5.81368e-304 -3.33189e-305 0)
(-2.80856e-304 2.11267e-305 0)
(-1.26054e-304 2.03423e-305 0)
(-5.31297e-305 1.16741e-305 0)
(-2.11685e-305 5.53204e-306 0)
(-8.00589e-306 2.35076e-306 0)
(-2.88049e-306 9.28188e-307 0)
(-9.86251e-307 3.47054e-307 0)
(-3.20596e-307 1.24108e-307 0)
(-9.83005e-308 4.25598e-308 0)
(-2.80325e-308 1.3933e-308 0)
(-7.20648e-309 4.3006e-309 0)
(-1.52287e-309 1.20613e-309 0)
(-1.32613e-310 2.15077e-310 0)
(-3.52319e-303 -1.18228e-302 0)
(-6.83228e-303 -1.36313e-302 0)
(-5.97235e-303 -5.91903e-303 0)
(-3.95765e-303 -1.92325e-303 0)
(-2.23406e-303 -4.66315e-304 0)
(-1.13897e-303 -4.53322e-305 0)
(-5.38641e-304 3.79151e-305 0)
(-2.39488e-304 3.48339e-305 0)
(-1.00841e-304 2.00022e-305 0)
(-4.03863e-305 9.58359e-306 0)
(-1.54242e-305 4.13629e-306 0)
(-5.62465e-306 1.66302e-306 0)
(-1.958e-306 6.34208e-307 0)
(-6.49069e-307 2.31638e-307 0)
(-2.03639e-307 8.12755e-308 0)
(-5.96885e-308 2.73126e-308 0)
(-1.58879e-308 8.71352e-309 0)
(-3.5306e-309 2.56844e-309 0)
(-3.49963e-310 5.16995e-310 0)
(-1.6115e-302 -3.526e-302 0)
(-1.78865e-302 -2.58877e-302 0)
(-1.35304e-302 -9.83305e-303 0)
(-8.12976e-303 -3.00635e-303 0)
(-4.34065e-303 -7.04267e-304 0)
(-2.14584e-303 -6.13074e-305 0)
(-9.99513e-304 6.28428e-305 0)
(-4.4224e-304 5.64552e-305 0)
(-1.86643e-304 3.26222e-305 0)
(-7.53104e-305 1.58394e-305 0)
(-2.90914e-305 6.94994e-306 0)
(-1.07633e-305 2.84571e-306 0)
(-3.81149e-306 1.1064e-306 0)
(-1.28857e-306 4.12314e-307 0)
(-4.13472e-307 1.47764e-307 0)
(-1.24422e-307 5.08256e-308 0)
(-3.42147e-308 1.6675e-308 0)
(-7.95466e-309 5.10786e-309 0)
(-8.87344e-310 1.13213e-309 0)
(-6.27206e-302 -1.07661e-301 0)
(-4.59149e-302 -4.48105e-302 0)
(-2.84852e-302 -1.51635e-302 0)
(-1.56316e-302 -4.45897e-303 0)
(-7.97491e-303 -1.03215e-303 0)
(-3.85397e-303 -8.78542e-305 0)
(-1.77819e-303 9.50743e-305 0)
(-7.85943e-304 8.59385e-305 0)
(-3.33272e-304 5.03423e-305 0)
(-1.35679e-304 2.48414e-305 0)
(-5.30471e-305 1.1091e-305 0)
(-1.99136e-305 4.62358e-306 0)
(-7.16981e-306 1.8304e-306 0)
(-2.46919e-306 6.94457e-307 0)
(-8.08789e-307 2.53361e-307 0)
(-2.49153e-307 8.87607e-308 0)
(-7.0486e-308 2.97059e-308 0)
(-1.70464e-308 9.30542e-309 0)
(-2.16135e-309 2.18826e-309 0)
(-2.6313e-299 -4.89149e-300 0)
(-7.88127e-299 -1.79599e-299 0)
(-1.35149e-298 -2.52469e-299 0)
(-1.98551e-298 -2.58609e-299 0)
(-2.72179e-298 -1.75609e-299 0)
(-3.58995e-298 3.38895e-300 0)
(-4.61655e-298 4.26475e-299 0)
(-5.82366e-298 1.08229e-298 0)
(-7.22679e-298 2.11468e-298 0)
(-8.8327e-298 3.68098e-298 0)
(-1.06368e-297 6.00371e-298 0)
(-1.26193e-297 9.39339e-298 0)
(-1.4772e-297 1.37052e-297 0)
(-5.4087e-298 3.01637e-298 0)
(-2.76784e-298 6.52962e-299 0)
(-1.67657e-298 1.74502e-299 0)
(-1.06091e-298 4.59717e-300 0)
(-6.81011e-299 1.19427e-300 0)
(-4.38795e-299 5.92469e-301 0)
(-2.82724e-299 6.78722e-301 0)
(-1.82106e-299 7.72674e-301 0)
(-1.17281e-299 6.46939e-301 0)
(-7.42784e-300 1.43917e-301 0)
(-3.6269e-299 -7.04915e-300 0)
(-1.08622e-298 -2.44414e-299 0)
(-1.85887e-298 -3.48718e-299 0)
(-2.72199e-298 -3.68081e-299 0)
(-3.71682e-298 -2.74377e-299 0)
(-4.88291e-298 -2.31296e-300 0)
(-6.2573e-298 4.48815e-299 0)
(-7.87342e-298 1.22912e-298 0)
(-9.76002e-298 2.43472e-298 0)
(-1.19399e-297 4.22195e-298 0)
(-1.4429e-297 6.79623e-298 0)
(-1.7239e-297 1.04192e-297 0)
(-2.03352e-297 1.48306e-297 0)
(-7.09194e-298 3.3595e-298 0)
(-3.54046e-298 7.89829e-299 0)
(-2.14245e-298 2.39785e-299 0)
(-1.36586e-298 7.9157e-300 0)
(-8.86462e-299 2.82837e-300 0)
(-5.77691e-299 1.28606e-300 0)
(-3.75401e-299 8.28106e-301 0)
(-2.41793e-299 5.84903e-301 0)
(-1.52509e-299 2.57724e-301 0)
(-9.04122e-300 -2.27023e-301 0)
(-4.66137e-299 -9.91704e-300 0)
(-1.39276e-298 -3.30626e-299 0)
(-2.3788e-298 -4.81648e-299 0)
(-3.4754e-298 -5.31451e-299 0)
(-4.73399e-298 -4.46055e-299 0)
(-6.20455e-298 -1.76083e-299 0)
(-7.93468e-298 3.47164e-299 0)
(-9.96882e-298 1.21388e-298 0)
(-1.23472e-297 2.54133e-298 0)
(-1.51051e-297 4.47617e-298 0)
(-1.82711e-297 7.20097e-298 0)
(-2.18723e-297 1.09228e-297 0)
(-2.58475e-297 1.53027e-297 0)
(-8.84284e-298 3.54705e-298 0)
(-4.34304e-298 8.77536e-299 0)
(-2.61216e-298 2.85496e-299 0)
(-1.66447e-298 1.04342e-299 0)
(-1.08261e-298 4.15984e-300 0)
(-7.07348e-299 1.89415e-300 0)
(-4.60005e-299 1.00013e-300 0)
(-2.95037e-299 5.16339e-301 0)
(-1.83583e-299 1.1574e-301 0)
(-1.06176e-299 -2.4844e-301 0)
(-5.74668e-299 -1.39662e-299 0)
(-1.70982e-298 -4.52811e-299 0)
(-2.91342e-298 -6.74929e-299 0)
(-4.24685e-298 -7.79571e-299 0)
(-5.77227e-298 -7.28097e-299 0)
(-7.55016e-298 -4.65987e-299 0)
(-9.6385e-298 7.83358e-300 0)
(-1.20917e-297 9.97308e-299 0)
(-1.49595e-297 2.40454e-298 0)
(-1.8286e-297 4.43751e-298 0)
(-2.21074e-297 7.25501e-298 0)
(-2.64576e-297 1.10228e-297 0)
(-3.12598e-297 1.53537e-297 0)
(-1.06432e-297 3.62464e-298 0)
(-5.17914e-298 9.22832e-299 0)
(-3.09495e-298 3.11165e-299 0)
(-1.9657e-298 1.19895e-299 0)
(-1.2766e-298 5.07299e-300 0)
(-8.33257e-299 2.37739e-300 0)
(-5.40954e-299 1.21204e-300 0)
(-3.45684e-299 5.88161e-301 0)
(-2.1374e-299 1.63817e-301 0)
(-1.22809e-299 -1.29295e-301 0)
(-6.89454e-299 -1.97541e-299 0)
(-2.0397e-298 -6.27968e-299 0)
(-3.46555e-298 -9.55681e-299 0)
(-5.0391e-298 -1.14904e-298 0)
(-6.83372e-298 -1.1639e-298 0)
(-8.92068e-298 -9.41975e-299 0)
(-1.13681e-297 -4.07811e-299 0)
(-1.42395e-297 5.31231e-299 0)
(-1.75929e-297 1.98725e-298 0)
(-2.1479e-297 4.0884e-298 0)
(-2.59395e-297 6.97797e-298 0)
(-3.10122e-297 1.07922e-297 0)
(-3.66133e-297 1.51189e-297 0)
(-1.24889e-297 3.62286e-298 0)
(-6.04795e-298 9.3306e-299 0)
(-3.5943e-298 3.18393e-299 0)
(-2.27419e-298 1.25588e-299 0)
(-1.4729e-298 5.50115e-300 0)
(-9.59192e-299 2.674e-300 0)
(-6.21264e-299 1.41066e-300 0)
(-3.95936e-299 7.37031e-301 0)
(-2.44122e-299 3.1082e-301 0)
(-1.40111e-299 4.11469e-302 0)
(-8.11851e-299 -2.79619e-299 0)
(-2.38509e-298 -8.76169e-299 0)
(-4.03885e-298 -1.35678e-298 0)
(-5.85657e-298 -1.68332e-298 0)
(-7.92366e-298 -1.80658e-298 0)
(-1.03227e-297 -1.66292e-298 0)
(-1.31321e-297 -1.17413e-298 0)
(-1.64243e-297 -2.44744e-299 0)
(-2.02648e-297 1.23575e-298 0)
(-2.47104e-297 3.39241e-298 0)
(-2.98073e-297 6.35838e-298 0)
(-3.55969e-297 1.02559e-297 0)
(-4.19943e-297 1.46574e-297 0)
(-1.43885e-297 3.55341e-298 0)
(-6.94986e-298 9.10365e-299 0)
(-4.1117e-298 3.07166e-299 0)
(-2.59225e-298 1.20677e-299 0)
(-1.67399e-298 5.3499e-300 0)
(-1.0874e-298 2.69096e-300 0)
(-7.02706e-299 1.50826e-300 0)
(-4.46939e-299 8.77634e-301 0)
(-2.7518e-299 4.78289e-301 0)
(-1.57964e-299 2.16302e-301 0)
(-9.43297e-299 -3.94141e-299 0)
(-2.74861e-298 -1.22208e-298 0)
(-4.63697e-298 -1.91778e-298 0)
(-6.70416e-298 -2.43602e-298 0)
(-9.04903e-298 -2.72039e-298 0)
(-1.17664e-297 -2.7024e-298 0)
(-1.49457e-297 -2.29848e-298 0)
(-1.86686e-297 -1.41065e-298 0)
(-2.3008e-297 7.51218e-300 0)
(-2.80267e-297 2.28368e-298 0)
(-3.37756e-297 5.34861e-298 0)
(-4.02996e-297 9.38726e-298 0)
(-4.75161e-297 1.39665e-297 0)
(-1.63601e-297 3.40918e-298 0)
(-7.88802e-298 8.49723e-299 0)
(-4.64858e-298 2.74108e-299 0)
(-2.92121e-298 1.02751e-299 0)
(-1.8812e-298 4.43696e-300 0)
(-1.21909e-298 2.28521e-300 0)
(-7.86205e-299 1.38933e-300 0)
(-4.99251e-299 9.16444e-301 0)
(-3.07111e-299 5.96715e-301 0)
(-1.76344e-299 3.59165e-301 0)
(-1.08497e-298 -5.51403e-299 0)
(-3.13173e-298 -1.6956e-298 0)
(-5.26167e-298 -2.68761e-298 0)
(-7.5847e-298 -3.47207e-298 0)
(-1.02151e-297 -3.98496e-298 0)
(-1.32617e-297 -4.15023e-298 0)
(-1.6826e-297 -3.87962e-298 0)
(-2.09997e-297 -3.06864e-298 0)
(-2.58636e-297 -1.59864e-298 0)
(-3.14864e-297 6.63163e-299 0)
(-3.79241e-297 3.85677e-298 0)
(-4.52256e-297 8.10828e-298 0)
(-5.33112e-297 1.29824e-297 0)
(-1.84297e-297 3.16394e-298 0)
(-8.86799e-298 7.37881e-299 0)
(-5.20666e-298 2.11566e-299 0)
(-3.26181e-298 6.70791e-300 0)
(-2.09508e-298 2.45475e-300 0)
(-1.35471e-298 1.24822e-300 0)
(-8.72087e-299 9.07968e-301 0)
(-5.53045e-299 7.50979e-301 0)
(-3.39954e-299 5.98634e-301 0)
(-1.95227e-299 4.33742e-301 0)
(-1.23726e-298 -7.64095e-299 0)
(-3.53289e-298 -2.33392e-298 0)
(-5.90986e-298 -3.72576e-298 0)
(-8.49472e-298 -4.87171e-298 0)
(-1.14204e-297 -5.69658e-298 0)
(-1.48121e-297 -6.11741e-298 0)
(-1.87852e-297 -6.03827e-298 0)
(-2.34423e-297 -5.34901e-298 0)
(-2.88729e-297 -3.9205e-298 0)
(-3.51517e-297 -1.60878e-298 0)
(-4.234e-297 1.74418e-298 0)
(-5.04901e-297 6.28257e-298 0)
(-5.95255e-297 1.15786e-297 0)
(-2.06285e-297 2.7698e-298 0)
(-9.8966e-298 5.52051e-299 0)
(-5.78756e-298 1.06848e-299 0)
(-3.61425e-298 6.16038e-301 0)
(-2.31549e-298 -1.05335e-300 0)
(-1.49409e-298 -7.04243e-301 0)
(-9.60214e-299 -1.15816e-301 0)
(-6.08195e-299 2.67221e-301 0)
(-3.73594e-299 4.14927e-301 0)
(-2.14533e-299 4.03524e-301 0)
(-1.39886e-298 -1.0483e-298 0)
(-3.94477e-298 -3.18275e-298 0)
(-6.56889e-298 -5.10617e-298 0)
(-9.41868e-298 -6.73205e-298 0)
(-1.26497e-297 -7.97305e-298 0)
(-1.64072e-297 -8.73661e-298 0)
(-2.0822e-297 -8.92189e-298 0)
(-2.60094e-297 -8.40994e-298 0)
(-3.20675e-297 -7.06156e-298 0)
(-3.9078e-297 -4.7131e-298 0)
(-4.71069e-297 -1.18196e-298 0)
(-5.62105e-297 3.71089e-298 0)
(-6.63108e-297 9.55312e-298 0)
(-2.29903e-297 2.15243e-298 0)
(-1.09802e-297 2.57991e-299 0)
(-6.39193e-298 -5.85787e-300 0)
(-3.97782e-298 -9.0593e-300 0)
(-2.54157e-298 -6.70328e-300 0)
(-1.63652e-298 -3.93351e-300 0)
(-1.05006e-298 -1.89518e-300 0)
(-6.64324e-299 -6.60109e-301 0)
(-4.07775e-299 -2.57099e-302 0)
(-2.34105e-299 2.31894e-301 0)
(-1.56561e-298 -1.42438e-298 0)
(-4.35005e-298 -4.29994e-298 0)
(-7.21024e-298 -6.91968e-298 0)
(-1.03204e-297 -9.17265e-298 0)
(-1.38649e-297 -1.09546e-297 0)
(-1.80119e-297 -1.21668e-297 0)
(-2.29108e-297 -1.27031e-297 0)
(-2.86898e-297 -1.24408e-297 0)
(-3.5457e-297 -1.12267e-297 0)
(-4.33004e-297 -8.8761e-298 0)
(-5.2292e-297 -5.16911e-298 0)
(-6.24909e-297 1.20827e-299 0)
(-7.38111e-297 6.61553e-298 0)
(-2.55463e-297 1.20408e-298 0)
(-1.21221e-297 -1.92194e-299 0)
(-7.01825e-298 -3.09684e-299 0)
(-4.35038e-298 -2.36865e-299 0)
(-2.77152e-298 -1.52541e-299 0)
(-1.78071e-298 -8.86168e-300 0)
(-1.14071e-298 -4.66503e-300 0)
(-7.2082e-299 -2.16131e-300 0)
(-4.42097e-299 -7.93909e-301 0)
(-2.53707e-299 -1.16454e-301 0)
(-1.72859e-298 -1.91922e-298 0)
(-4.71528e-298 -5.75893e-298 0)
(-7.77962e-298 -9.28118e-298 0)
(-1.11319e-297 -1.23386e-297 0)
(-1.49918e-297 -1.48102e-297 0)
(-1.95545e-297 -1.6592e-297 0)
(-2.49879e-297 -1.75825e-297 0)
(-3.14345e-297 -1.76572e-297 0)
(-3.90118e-297 -1.6655e-297 0)
(-4.78161e-297 -1.4364e-297 0)
(-5.79241e-297 -1.05224e-297 0)
(-6.94011e-297 -4.8357e-298 0)
(-8.21371e-297 2.36917e-298 0)
(-2.83155e-297 -2.23618e-299 0)
(-1.33184e-297 -8.61474e-299 0)
(-7.66118e-298 -6.7748e-299 0)
(-4.72777e-298 -4.48638e-299 0)
(-3.00249e-298 -2.75374e-299 0)
(-1.92472e-298 -1.59225e-299 0)
(-1.23089e-298 -8.65273e-300 0)
(-7.76821e-299 -4.3562e-300 0)
(-4.75999e-299 -1.95236e-300 0)
(-2.73002e-299 -6.72577e-301 0)
(-1.87123e-298 -2.56941e-298 0)
(-4.98031e-298 -7.65734e-298 0)
(-8.18291e-298 -1.23364e-297 0)
(-1.17375e-297 -1.64102e-297 0)
(-1.59064e-297 -1.97384e-297 0)
(-2.09111e-297 -2.22252e-297 0)
(-2.69378e-297 -2.37826e-297 0)
(-3.41401e-297 -2.42998e-297 0)
(-4.26463e-297 -2.36099e-297 0)
(-5.25608e-297 -2.14793e-297 0)
(-6.39689e-297 -1.75947e-297 0)
(-7.6943e-297 -1.15838e-297 0)
(-9.13305e-297 -3.69472e-298 0)
(-3.12914e-297 -2.3239e-298 0)
(-1.45536e-297 -1.82606e-298 0)
(-8.30998e-298 -1.1961e-298 0)
(-5.10329e-298 -7.41738e-299 0)
(-3.23034e-298 -4.42908e-299 0)
(-2.06592e-298 -2.5462e-299 0)
(-1.31883e-298 -1.40242e-299 0)
(-8.31135e-299 -7.32708e-300 0)
(-5.0869e-299 -3.54331e-300 0)
(-2.91502e-299 -1.45818e-300 0)
(-1.96365e-298 -3.4289e-298 0)
(-5.04009e-298 -1.01285e-297 0)
(-8.26231e-298 -1.62776e-297 0)
(-1.19525e-297 -2.161e-297 0)
(-1.64154e-297 -2.5976e-297 0)
(-2.18929e-297 -2.93041e-297 0)
(-2.8579e-297 -3.15475e-297 0)
(-3.66356e-297 -3.26222e-297 0)
(-4.61993e-297 -3.23726e-297 0)
(-5.73874e-297 -3.05431e-297 0)
(-7.02959e-297 -2.6775e-297 0)
(-8.50129e-297 -2.06067e-297 0)
(-1.01313e-296 -1.21918e-297 0)
(-3.44225e-297 -5.3286e-298 0)
(-1.57951e-297 -3.16558e-298 0)
(-8.94715e-298 -1.89477e-298 0)
(-5.46731e-298 -1.12659e-298 0)
(-3.44933e-298 -6.58564e-299 0)
(-2.20058e-298 -3.75797e-299 0)
(-1.40199e-298 -2.08047e-299 0)
(-8.81993e-299 -1.10814e-299 0)
(-5.38984e-299 -5.57149e-300 0)
(-3.08474e-299 -2.47828e-300 0)
(-1.94971e-298 -4.5839e-298 0)
(-4.70707e-298 -1.3366e-297 0)
(-7.75721e-298 -2.13625e-297 0)
(-1.14913e-297 -2.82194e-297 0)
(-1.62387e-297 -3.37972e-297 0)
(-2.22328e-297 -3.80925e-297 0)
(-2.96577e-297 -4.11299e-297 0)
(-3.86722e-297 -4.28846e-297 0)
(-4.94231e-297 -4.32219e-297 0)
(-6.2044e-297 -4.188e-297 0)
(-7.66518e-297 -3.84566e-297 0)
(-9.33584e-297 -3.24155e-297 0)
(-1.11838e-296 -2.3803e-297 0)
(-3.75853e-297 -9.47822e-298 0)
(-1.6987e-297 -4.93654e-298 0)
(-9.54699e-298 -2.78111e-298 0)
(-5.80615e-298 -1.5992e-298 0)
(-3.65099e-298 -9.17383e-299 0)
(-2.32291e-298 -5.19241e-299 0)
(-1.47626e-298 -2.87884e-299 0)
(-9.26555e-299 -1.55107e-299 0)
(-5.65e-299 -7.98538e-300 0)
(-3.22772e-299 -3.71239e-300 0)
(-1.70746e-298 -6.18876e-298 0)
(-3.62963e-298 -1.76635e-297 0)
(-6.23263e-298 -2.79478e-297 0)
(-9.92776e-298 -3.65885e-297 0)
(-1.49917e-297 -4.35193e-297 0)
(-2.15868e-297 -4.88665e-297 0)
(-2.98499e-297 -5.27845e-297 0)
(-3.9928e-297 -5.5333e-297 0)
(-5.19804e-297 -5.64225e-297 0)
(-6.61696e-297 -5.57881e-297 0)
(-8.2642e-297 -5.3005e-297 0)
(-1.01551e-296 -4.74867e-297 0)
(-1.22439e-296 -3.92032e-297 0)
(-4.05359e-297 -1.49378e-297 0)
(-1.80419e-297 -7.11451e-298 0)
(-1.00711e-297 -3.81244e-298 0)
(-6.09791e-298 -2.12872e-298 0)
(-3.82063e-298 -1.2011e-298 0)
(-2.42261e-298 -6.75067e-299 0)
(-1.53458e-298 -3.74651e-299 0)
(-9.60131e-299 -2.036e-299 0)
(-5.83782e-299 -1.06613e-299 0)
(-3.32669e-299 -5.10533e-300 0)
(-9.05002e-299 -8.53747e-298 0)
(-1.09808e-298 -2.34858e-297 0)
(-2.95564e-298 -3.65241e-297 0)
(-6.64702e-298 -4.71477e-297 0)
(-1.21893e-297 -5.54856e-297 0)
(-1.95539e-297 -6.19041e-297 0)
(-2.87884e-297 -6.67442e-297 0)
(-4.00269e-297 -7.01897e-297 0)
(-5.34625e-297 -7.2201e-297 0)
(-6.93045e-297 -7.25213e-297 0)
(-8.77436e-297 -7.0708e-297 0)
(-1.0898e-296 -6.61877e-297 0)
(-1.32429e-296 -5.89306e-297 0)
(-4.27864e-297 -2.15775e-297 0)
(-1.88195e-297 -9.4832e-298 0)
(-1.04528e-297 -4.85616e-298 0)
(-6.30033e-298 -2.64581e-298 0)
(-3.92976e-298 -1.47538e-298 0)
(-2.48092e-298 -8.26501e-299 0)
(-1.56503e-298 -4.60113e-299 0)
(-9.75454e-299 -2.52196e-299 0)
(-5.91071e-299 -1.33946e-299 0)
(-3.35817e-299 -6.55946e-300 0)
(1.60824e-298 -1.21847e-297 0)
(4.41742e-298 -3.15561e-297 0)
(3.30304e-298 -4.7736e-297 0)
(-8.25372e-299 -6.03749e-297 0)
(-7.29466e-298 -7.00356e-297 0)
(-1.57408e-297 -7.74471e-297 0)
(-2.61121e-297 -8.32044e-297 0)
(-3.85783e-297 -8.7629e-297 0)
(-5.34201e-297 -9.07386e-297 0)
(-7.09348e-297 -9.22635e-297 0)
(-9.13603e-297 -9.17442e-297 0)
(-1.14912e-296 -8.86748e-297 0)
(-1.40951e-296 -8.32054e-297 0)
(-4.33073e-297 -2.83808e-297 0)
(-1.90824e-297 -1.14647e-297 0)
(-1.05538e-297 -5.65986e-298 0)
(-6.32567e-298 -3.04384e-298 0)
(-3.92534e-298 -1.69374e-298 0)
(-2.46717e-298 -9.5207e-299 0)
(-1.55036e-298 -5.33748e-299 0)
(-9.63016e-299 -2.95502e-299 0)
(-5.81748e-299 -1.59032e-299 0)
(-3.29584e-299 -7.93151e-300 0)
(1.02735e-297 -1.72583e-297 0)
(1.62754e-297 -4.2972e-297 0)
(1.43854e-297 -6.23935e-297 0)
(8.39354e-298 -7.67851e-297 0)
(6.94609e-300 -8.74904e-297 0)
(-9.92036e-298 -9.57151e-297 0)
(-2.1567e-297 -1.02332e-296 0)
(-3.52245e-297 -1.07813e-296 0)
(-5.13935e-297 -1.12205e-296 0)
(-7.05389e-297 -1.15196e-296 0)
(-9.29447e-297 -1.16233e-296 0)
(-1.18656e-296 -1.14846e-296 0)
(-1.46922e-296 -1.11539e-296 0)
(-4.07009e-297 -3.09277e-297 0)
(-1.82001e-297 -1.18097e-297 0)
(-1.00276e-297 -5.88458e-298 0)
(-6.0072e-298 -3.21266e-298 0)
(-3.72797e-298 -1.81164e-298 0)
(-2.34344e-298 -1.03057e-298 0)
(-1.4723e-298 -5.84449e-299 0)
(-9.13934e-299 -3.2743e-299 0)
(-5.51515e-299 -1.78501e-299 0)
(-3.11949e-299 -9.04186e-300 0)
(4.02135e-297 -2.64077e-297 0)
(3.85263e-297 -5.74941e-297 0)
(3.09204e-297 -7.97333e-297 0)
(2.06134e-297 -9.55649e-297 0)
(9.32413e-298 -1.07134e-296 0)
(-2.5396e-298 -1.16091e-296 0)
(-1.53597e-297 -1.23573e-296 0)
(-2.99276e-297 -1.30173e-296 0)
(-4.71604e-297 -1.35969e-296 0)
(-6.78505e-297 -1.40581e-296 0)
(-9.23777e-297 -1.43344e-296 0)
(-1.2026e-296 -1.43454e-296 0)
(-5.36886e-297 -5.16881e-297 0)
(-2.49993e-297 -2.09346e-297 0)
(-1.39006e-297 -1.01707e-297 0)
(-8.31357e-298 -5.50788e-298 0)
(-5.17946e-298 -3.12817e-298 0)
(-3.28395e-298 -1.80762e-298 0)
(-2.09091e-298 -1.04708e-298 0)
(-1.32401e-298 -6.02835e-299 0)
(-8.25789e-299 -3.42336e-299 0)
(-4.99603e-299 -1.89062e-299 0)
(-2.82746e-299 -9.70837e-300 0)
(1.72755e-297 -1.73214e-297 0)
(1.15208e-297 -2.82017e-297 0)
(8.22789e-298 -3.36062e-297 0)
(4.85274e-298 -3.74258e-297 0)
(1.39077e-298 -4.02378e-297 0)
(-2.29946e-298 -4.23576e-297 0)
(-6.44599e-298 -4.40105e-297 0)
(-1.13335e-297 -4.52938e-297 0)
(-1.71929e-297 -4.61252e-297 0)
(-2.3951e-297 -4.61466e-297 0)
(-3.05904e-297 -4.45114e-297 0)
(-3.25986e-297 -4.04007e-297 0)
(-2.15854e-297 -2.46481e-297 0)
(-1.42431e-297 -1.40421e-297 0)
(-9.39313e-298 -8.06891e-298 0)
(-6.19385e-298 -4.74563e-298 0)
(-4.08341e-298 -2.82375e-298 0)
(-2.68168e-298 -1.68255e-298 0)
(-1.74675e-298 -9.97035e-299 0)
(-1.12283e-298 -5.84503e-299 0)
(-7.07297e-299 -3.37012e-299 0)
(-4.3059e-299 -1.88621e-299 0)
(-2.44384e-299 -9.80609e-300 0)
(8.57381e-299 -1.00291e-297 0)
(5.62798e-299 -1.47287e-297 0)
(3.85468e-299 -1.6705e-297 0)
(-1.77705e-299 -1.81954e-297 0)
(-1.05785e-298 -1.92964e-297 0)
(-2.23541e-298 -2.00664e-297 0)
(-3.73954e-298 -2.0568e-297 0)
(-5.60752e-298 -2.0838e-297 0)
(-7.81353e-298 -2.08713e-297 0)
(-1.01481e-297 -2.06132e-297 0)
(-1.20412e-297 -1.99442e-297 0)
(-1.22483e-297 -1.84225e-297 0)
(-1.0413e-297 -1.39057e-297 0)
(-8.16847e-298 -9.36043e-298 0)
(-6.05606e-298 -6.03101e-298 0)
(-4.32554e-298 -3.81263e-298 0)
(-3.01174e-298 -2.37941e-298 0)
(-2.05442e-298 -1.46656e-298 0)
(-1.37434e-298 -8.91415e-299 0)
(-9.00231e-299 -5.33147e-299 0)
(-5.74595e-299 -3.12462e-299 0)
(-3.52893e-299 -1.77273e-299 0)
(-2.01187e-299 -9.32021e-300 0)
(-1.58231e-298 -4.74901e-298 0)
(-1.35931e-298 -8.06429e-298 0)
(-1.15556e-298 -9.54032e-298 0)
(-1.14656e-298 -1.04812e-297 0)
(-1.3579e-298 -1.11084e-297 0)
(-1.77858e-298 -1.15056e-297 0)
(-2.40589e-298 -1.1726e-297 0)
(-3.22899e-298 -1.1804e-297 0)
(-4.19642e-298 -1.17553e-297 0)
(-5.17324e-298 -1.15678e-297 0)
(-5.90838e-298 -1.11685e-297 0)
(-6.06488e-298 -1.02879e-297 0)
(-5.61657e-298 -8.40325e-298 0)
(-4.79556e-298 -6.22026e-298 0)
(-3.82669e-298 -4.33333e-298 0)
(-2.90094e-298 -2.90457e-298 0)
(-2.11543e-298 -1.89346e-298 0)
(-1.49461e-298 -1.20615e-298 0)
(-1.02664e-298 -7.52134e-299 0)
(-6.8588e-299 -4.59106e-299 0)
(-4.44153e-299 -2.73544e-299 0)
(-2.75529e-299 -1.57272e-299 0)
(-1.57908e-299 -8.35168e-300 0)
(-1.267e-298 -2.25713e-298 0)
(-1.29717e-298 -4.44902e-298 0)
(-1.2043e-298 -5.59797e-298 0)
(-1.1378e-298 -6.31046e-298 0)
(-1.17186e-298 -6.75921e-298 0)
(-1.32245e-298 -7.02609e-298 0)
(-1.59173e-298 -7.16154e-298 0)
(-1.96809e-298 -7.19873e-298 0)
(-2.4155e-298 -7.15527e-298 0)
(-2.86185e-298 -7.0258e-298 0)
(-3.19936e-298 -6.76046e-298 0)
(-3.31726e-298 -6.2286e-298 0)
(-3.18953e-298 -5.27939e-298 0)
(-2.85209e-298 -4.12625e-298 0)
(-2.3871e-298 -3.03108e-298 0)
(-1.89065e-298 -2.1258e-298 0)
(-1.43099e-298 -1.4378e-298 0)
(-1.0422e-298 -9.43426e-299 0)
(-7.33385e-299 -6.02526e-299 0)
(-4.99279e-299 -3.74985e-299 0)
(-3.27975e-299 -2.2697e-299 0)
(-2.05541e-299 -1.32132e-299 0)
(-1.18419e-299 -7.07671e-300 0)
(-7.87432e-299 -1.10481e-298 0)
(-9.09288e-299 -2.46013e-298 0)
(-9.09786e-299 -3.28861e-298 0)
(-8.79177e-299 -3.82983e-298 0)
(-8.79239e-299 -4.17522e-298 0)
(-9.32912e-299 -4.38098e-298 0)
(-1.04799e-298 -4.48644e-298 0)
(-1.21995e-298 -4.51876e-298 0)
(-1.42969e-298 -4.4926e-298 0)
(-1.64185e-298 -4.40514e-298 0)
(-1.80899e-298 -4.22673e-298 0)
(-1.88569e-298 -3.89725e-298 0)
(-1.84957e-298 -3.37034e-298 0)
(-1.70157e-298 -2.72371e-298 0)
(-1.47146e-298 -2.07532e-298 0)
(-1.20385e-298 -1.50616e-298 0)
(-9.38398e-299 -1.04961e-298 0)
(-7.00999e-299 -7.06384e-299 0)
(-5.03796e-299 -4.60783e-299 0)
(-3.48868e-299 -2.91843e-299 0)
(-2.32238e-299 -1.792e-299 0)
(-1.46951e-299 -1.05499e-299 0)
(-8.50668e-300 -5.68922e-300 0)
(-4.52226e-299 -5.54156e-299 0)
(-5.69989e-299 -1.36025e-298 0)
(-6.05162e-299 -1.91955e-298 0)
(-6.04618e-299 -2.31238e-298 0)
(-6.05842e-299 -2.57506e-298 0)
(-6.26919e-299 -2.73778e-298 0)
(-6.76343e-299 -2.82599e-298 0)
(-7.54372e-299 -2.85885e-298 0)
(-8.52815e-299 -2.84708e-298 0)
(-9.55415e-299 -2.78982e-298 0)
(-1.04058e-298 -2.67156e-298 0)
(-1.08674e-298 -2.46583e-298 0)
(-1.07862e-298 -2.15835e-298 0)
(-1.01138e-298 -1.78214e-298 0)
(-8.95196e-299 -1.393e-298 0)
(-7.50454e-299 -1.03722e-298 0)