/*--------------------------------*- C++ -*----------------------------------*\
| =========                 |                                                 |
| \\      /  F ield         | OpenFOAM: The Open Source CFD Toolbox           |
|  \\    /   O peration     | Version:  2406                                  |
|   \\  /    A nd           | Website:  www.openfoam.com                      |
|    \\/     M anipulation  |                                                 |
\*---------------------------------------------------------------------------*/
FoamFile
{
    version     2.0;
    format      ascii;
    arch        "LSB;label=32;scalar=64";
    class       volScalarField;
    location    "1";
    object      epsilon;
}
// * * * * * * * * * * * * * * * * * * * * * * * * * * * * * * * * * * * * * //

dimensions      [0 2 -3 0 0 0 0];

internalField   nonuniform List<scalar> 
2268
(
3.11056
4.22461
4.22461
4.22461
4.22461
4.22461
4.22461
4.22461
4.22461
4.22461
4.22461
4.22461
4.22461
0.0814817
0.0107314
0.0172918
0.0224571
0.0254894
0.0264926
0.0252426
0.0212426
0.0138675
0.00319792
1.99652
3.53904
3.87395
3.99094
4.04704
4.07915
4.09939
4.11284
4.12193
4.12796
4.13166
4.13343
4.13343
0.0862043
0.0115743
0.0120593
0.0141433
0.0155074
0.0159369
0.0152941
0.0133775
0.0100057
0.00568859
1.99652
3.12319
3.57197
3.77087
3.87484
3.93634
3.9757
4.00204
4.01993
4.03183
4.03916
4.04265
4.04265
0.0875532
0.0141333
0.0126102
0.0138307
0.0147955
0.0151108
0.0146358
0.0132553
0.010957
0.00939146
1.99652
2.85875
3.32579
3.572
3.71212
3.79847
3.85492
3.89313
3.91926
3.93673
3.9475
3.95265
3.95265
0.0915673
0.01658
0.013856
0.0145815
0.0153382
0.0156183
0.0152769
0.0142582
0.012669
0.0130378
1.99652
2.68257
3.12893
3.39683
3.5614
3.66728
3.73821
3.78692
3.82053
3.84313
3.85711
3.86379
3.86379
0.0957897
0.0188232
0.015237
0.015608
0.0162231
0.0165012
0.0163028
0.0156396
0.0147634
0.0169359
1.99652
2.55993
2.97193
3.24473
3.4238
3.5439
3.62646
3.68409
3.72426
3.75145
3.76834
3.77643
3.77643
0.099962
0.0208952
0.0166028
0.0166871
0.0171919
0.0174859
0.0174454
0.017176
0.0172145
0.0219183
1.99652
2.47111
2.84601
3.11357
3.29937
3.4289
3.52027
3.58516
3.63089
3.66208
3.68153
3.69088
3.69088
0.104076
0.0228279
0.017889
0.0177159
0.0181243
0.0184416
0.0185639
0.0187186
0.0200257
0.0306244
1.99652
2.40455
2.74408
3.00067
3.1875
3.32243
3.42001
3.4905
3.54077
3.57532
3.59698
3.60742
3.60742
0.108145
0.0246341
0.0190528
0.0186286
0.0189436
0.0192818
0.0195514
0.0200826
0.0228414
0.0534961
0.00396959
0.0195114
0.0311109
0.0388399
0.0438218
0.0469476
0.0487724
0.0496128
0.0496399
0.0489381
0.0475386
0.0454359
0.0425965
0.0389594
0.0344309
0.0288699
0.0220565
0.0136382
0.0034081
0.00670138
0.013086
0.018227
0.0217893
0.0241502
0.0256633
0.0265648
0.0269968
0.027039
0.026731
0.0260855
0.0250962
0.0237409
0.0219826
0.0197678
0.0170227
0.0136533
0.00958369
0.00519523
0.0112761
0.0138342
0.0173028
0.0198707
0.0216462
0.0228177
0.0235306
0.0238804
0.0239239
0.0236898
0.0231862
0.0224053
0.021326
0.0199152
0.0181282
0.015912
0.0132233
0.0101357
0.00810205
0.015931
0.0156897
0.0180888
0.0200649
0.0215138
0.022505
0.0231213
0.0234275
0.0234653
0.0232565
0.0228058
0.0221041
0.0211304
0.0198531
0.018233
0.0162314
0.0138421
0.0112504
0.0108065
0.0209652
0.0180248
0.0194022
0.0208646
0.0220457
0.022894
0.0234342
0.0237036
0.0237307
0.0235308
0.0231055
0.0224444
0.0215262
0.020321
0.0187945
0.01692
0.0147218
0.0124729
0.0132838
0.027343
0.0207047
0.0208882
0.0218427
0.0227739
0.0234896
0.0239583
0.0241908
0.0242033
0.0240044
0.0235929
0.0229569
0.0220753
0.0209202
0.019462
0.0176856
0.0156411
0.0136759
0.0155848
0.0380708
0.0236224
0.0223368
0.0227981
0.0234947
0.0240836
0.0244815
0.0246757
0.0246705
0.0244684
0.0240651
0.0234476
0.0225954
0.0214828
0.0200858
0.0184005
0.0165011
0.0148045
0.0177594
0.0641141
0.0262939
0.0235442
0.0236028
0.0240933
0.0245629
0.0248909
0.0250456
0.0250206
0.0248127
0.0244149
0.0238135
0.0229886
0.0219176
0.0205825
0.0189913
0.0172418
0.015823
0.0198403
1.99652
2.32441
2.61366
2.8485
3.03072
3.169
3.2727
3.34956
3.40536
3.44418
3.4687
3.48058
3.48058
0.114411
0.0272396
0.020624
0.0198067
0.0199751
0.0203337
0.0207773
0.0215932
0.0238641
0.0317408
1.99652
2.25444
2.49121
2.69467
2.86184
2.99523
3.09941
3.17909
3.23832
3.28021
3.30697
3.32001
3.32001
0.122281
0.030431
0.0226235
0.0213767
0.0213844
0.021737
0.0222642
0.0230976
0.0246645
0.0278007
1.99652
2.20583
2.40242
2.5775
2.7271
2.85097
2.95086
3.0293
3.08881
3.13153
3.1591
3.17262
3.17262
0.129478
0.033304
0.0244701
0.022871
0.0227429
0.0230656
0.0236018
0.0243692
0.0255196
0.0272431
1.99652
2.17008
2.33539
2.48606
2.61837
2.73094
2.824
2.89864
2.95625
2.99815
3.02544
3.0389
3.0389
0.136035
0.0358859
0.0261303
0.0242258
0.0239766
0.024258
0.0247774
0.0254865
0.0264351
0.0276949
1.99652
2.14268
2.28314
2.41317
2.52957
2.63062
2.71576
2.7852
2.83956
2.87953
2.90577
2.91877
2.91877
0.14197
0.0382037
0.0276054
0.0254269
0.0250669
0.0253039
0.0258013
0.0264738
0.0273333
0.0284324
1.99652
2.12104
2.24142
2.35407
2.4563
2.54637
2.62337
2.68702
2.7374
2.77478
2.79949
2.81177
2.81177
0.1473
0.0402769
0.0289061
0.0264781
0.026016
0.026209
0.0266853
0.0273368
0.0281587
0.0292002
1.99652
2.10358
2.20751
2.3055
2.39532
2.47532
2.54448
2.60224
2.64837
2.68285
2.70576
2.71718
2.71718
0.152047
0.0421217
0.030046
0.0273906
0.0268343
0.0269855
0.0274423
0.0280806
0.0288864
0.0299058
1.99652
2.08928
2.17959
2.26521
2.34425
2.41523
2.47711
2.52921
2.57111
2.60261
2.62363
2.63415
2.63415
0.156242
0.0437549
0.0310408
0.028179
0.0275364
0.0276481
0.0280864
0.0287148
0.0295122
0.0305214
1.99652
2.07745
2.15641
2.23157
2.30131
2.36434
2.41964
2.46647
2.50436
2.53297
2.55213
2.56173
2.56173
0.159923
0.0451956
0.0319081
0.0288601
0.0281385
0.0282129
0.0286331
0.029252
0.030043
0.0310451
1.99652
2.06761
2.13708
2.20339
2.26517
2.32126
2.37071
2.41279
2.44698
2.47289
2.49028
2.49902
2.49902
0.163141
0.0464675
0.032668
0.0294524
0.0286582
0.0286969
0.0290984
0.0297071
0.0304912
0.0314863
1.99652
2.05941
2.12094
2.17979
2.23479
2.28489
2.32922
2.36709
2.39795
2.42141
2.4372
2.44513
2.44513
0.165951
0.0475991
0.0333433
0.029976
0.029114
0.0291172
0.0294986
0.030095
0.0308705
0.0318573
1.99652
2.05259
2.10749
2.1601
2.20936
2.25435
2.29427
2.32847
2.35641
2.3777
2.39204
2.39926
2.39926
0.168421
0.0486262
0.0339615
0.0304536
0.0295252
0.029491
0.0298493
0.0304305
0.0311947
0.0321714
1.99652
2.04696
2.09637
2.14377
2.18824
2.22893
2.26511
2.29617
2.3216
2.341
2.35409
2.36068
2.36068
0.17063
0.0495953
0.0345558
0.0309107
0.0299122
0.0298354
0.0301655
0.030727
0.0314765
0.0324406
1.99652
2.04236
2.08729
2.13042
2.17094
2.20806
2.24113
2.26956
2.29287
2.31068
2.3227
2.32876
2.32876
0.172683
0.0505702
0.0351681
0.0313757
0.0302952
0.0301657
0.03046
0.0309962
0.0317268
0.0326753
1.99652
2.03868
2.08001
2.11973
2.15706
2.1913
2.22184
2.24813
2.2697
2.2862
2.29735
2.30297
2.30297
0.174734
0.0516453
0.0358508
0.031878
0.0306919
0.0304943
0.0307427
0.031247
0.0319542
0.0328842
1.99652
2.03583
2.07438
2.11143
2.14629
2.17829
2.20685
2.23145
2.25166
2.26713
2.27759
2.28286
2.28286
0.177053
0.0529649
0.0366615
0.0324384
0.0311102
0.0308258
0.0310185
0.031485
0.0321651
0.0330738
1.99652
2.03374
2.07026
2.10537
2.13841
2.16876
2.19586
2.21922
2.23842
2.25312
2.26307
2.26808
2.26808
0.180191
0.054725
0.0376242
0.0330425
0.0315355
0.0311524
0.031285
0.0317116
0.0323629
0.033249
1.99652
2.03238
2.06756
2.10139
2.13324
2.16251
2.18865
2.21119
2.22973
2.24393
2.25353
2.25837
2.25837
0.185245
0.0569116
0.038571
0.0335814
0.0319124
0.0314486
0.0315321
0.0319244
0.0325491
0.033413
1.99652
2.03171
2.06623
2.09943
2.13069
2.15941
2.18508
2.20722
2.22542
2.23937
2.2488
2.25356
2.25356
0.188541
0.0573035
0.0387168
0.0337823
0.0321424
0.031678
0.0317468
0.0321196
0.0327242
0.0335684
1.99652
2.03171
2.06623
2.09943
2.13069
2.15941
2.18508
2.20722
2.22542
2.23937
2.2488
2.25356
0.288774
0.0772166
0.0454105
0.0365536
0.0333566
0.0321572
0.0318213
0.0319237
0.0322969
0.0328899
0.033718
0.155453
0.158538
0.160738
0.163409
0.165753
0.167781
0.169643
0.171547
0.173814
0.177048
0.182414
0.186336
0.0767122
0.0481824
0.0385714
0.0345538
0.0327831
0.0320712
0.0319117
0.0320746
0.0324622
0.0330504
0.0338657
0.0216935
0.0276803
0.0331276
0.0372908
0.0405611
0.0432346
0.0455355
0.0476657
0.049847
0.0523332
0.0551508
0.0561099
0.044872
0.038383
0.0349701
0.0331885
0.0323214
0.0319914
0.0319928
0.032219
0.0326255
0.0332123
0.0340165
0.0183279
0.0178834
0.0210829
0.0240483
0.0265777
0.0287336
0.0306172
0.032336
0.0339929
0.0356471
0.0371569
0.0377625
0.0360006
0.0342733
0.0330808
0.0323778
0.0320431
0.031973
0.0320965
0.0323746
0.0327976
0.033383
0.0341765
0.0229965
0.0179342
0.0195909
0.021726
0.0237473
0.0255574
0.0271697
0.0286285
0.0299771
0.0312231
0.0322772
0.0328874
0.0327872
0.03245
0.0321495
0.0319764
0.0319428
0.0320356
0.0322412
0.0325555
0.0329891
0.0335711
0.0343532
0.0272512
0.0192635
0.0199843
0.0215931
0.0232794
0.0248578
0.0262884
0.0275774
0.0287398
0.0297739
0.0306394
0.0312548
0.0315682
0.0317029
0.0317784
0.0318645
0.031994
0.0321817
0.032437
0.0327727
0.0332105
0.0337863
0.0345556
0.0307923
0.0206968
0.0208169
0.0220857
0.0235476
0.0249659
0.0262696
0.0274431
0.0284875
0.0294017
0.030172
0.0307758
0.0312081
0.031514
0.0317494
0.0319587
0.032172
0.0324105
0.0326922
0.0330374
0.0334737
0.0340406
0.0347956
0.0337894
0.0220186
0.0217244
0.0227696
0.0240826
0.0253924
0.026609
0.0277042
0.0286724
0.0295142
0.0302283
0.0308137
0.0312777
0.0316444
0.0319453
0.0322096
0.0324622
0.0327245
0.033017
0.0333634
0.0337939
0.0343496
0.0350885
0.0364163
0.023217
0.0226165
0.0235127
0.02473
0.02597
0.0271301
0.0281745
0.0290942
0.0298906
0.0305685
0.0311351
0.0316017
0.0319863
0.0323104
0.0325959
0.0328637
0.0331338
0.0334276
0.0337696
0.0341911
0.0347338
0.035455
0.0388497
0.0243432
0.0234995
0.0242954
0.0254551
0.0266549
0.027782
0.0287958
0.0296855
0.0304532
0.0311066
0.0316565
0.0321161
0.0325012
0.0328296
0.0331196
0.0333896
0.0336588
0.0339481
0.0342823
0.0346928
0.0352207
0.0359223
0.04129
0.0254819
0.0244278
0.0251552
0.0262842
0.0274651
0.0285762
0.0295734
0.0304449
0.0311936
0.0318293
0.0323646
0.0328137
0.0331921
0.0335161
0.0338023
0.0340679
0.0343311
0.0346126
0.0349368
0.0353346
0.0358463
0.036526
0.0439836
0.0267508
0.0254929
0.0261702
0.0272854
0.0284605
0.0295651
0.0305525
0.0314111
0.032145
0.0327654
0.0332862
0.0337228
0.0340907
0.0344056
0.0346836
0.0349409
0.0351954
0.035467
0.0357797
0.0361634
0.036657
0.037312
0.047249
0.0283101
0.0268268
0.0274579
0.0285643
0.0297358
0.0308335
0.0318096
0.0326532
0.03337
0.0339727
0.0344765
0.0348975
0.0352515
0.0355539
0.0358204
0.0360669
0.0363105
0.0365706
0.0368703
0.0372384
0.0377117
0.0383385
0.0515075
0.0303789
0.0286119
0.0291801
0.0302651
0.0314194
0.0324963
0.0334478
0.0342651
0.0349556
0.035533
0.0360137
0.0364139
0.0367495
0.0370357
0.0372877
0.0375208
0.0377516
0.0379985
0.0382836
0.038634
0.0390841
0.0396785
0.0573233
0.0332575
0.031096
0.0315511
0.0325735
0.0336727
0.0346952
0.0355945
0.0363634
0.0370103
0.0375496
0.0379971
0.0383689
0.0386802
0.0389457
0.0391796
0.0393965
0.039612
0.0398437
0.0401121
0.0404423
0.0408658
0.0414228
0.0654682
0.0373626
0.0346123
0.0348462
0.0357173
0.0366872
0.0375962
0.0383978
0.0390845
0.0396633
0.0401465
0.0405479
0.0408817
0.0411615
0.0414008
0.0416124
0.0418099
0.0420076
0.0422215
0.0424706
0.0427775
0.0431703
0.0436843
0.0770487
0.0432886
0.0396087
0.0394079
0.039962
0.0406769
0.0413819
0.0420226
0.0425837
0.0430644
0.0434706
0.0438113
0.0440966
0.0443374
0.0445447
0.0447298
0.0449044
0.0450812
0.0452745
0.0455011
0.045781
0.0461385
0.0466034
0.0937929
0.0519271
0.0466833
0.0456384
0.0455898
0.0458606
0.0462411
0.0466458
0.047034
0.0473864
0.0476959
0.0479622
0.0481897
0.0483846
0.048555
0.0487095
0.0488578
0.0490106
0.0491803
0.049381
0.0496298
0.0499468
0.0503565
0.118717
0.0646938
0.0565968
0.0539428
0.0528448
0.0524257
0.0523511
0.0524505
0.0526281
0.0528308
0.0530304
0.0532141
0.0533777
0.0535225
0.0536524
0.0537735
0.0538928
0.0540189
0.0541618
0.054333
0.0545463
0.0548177
0.0551659
0.157818
0.08393
0.0701256
0.0645354
0.0618119
0.0604728
0.0598593
0.0596266
0.0595871
0.0596394
0.05973
0.0598315
0.0599316
0.0600259
0.0601149
0.0602014
0.0602903
0.0603876
0.0605009
0.0606391
0.0608124
0.0610329
0.0613137
0.225486
0.113487
0.0873149
0.0769538
0.0722172
0.0699582
0.0688818
0.0683868
0.0681799
0.0681145
0.0681167
0.0681492
0.068194
0.0682433
0.0682943
0.0683479
0.0684065
0.0684741
0.0685557
0.0686574
0.0687865
0.0689508
0.0691586
0.377154
0.15865
0.105213
0.0892814
0.0832853
0.0807259
0.0795618
0.0790175
0.0787639
0.0786507
0.0786066
0.0785964
0.0786031
0.0786183
0.0786389
0.0786641
0.0786949
0.0787331
0.0787818
0.0788443
0.0789248
0.0790279
0.0791577
1.44429
0.212189
0.115209
0.0985622
0.0942893
0.0928429
0.0922505
0.0919786
0.0918458
0.0917789
0.0917449
0.0917282
0.0917208
0.0917188
0.0917204
0.0917251
0.0917328
0.0917441
0.0917598
0.091781
0.0918091
0.0918456
0.0918921
0.0702179
0.0572981
0.0592972
0.0783684
0.0320624
0.032908
0.0334867
0.0337577
0.0288644
0.0296321
0.0299389
0.0298049
0.0288373
0.0294454
0.0296726
0.0295649
0.0294458
0.0299927
0.0301849
0.0300766
0.0301706
0.0306919
0.0308639
0.030744
0.0308583
0.0313661
0.0315242
0.0313922
0.0314634
0.0319619
0.0321098
0.0319676
0.0319789
0.0324699
0.0326096
0.0324593
0.0324122
0.0328964
0.0330292
0.0328724
0.0327751
0.0332529
0.0333796
0.0332172
0.0330803
0.0335517
0.0336726
0.0335052
0.0333397
0.0338043
0.0339194
0.0337471
0.0335633
0.0340208
0.0341298
0.0339523
0.0337597
0.0342094
0.0343119
0.034129
0.0339356
0.034377
0.0344725
0.0342838
0.0340962
0.0345289
0.034617
0.0344223
0.0342455
0.0346693
0.03475
0.0345491
0.0343868
0.0348018
0.0348753
0.0346682
0.0345232
0.03493
0.0349964
0.0347834
0.0346587
0.0350576
0.0351173
0.0348987
0.0347977
0.0351889
0.0352423
0.0350183
0.034946
0.0353296
0.0353767
0.0351477
0.0351104
0.0354861
0.0355271
0.0352935
0.0352997
0.0356671
0.0357021
0.0354643
0.0355254
0.0358839
0.035913
0.0356715
0.0358026
0.0361516
0.0361748
0.0359306
0.0361517
0.0364903
0.0365079
0.0362619
0.0365993
0.0369266
0.0369388
0.0366924
0.0371808
0.0374954
0.0375027
0.0372576
0.0379412
0.0382416
0.0382444
0.0380027
0.0389381
0.0392226
0.0392214
0.0389856
0.040244
0.0405104
0.0405059
0.0402788
0.041949
0.0421953
0.0421881
0.0419727
0.0441658
0.0443897
0.0443806
0.04418
0.0470348
0.047234
0.0472237
0.0470412
0.0507323
0.0509048
0.0508942
0.0507328
0.0554812
0.0556249
0.0556147
0.0554775
0.061564
0.0616774
0.0616683
0.0615577
0.0693403
0.0694221
0.0694148
0.0693332
0.0792681
0.0793176
0.0793127
0.0792619
0.0919305
0.091947
0.091945
0.0919265
0.0354428
0.0267855
0.0247542
0.0245079
0.0247425
0.0250439
0.0252671
0.0253599
0.0253022
0.0250833
0.0246923
0.0241147
0.023333
0.0223298
0.0210976
0.019663
0.0181624
0.0172102
0.0229879
0.0298746
0.026981
0.0258687
0.0256089
0.025683
0.0258376
0.0259536
0.0259753
0.0258748
0.025635
0.0252415
0.024679
0.0239322
0.0229896
0.0218545
0.0205734
0.0193238
0.0188557
0.0265523
0.0286924
0.0274398
0.0268196
0.0266158
0.0266169
0.026679
0.0267165
0.0266803
0.0265411
0.0262789
0.025877
0.0253197
0.0245932
0.0236899
0.022621
0.0214468
0.0203747
0.0202595
0.0294671
0.0288521
0.0280883
0.0276786
0.0275087
0.0274681
0.0274684
0.0274477
0.0273648
0.0271919
0.0269079
0.0264951
0.0259374
0.025222
0.0243442
0.0233203
0.0222204
0.0212742
0.0214215
0.0318413
0.0294257
0.0287973
0.028458
0.0282928
0.0282199
0.0281749
0.0281096
0.0279892
0.0277874
0.0274832
0.0270583
0.0264967
0.025786
0.0249235
0.0239291
0.0228797
0.0220227
0.0223681
0.0337682
0.0300882
0.0294824
0.0291529
0.0289743
0.028872
0.0287912
0.0286908
0.0285398
0.0283133
0.0279907
0.0275536
0.0269857
0.0262752
0.0254205
0.024444
0.023428
0.0226341
0.0231306
0.0353244
0.0307196
0.0301022
0.0297593
0.0295599
0.0294305
0.0293202
0.0291914
0.0290151
0.0287676
0.0284284
0.0279792
0.0274036
0.0266902
0.0258378
0.0248709
0.0238761
0.0231265
0.0237387
0.036573
0.0312788
0.0306421
0.0302793
0.0300577
0.0299041
0.0297691
0.0296168
0.0294194
0.0291539
0.0287999
0.028339
0.027755
0.0270363
0.0261826
0.0252196
0.0242372
0.0235183
0.024219
0.0375669
0.0317575
0.0311019
0.0307193
0.030477
0.0303023
0.0301465
0.0299747
0.0297596
0.0294786
0.0291113
0.0286395
0.0280466
0.0273214
0.0264638
0.0255007
0.0245247
0.0238267
0.0245948
0.0383512
0.0321604
0.0314884
0.0310881
0.0308276
0.0306348
0.0304616
0.0302734
0.0300433
0.0297488
0.0293698
0.0288876
0.0282859
0.0275535
0.0266906
0.0257248
0.0247512
0.0240669
0.0248859
0.0389642
0.0324969
0.031811
0.0313954
0.0311193
0.0309111
0.0307231
0.030521
0.0302781
0.029972
0.0295824
0.0290907
0.0284805
0.0277406
0.0268716
0.0259017
0.0249278
0.0242523
0.0251091
0.0394385
0.0327776
0.0320796
0.0316507
0.0313611
0.0311397
0.0309391
0.0307251
0.0304712
0.0301549
0.0297559
0.0292555
0.0286374
0.0278902
0.0270148
0.0260401
0.0250643
0.0243938
0.0252786
0.0398019
0.0330126
0.0323035
0.0318627
0.0315612
0.0313283
0.0311169
0.0308927
0.0306292
0.0303039
0.0298966
0.0293884
0.0287629
0.0280088
0.0271272
0.0261474
0.0251688
0.0245009
0.0254061
0.0400775
0.0332108
0.0324912
0.0320394
0.0317271
0.031484
0.031263
0.0310298
0.030758
0.0304248
0.03001
0.0294948
0.0288626
0.0281022
0.0272147
0.02623
0.0252482
0.0245814
0.0255011
0.0402847
0.0333801
0.0326499
0.0321875
0.0318653
0.0316129
0.0313832
0.0311421
0.0308628
0.0305227
0.0301013
0.0295797
0.0289415
0.0281753
0.0272826
0.0262932
0.0253081
0.0246413
0.0255713
0.0404392
0.0335271
0.032786
0.0323133
0.0319814
0.0317204
0.0314828
0.0312344
0.0309484
0.030602
0.0301747
0.0296476
0.0290039
0.0282327
0.0273351
0.0263414
0.0253533
0.0246859
0.0256231
0.040554
0.0336573
0.032905
0.0324219
0.0320807
0.0318113
0.0315663
0.0313112
0.0310191
0.0306671
0.0302345
0.0297022
0.0290538
0.0282779
0.027376
0.0263786
0.0253875
0.0247191
0.0256614
0.0406395
0.0337756
0.0330118
0.0325181
0.0321676
0.0318901
0.0316379
0.0313766
0.0310788
0.0307215
0.0302841
0.0297472
0.0290944
0.0283144
0.0274086
0.0264077
0.0254139
0.0247443
0.0256901
0.0407043
0.0338862
0.0331106
0.0326062
0.0322464
0.0319609
0.0317019
0.0314344
0.0311312
0.0307691
0.030327
0.0297859
0.029129
0.0283451
0.0274357
0.0264316
0.0254352
0.0247643
0.0257125
0.0407554
0.0339931
0.0332058
0.0326906
0.0323214
0.0320279
0.031762
0.0314886
0.0311802
0.0308133
0.0303669
0.0298216
0.0291607
0.0283731
0.0274602
0.0264528
0.0254538
0.0247815
0.0257316
0.0407993
0.0341005
0.0333015
0.0327754
0.0323968
0.0320953
0.0318226
0.0315434
0.0312298
0.0308581
0.0304073
0.0298578
0.0291929
0.0284014
0.0274848
0.0264741
0.0254723
0.0247983
0.0257501
0.040842
0.0342129
0.0334026
0.0328657
0.0324777
0.0321681
0.0318886
0.0316034
0.0312845
0.030908
0.0304526
0.0298987
0.0292295
0.0284337
0.027513
0.0264985
0.0254935
0.0248175
0.025771
0.0408902
0.0343358
0.0335147
0.0329673
0.0325698
0.0322522
0.0319658
0.0316746
0.0313502
0.0309686
0.0305082
0.0299494
0.0292753
0.0284745
0.027549
0.0265298
0.0255208
0.0248423
0.0257979
0.0409522
0.0344761
0.0336449
0.0330874
0.0326808
0.0323552
0.0320618
0.0317643
0.0314342
0.0310471
0.0305812
0.0300168
0.0293368
0.02853
0.0275983
0.0265732
0.025559
0.0248773
0.025836
0.0410392
0.0346426
0.0338027
0.0332356
0.0328202
0.0324867
0.0321863
0.0318825
0.0315463
0.0311532
0.0306811
0.0301101
0.029423
0.0286087
0.0276692
0.0266363
0.0256151
0.024929
0.0258926
0.041167
0.0348475
0.0340004
0.0334248
0.0330011
0.03266
0.0323526
0.0320423
0.0316997
0.0313
0.0308208
0.0302421
0.0295464
0.0287227
0.0277731
0.0267299
0.0256992
0.0250074
0.0259784
0.041359
0.0351065
0.0342546
0.0336718
0.0332406
0.0328924
0.0325783
0.0322614
0.0319122
0.0315054
0.0310185
0.0304308
0.0297249
0.0288895
0.0279269
0.0268702
0.0258269
0.0251274
0.0261102
0.0416501
0.0354408
0.0345872
0.0339992
0.0335617
0.0332071
0.0328868
0.0325637
0.0322079
0.0317939
0.0312985
0.0307009
0.0299832
0.0291339
0.0281553
0.0270812
0.0260214
0.0253119
0.0263132
0.0420927
0.0358785
0.0350271
0.0344364
0.0339943
0.0336346
0.0333089
0.0329803
0.0326186
0.0321977
0.0316942
0.0310864
0.030356
0.029491
0.0284935
0.0273982
0.0263174
0.0255958
0.0266262
0.0427651
0.0364557
0.0356117
0.0350215
0.0345772
0.0342142
0.0338848
0.0335521
0.0331859
0.0327597
0.0322493
0.0316327
0.0308903
0.0300094
0.0289917
0.0278722
0.0267668
0.0260317
0.0271078
0.0437832
0.037219
0.0363885
0.0358032
0.0353599
0.0349961
0.0346653
0.0343311
0.0339631
0.0335346
0.0330209
0.0323989
0.0316482
0.0307547
0.029719
0.0285758
0.0274449
0.0266982
0.0278465
0.0453172
0.0382272
0.0374177
0.0368425
0.0364042
0.0360432
0.0357145
0.0353824
0.035017
0.0345914
0.0340805
0.0334605
0.0327099
0.0318127
0.0307677
0.0296086
0.0284583
0.0277095
0.0289723
0.0476115
0.0395537
0.0387739
0.038215
0.0377866
0.0374329
0.0371109
0.0367862
0.0364296
0.0360145
0.0355161
0.0349103
0.0341744
0.0332913
0.0322569
0.0311028
0.0299541
0.0292281
0.0306737
0.051011
0.0412898
0.0405491
0.0400137
0.0396014
0.0392604
0.0389508
0.03864
0.0383002
0.037906
0.0374334
0.0368592
0.0361611
0.0353212
0.0343339
0.0332274
0.0321276
0.0314795
0.0332185
0.0559947
0.0435483
0.0428571
0.0423533
0.0419637
0.0416418
0.0413512
0.0410619
0.0407483
0.0403873
0.0399571
0.0394371
0.038808
0.0380546
0.0371726
0.0361893
0.0352308
0.0347712
0.0369864
0.0632317
0.0464699
0.045839
0.0453753
0.0450158
0.0447198
0.0444552
0.0441954
0.0439181
0.0436034
0.0432338
0.0427939
0.0422717
0.0416609
0.0409677
0.0402287
0.0395772
0.0395201
0.0425289
0.0736951
0.0502308
0.0496708
0.0492561
0.0489342
0.0486711
0.0484394
0.0482169
0.047985
0.0477287
0.0474364
0.0471016
0.0467251
0.0463203
0.0459213
0.045601
0.0455337
0.0462862
0.050686
0.0889158
0.0550531
0.0545743
0.0542173
0.0539406
0.0537169
0.0535243
0.0533451
0.0531655
0.0529759
0.0527723
0.0525597
0.0523583
0.0522142
0.0522171
0.0525316
0.0534696
0.0557891
0.0628194
0.111568
0.0612184
0.0608306
0.0605397
0.0603152
0.0601366
0.0599876
0.0598551
0.0597304
0.0596092
0.0594954
0.0594062
0.0593839
0.0595172
0.0599827
0.0611215
0.0635935
0.0687949
0.0812606
0.147043
0.0690851
0.0687973
0.0685804
0.0684142
0.0682851
0.0681818
0.068096
0.068023
0.0679633
0.067926
0.0679371
0.0680549
0.0684056
0.0692593
0.0712032
0.0755583
0.0854832
0.110018
0.210021
0.0791099
0.0789302
0.0787945
0.0786919
0.0786146
0.0785563
0.0785127
0.0784822
0.0784673
0.078478
0.0785394
0.0787075
0.0791091
0.0800409
0.0822476
0.0877847
0.103165
0.153952
0.377296
0.0918736
0.0918103
0.0917626
0.0917275
0.0917024
0.0916853
0.0916752
0.0916718
0.0916769
0.0916954
0.0917388
0.0918327
0.0920369
0.0925043
0.0936846
0.0971927
0.110651
0.19252
1.44578
)
;

boundaryField
{
    leftWall
    {
        type            epsilonWallFunction;
        blending        stepwise;
        value           nonuniform List<scalar> 
50
(
3.11056
1.99652
1.99652
1.99652
1.99652
1.99652
1.99652
1.99652
1.99652
1.99652
1.99652
1.99652
1.99652
1.99652
1.99652
1.99652
1.99652
1.99652
1.99652
1.99652
1.99652
1.99652
1.99652
1.99652
1.99652
1.99652
1.99652
1.99652
0.155453
0.0216935
0.0183279
0.0229965
0.0272512
0.0307923
0.0337894
0.0364163
0.0388497
0.04129
0.0439836
0.047249
0.0515075
0.0573233
0.0654682
0.0770487
0.0937929
0.118717
0.157818
0.225486
0.377154
1.44429
)
;
    }
    rightWall
    {
        type            epsilonWallFunction;
        blending        stepwise;
        value           nonuniform List<scalar> 
50
(
0.0034081
0.00519523
0.00810205
0.0108065
0.0132838
0.0155848
0.0177594
0.0198403
0.0229879
0.0265523
0.0294671
0.0318413
0.0337682
0.0353244
0.036573
0.0375669
0.0383512
0.0389642
0.0394385
0.0398019
0.0400775
0.0402847
0.0404392
0.040554
0.0406395
0.0407043
0.0407554
0.0407993
0.040842
0.0408902
0.0409522
0.0410392
0.041167
0.041359
0.0416501
0.0420927
0.0427651
0.0437832
0.0453172
0.0476115
0.051011
0.0559947
0.0632317
0.0736951
0.0889158
0.111568
0.147043
0.210021
0.377296
1.44578
)
;
    }
    lowerWall
    {
        type            epsilonWallFunction;
        blending        stepwise;
        value           nonuniform List<scalar> 
62
(
3.11056
4.22461
4.22461
4.22461
4.22461
4.22461
4.22461
4.22461
4.22461
4.22461
4.22461
4.22461
4.22461
0.0814817
0.0107314
0.0172918
0.0224571
0.0254894
0.0264926
0.0252426
0.0212426
0.0138675
0.00319792
0.00319792
0.00568859
0.00939146
0.0130378
0.0169359
0.0219183
0.0306244
0.0534961
0.0702179
0.0572981
0.0592972
0.0783684
0.00396959
0.00670138
0.0112761
0.015931
0.0209652
0.027343
0.0380708
0.0641141
0.00396959
0.0195114
0.0311109
0.0388399
0.0438218
0.0469476
0.0487724
0.0496128
0.0496399
0.0489381
0.0475386
0.0454359
0.0425965
0.0389594
0.0344309
0.0288699
0.0220565
0.0136382
0.0034081
)
;
    }
    atmosphere
    {
        type            inletOutlet;
        inletValue      uniform 0.1;
        value           nonuniform List<scalar> 
46
(
1.44429
0.1
0.1
0.1
0.1
0.1
0.1
0.1
0.1
0.1
0.1
0.1
0.1
0.1
0.1
0.1
0.1
0.1
0.1
0.1
0.1
0.1
0.1
0.1
0.1
0.1
0.1
0.1
0.1
0.1
0.1
0.1
0.1
0.1
0.1
0.1
0.1
0.1
0.1
0.1
0.1
0.1
0.1
0.1
0.1
0.1
)
;
    }
    defaultFaces
    {
        type            empty;
    }
}


// ************************************************************************* //
