/*--------------------------------*- C++ -*----------------------------------*\
| =========                 |                                                 |
| \\      /  F ield         | OpenFOAM: The Open Source CFD Toolbox           |
|  \\    /   O peration     | Version:  2406                                  |
|   \\  /    A nd           | Website:  www.openfoam.com                      |
|    \\/     M anipulation  |                                                 |
\*---------------------------------------------------------------------------*/
FoamFile
{
    version     2.0;
    format      ascii;
    arch        "LSB;label=32;scalar=64";
    class       volScalarField;
    location    "1";
    object      epsilon;
}
// * * * * * * * * * * * * * * * * * * * * * * * * * * * * * * * * * * * * * //

dimensions      [0 2 -3 0 0 0 0];

internalField   nonuniform List<scalar> 
2268
(
0.00353369
0.0159172
0.0267505
0.0358303
0.0434966
0.0499852
0.0554601
0.0600407
0.0638173
0.0668576
0.06921
0.0709041
0.0719483
0.072325
0.0719807
0.0708103
0.0686296
0.0651305
0.0598119
0.0518958
0.0403111
0.0240559
0.00437059
0.00632178
0.0108778
0.0155323
0.0195414
0.0229331
0.0257892
0.0281812
0.030166
0.0317881
0.0330814
0.0340708
0.034772
0.0351908
0.0353212
0.0351421
0.0346107
0.0336534
0.0321499
0.0299115
0.0266559
0.0220121
0.0156967
0.00878492
0.0103488
0.0113318
0.0143295
0.0171151
0.019525
0.0215679
0.0232796
0.0246962
0.0258492
0.0267637
0.0274586
0.0279466
0.028233
0.0283154
0.0281809
0.0278039
0.0271412
0.0261261
0.0246615
0.0226169
0.0198498
0.0163935
0.0154561
0.0141155
0.0124589
0.0144935
0.0166343
0.0185541
0.0202051
0.0215965
0.0227501
0.0236887
0.0244318
0.0249952
0.0253896
0.0256206
0.0256877
0.0255835
0.0252926
0.0247906
0.0240441
0.0230149
0.021675
0.0200534
0.0184928
0.0222814
0.017526
0.0137217
0.0150453
0.0167369
0.0183276
0.0197232
0.0209107
0.0218999
0.0227065
0.0233457
0.0238306
0.0241709
0.0243721
0.0244356
0.0243583
0.024133
0.0237501
0.0232028
0.0225009
0.0217069
0.021031
0.0212239
0.0295466
0.0206179
0.0149804
0.0157323
0.0170736
0.018413
0.0196172
0.0206547
0.0215249
0.0222375
0.0228039
0.0232349
0.0235392
0.0237227
0.0237884
0.0237368
0.0235678
0.0232842
0.0229012
0.0224703
0.0221391
0.0223307
0.0244604
0.0384834
0.023438
0.0161865
0.0164596
0.0175132
0.0186481
0.0196981
0.0206163
0.0213933
0.022033
0.0225439
0.0229348
0.0232134
0.0233859
0.0234568
0.02343
0.0233112
0.0231134
0.0228701
0.0226658
0.0227224
0.0236941
0.0281242
0.0533889
0.0260239
0.0173231
0.0171846
0.0179951
0.0189579
0.019879
0.020698
0.021398
0.0219785
0.0224448
0.0228041
0.0230634
0.0232291
0.0233069
0.0233036
0.0232297
0.0231063
0.0229802
0.0229586
0.0233101
0.0248504
0.0315407
0.0924246
0.00472755
0.0261522
0.0429156
0.0541552
0.0613108
0.0656751
0.0680912
0.0690554
0.0688447
0.0676024
0.0653882
0.0622049
0.0580127
0.0527329
0.0462453
0.0383746
0.028861
0.0173219
0.00384288
0.008449
0.0164614
0.0230431
0.0275877
0.0305631
0.0324267
0.0334887
0.0339387
0.0338852
0.0333843
0.032458
0.0311031
0.0292971
0.0269996
0.0241514
0.0206719
0.0164609
0.0114503
0.0061832
0.0146488
0.0167282
0.0204221
0.02317
0.0250653
0.026301
0.0270275
0.0273452
0.0273152
0.0269699
0.0263204
0.0253621
0.0240766
0.0224343
0.020395
0.0179128
0.0149588
0.011651
0.00993426
0.0210442
0.0185229
0.0203269
0.0219875
0.0232566
0.024137
0.0246735
0.0249102
0.0248789
0.0245971
0.0240695
0.0232901
0.0222433
0.0209064
0.0192522
0.0172603
0.0149564
0.0126153
0.0134666
0.0279252
0.0209687
0.0210466
0.0218218
0.022608
0.0232195
0.0236112
0.0237817
0.0237394
0.0234901
0.0230333
0.0223617
0.0214622
0.0203174
0.0189112
0.0172443
0.0153879
0.0137518
0.016675
0.0365596
0.0238836
0.0221009
0.0220803
0.0224595
0.0228469
0.0231159
0.023227
0.023169
0.0229375
0.0225276
0.0219311
0.0211365
0.0201314
0.0189092
0.0174886
0.0159787
0.0149061
0.0195845
0.0511601
0.0271344
0.023236
0.0225153
0.0225537
0.0227514
0.0229139
0.0229708
0.0228947
0.0226729
0.0222967
0.0217568
0.0210434
0.0201482
0.0190731
0.0178518
0.0166258
0.0160232
0.0222364
0.0877357
0.0300792
0.0242223
0.0229905
0.0227644
0.0228059
0.0228768
0.0228847
0.02279
0.0225733
0.0222224
0.0217274
0.0210799
0.0202755
0.0193229
0.0182689
0.0172822
0.017082
0.0246659
0.029779
0.0189856
0.0182827
0.018766
0.019498
0.0202462
0.0209329
0.021531
0.0220336
0.022442
0.0227611
0.0229968
0.0231558
0.0232456
0.0232764
0.0232645
0.0232403
0.0232632
0.023457
0.0240969
0.0258643
0.0307505
0.0458982
0.0340365
0.0208996
0.0196004
0.01975
0.0202483
0.0208214
0.021374
0.0218693
0.0222942
0.022646
0.0229269
0.0231418
0.0232974
0.0234022
0.0234688
0.0235163
0.0235774
0.0237089
0.0240138
0.0246822
0.0260715
0.0288484
0.0341199
0.0376332
0.0225107
0.020731
0.0206218
0.0209413
0.0213806
0.0218306
0.0222472
0.0226128
0.0229216
0.0231741
0.023374
0.0235276
0.0236435
0.0237343
0.0238185
0.0239246
0.0240974
0.024407
0.0249602
0.0259068
0.0274118
0.0294894
0.0406724
0.0238607
0.0216867
0.0213726
0.0215533
0.0218891
0.0222597
0.0226154
0.0229349
0.0232105
0.0234409
0.023629
0.0237802
0.0239026
0.0240073
0.0241102
0.0242335
0.0244084
0.0246772
0.0250918
0.0257028
0.0265231
0.0274431
0.0432349
0.0249869
0.0224865
0.0220084
0.02208
0.0223353
0.0226443
0.0229526
0.0232362
0.0234857
0.0236986
0.0238768
0.0240248
0.0241495
0.0242604
0.0243698
0.0244939
0.0246528
0.0248699
0.0251676
0.0255567
0.0260165
0.0264647
0.0453871
0.0259216
0.0231505
0.0225402
0.0225258
0.0227184
0.0229795
0.0232508
0.0235065
0.0237354
0.0239342
0.0241038
0.0242478
0.024372
0.0244837
0.0245923
0.0247091
0.0248465
0.0250165
0.0252276
0.0254776
0.025745
0.0259809
0.0471855
0.0266928
0.0236975
0.0229806
0.0228983
0.0230419
0.0232659
0.0235087
0.0237425
0.0239553
0.0241427
0.0243048
0.0244444
0.0245661
0.0246756
0.0247798
0.0248863
0.0250027
0.0251351
0.0252859
0.0254501
0.025612
0.0257446
0.0486792
0.0273251
0.024145
0.0233422
0.0232063
0.0233119
0.0235072
0.0237279
0.0239448
0.0241449
0.0243231
0.0244788
0.024614
0.0247322
0.024838
0.0249364
0.0250325
0.0251311
0.0252353
0.0253452
0.0254565
0.025559
0.0256378
0.0499114
0.02784
0.0245082
0.0236366
0.0234587
0.0235348
0.0237081
0.0239119
0.0241158
0.024306
0.0244768
0.0246271
0.0247581
0.0248727
0.0249743
0.0250668
0.0251537
0.0252382
0.0253219
0.0254046
0.025483
0.025551
0.0256004
0.0509202
0.0282561
0.0248008
0.0238745
0.0236638
0.0237172
0.0238737
0.0240647
0.0242588
0.0244413
0.0246062
0.024752
0.0248794
0.0249905
0.0250881
0.0251753
0.0252546
0.0253283
0.0253976
0.0254621
0.0255198
0.0255673
0.0255998
0.0517397
0.0285896
0.0250348
0.0240652
0.023829
0.0238653
0.0240091
0.0241905
0.0243771
0.0245538
0.0247142
0.0248564
0.0249806
0.0250887
0.0251828
0.0252655
0.0253388
0.0254046
0.0254636
0.025516
0.0255607
0.0255956
0.0256183
0.0523997
0.0288549
0.0252204
0.0242169
0.0239613
0.0239845
0.0241189
0.0242932
0.0244743
0.0246467
0.0248036
0.0249429
0.0250646
0.0251701
0.0252614
0.0253405
0.0254092
0.0254692
0.0255212
0.0255655
0.0256018
0.0256289
0.0256456
0.0529266
0.0290641
0.0253664
0.0243366
0.0240662
0.0240798
0.0242074
0.0243765
0.0245535
0.0247228
0.0248772
0.0250143
0.025134
0.0252375
0.0253265
0.0254028
0.0254681
0.0255239
0.025571
0.02561
0.0256408
0.025663
0.0256759
0.0533437
0.0292277
0.0254804
0.0244304
0.024149
0.0241555
0.0242781
0.0244435
0.0246178
0.0247848
0.0249373
0.0250728
0.025191
0.025293
0.0253803
0.0254545
0.0255174
0.0255702
0.025614
0.0256493
0.0256766
0.0256956
0.0257062
0.0536708
0.0293545
0.0255687
0.0245034
0.0242137
0.0242152
0.0243343
0.0244972
0.0246695
0.024835
0.0249862
0.0251206
0.0252378
0.0253386
0.0254246
0.0254974
0.0255585
0.0256092
0.0256507
0.0256837
0.0257086
0.0257256
0.0257348
0.0539251
0.0294519
0.0256364
0.0245596
0.0242641
0.0242619
0.0243787
0.0245399
0.0247109
0.0248754
0.0250258
0.0251595
0.0252759
0.025376
0.0254611
0.0255328
0.0255927
0.025642
0.025682
0.0257133
0.0257367
0.0257524
0.0257607
0.054121
0.0295261
0.025688
0.0246028
0.0243029
0.0242983
0.0244135
0.0245736
0.0247439
0.0249078
0.0250578
0.0251909
0.0253069
0.0254065
0.025491
0.025562
0.0256211
0.0256695
0.0257084
0.0257387
0.0257611
0.025776
0.0257836
0.0542706
0.0295822
0.0257271
0.0246355
0.0243327
0.0243264
0.0244406
0.0246002
0.02477
0.0249336
0.0250833
0.0252163
0.025332
0.0254313
0.0255155
0.0255861
0.0256446
0.0256924
0.0257306
0.0257603
0.025782
0.0257964
0.0258037
0.0543839
0.0296242
0.0257563
0.0246603
0.0243554
0.0243481
0.0244617
0.0246209
0.0247906
0.0249541
0.0251038
0.0252366
0.0253523
0.0254514
0.0255354
0.0256057
0.0256639
0.0257114
0.0257492
0.0257785
0.0257998
0.0258138
0.0258209
0.0544689
0.0296555
0.0257781
0.0246788
0.0243726
0.0243646
0.0244779
0.024637
0.0248067
0.0249703
0.02512
0.0252529
0.0253686
0.0254677
0.0255516
0.0256218
0.0256798
0.0257271
0.0257647
0.0257936
0.0258148
0.0258286
0.0258355
0.0545321
0.0296785
0.0257942
0.0246927
0.0243855
0.0243771
0.0244904
0.0246495
0.0248193
0.0249829
0.0251328
0.0252658
0.0253816
0.0254807
0.0255647
0.0256348
0.0256928
0.0257399
0.0257774
0.0258063
0.0258273
0.025841
0.0258478
0.0545788
0.0296953
0.025806
0.0247029
0.0243951
0.0243866
0.0244999
0.0246591
0.024829
0.0249928
0.0251428
0.025276
0.0253919
0.0254912
0.0255752
0.0256454
0.0257033
0.0257504
0.0257879
0.0258167
0.0258376
0.0258513
0.025858
0.0546131
0.0297076
0.0258146
0.0247104
0.0244022
0.0243937
0.024507
0.0246664
0.0248365
0.0250005
0.0251507
0.0252841
0.0254001
0.0254995
0.0255836
0.0256538
0.0257119
0.025759
0.0257964
0.0258252
0.0258461
0.0258597
0.0258665
0.0546379
0.0297164
0.0258209
0.0247159
0.0244075
0.024399
0.0245125
0.024672
0.0248423
0.0250065
0.0251568
0.0252903
0.0254065
0.025506
0.0255902
0.0256606
0.0257187
0.0257658
0.0258033
0.0258321
0.025853
0.0258666
0.0258734
0.0546559
0.0297227
0.0258253
0.0247198
0.0244114
0.0244029
0.0245165
0.0246762
0.0248467
0.025011
0.0251615
0.0252952
0.0254115
0.0255112
0.0255955
0.025666
0.0257241
0.0257713
0.0258088
0.0258377
0.0258586
0.0258722
0.025879
0.0546688
0.0297272
0.0258285
0.0247227
0.0244142
0.0244058
0.0245195
0.0246793
0.02485
0.0250145
0.0251651
0.025299
0.0254154
0.0255152
0.0255996
0.0256702
0.0257284
0.0257757
0.0258133
0.0258421
0.0258631
0.0258768
0.0258835
0.0546779
0.0297304
0.0258308
0.0247248
0.0244163
0.0244079
0.0245217
0.0246817
0.0248525
0.0250171
0.0251679
0.0253019
0.0254184
0.0255183
0.0256028
0.0256735
0.0257318
0.0257792
0.0258168
0.0258457
0.0258667
0.0258803
0.0258871
0.0546844
0.0297326
0.0258324
0.0247262
0.0244177
0.0244094
0.0245234
0.0246834
0.0248543
0.0250191
0.02517
0.0253041
0.0254207
0.0255207
0.0256053
0.0256761
0.0257344
0.0257818
0.0258195
0.0258484
0.0258695
0.0258832
0.02589
0.0546889
0.0297342
0.0258335
0.0247272
0.0244188
0.0244106
0.0245246
0.0246847
0.0248557
0.0250206
0.0251716
0.0253057
0.0254225
0.0255226
0.0256073
0.0256781
0.0257365
0.0257839
0.0258217
0.0258506
0.0258717
0.0258854
0.0258922
0.0546921
0.0297353
0.0258343
0.024728
0.0244195
0.0244114
0.0245254
0.0246857
0.0248567
0.0250217
0.0251728
0.025307
0.0254238
0.025524
0.0256087
0.0256796
0.0257381
0.0257856
0.0258233
0.0258523
0.0258734
0.0258871
0.0258939
0.0546943
0.029736
0.0258348
0.0247285
0.0244201
0.0244119
0.024526
0.0246864
0.0248575
0.0250225
0.0251736
0.0253079
0.0254248
0.025525
0.0256098
0.0256807
0.0257393
0.0257868
0.0258246
0.0258536
0.0258747
0.0258885
0.0258953
0.0546958
0.0297365
0.0258352
0.0247288
0.0244204
0.0244123
0.0245265
0.0246869
0.024858
0.0250231
0.0251743
0.0253086
0.0254256
0.0255258
0.0256106
0.0256816
0.0257402
0.0257877
0.0258255
0.0258546
0.0258757
0.0258895
0.0258963
0.0546968
0.0297369
0.0258355
0.0247291
0.0244207
0.0244126
0.0245268
0.0246872
0.0248584
0.0250235
0.0251747
0.0253091
0.0254261
0.0255264
0.0256113
0.0256822
0.0257408
0.0257884
0.0258263
0.0258553
0.0258765
0.0258902
0.0258971
0.0546975
0.0297371
0.0258356
0.0247293
0.0244209
0.0244128
0.024527
0.0246875
0.0248587
0.0250238
0.0251751
0.0253095
0.0254265
0.0255268
0.0256117
0.0256827
0.0257413
0.025789
0.0258268
0.0258559
0.025877
0.0258908
0.0258976
0.054698
0.0297373
0.0258358
0.0247294
0.024421
0.024413
0.0245272
0.0246876
0.0248589
0.025024
0.0251753
0.0253098
0.0254268
0.0255271
0.0256121
0.0256831
0.0257417
0.0257893
0.0258272
0.0258563
0.0258774
0.0258912
0.0258981
0.0546983
0.0297374
0.0258358
0.0247295
0.0244211
0.0244131
0.0245273
0.0246878
0.024859
0.0250242
0.0251755
0.02531
0.025427
0.0255274
0.0256123
0.0256833
0.025742
0.0257896
0.0258275
0.0258566
0.0258777
0.0258915
0.0258984
0.0546986
0.0297374
0.0258359
0.0247295
0.0244211
0.0244131
0.0245274
0.0246879
0.0248591
0.0250243
0.0251756
0.0253101
0.0254272
0.0255275
0.0256125
0.0256835
0.0257422
0.0257898
0.0258277
0.0258568
0.025878
0.0258918
0.0258986
0.0546987
0.0297375
0.0258359
0.0247295
0.0244212
0.0244132
0.0245274
0.0246879
0.0248592
0.0250244
0.0251757
0.0253102
0.0254273
0.0255276
0.0256126
0.0256836
0.0257423
0.02579
0.0258278
0.025857
0.0258781
0.0258919
0.0258987
0.0546988
0.0297375
0.025836
0.0247296
0.0244212
0.0244132
0.0245275
0.024688
0.0248592
0.0250244
0.0251758
0.0253103
0.0254273
0.0255277
0.0256127
0.0256837
0.0257424
0.0257901
0.0258279
0.0258571
0.0258782
0.025892
0.0258988
0.0546989
0.0297375
0.025836
0.0247296
0.0244212
0.0244132
0.0245275
0.024688
0.0248593
0.0250245
0.0251758
0.0253103
0.0254274
0.0255278
0.0256127
0.0256838
0.0257425
0.0257901
0.025828
0.0258571
0.0258783
0.0258921
0.0258989
0.0546989
0.0297375
0.025836
0.0247296
0.0244212
0.0244132
0.0245275
0.024688
0.0248593
0.0250245
0.0251758
0.0253103
0.0254274
0.0255278
0.0256128
0.0256838
0.0257425
0.0257902
0.025828
0.0258572
0.0258783
0.0258921
0.0258989
0.0546989
0.0297376
0.025836
0.0247296
0.0244212
0.0244132
0.0245275
0.024688
0.0248593
0.0250245
0.0251759
0.0253104
0.0254274
0.0255278
0.0256128
0.0256839
0.0257425
0.0257902
0.0258281
0.0258572
0.0258783
0.0258921
0.0258989
0.115261
0.0904774
0.0901834
0.11376
0.0406243
0.041141
0.0411014
0.0405261
0.0309283
0.0313443
0.0313325
0.0308959
0.0279312
0.0280937
0.0280871
0.0279119
0.0266705
0.0267384
0.0267335
0.026656
0.0260796
0.0261109
0.0261067
0.0260672
0.0257961
0.0258114
0.0258076
0.0257847
0.0256663
0.025674
0.0256704
0.0256555
0.0256168
0.0256205
0.025617
0.0256063
0.0256096
0.0256111
0.0256077
0.0255994
0.0256242
0.0256245
0.0256212
0.0256142
0.0256492
0.0256488
0.0256455
0.0256394
0.0256782
0.0256773
0.0256741
0.0256685
0.0257076
0.0257065
0.0257033
0.0256981
0.0257356
0.0257343
0.0257312
0.0257262
0.0257612
0.0257598
0.0257567
0.0257518
0.025784
0.0257825
0.0257794
0.0257746
0.0258038
0.0258024
0.0257993
0.0257946
0.025821
0.0258195
0.0258164
0.0258117
0.0258355
0.025834
0.025831
0.0258263
0.0258478
0.0258463
0.0258432
0.0258386
0.025858
0.0258565
0.0258534
0.0258488
0.0258665
0.025865
0.0258619
0.0258572
0.0258734
0.0258719
0.0258688
0.0258641
0.025879
0.0258775
0.0258744
0.0258697
0.0258835
0.025882
0.0258789
0.0258743
0.0258871
0.0258856
0.0258825
0.0258779
0.02589
0.0258885
0.0258854
0.0258807
0.0258922
0.0258907
0.0258876
0.0258829
0.0258939
0.0258924
0.0258893
0.0258847
0.0258953
0.0258938
0.0258907
0.025886
0.0258963
0.0258948
0.0258917
0.025887
0.0258971
0.0258956
0.0258925
0.0258878
0.0258977
0.0258961
0.025893
0.0258884
0.0258981
0.0258966
0.0258935
0.0258888
0.0258984
0.0258969
0.0258938
0.0258891
0.0258986
0.0258971
0.025894
0.0258893
0.0258988
0.0258972
0.0258941
0.0258895
0.0258989
0.0258973
0.0258942
0.0258896
0.0258989
0.0258974
0.0258943
0.0258896
0.0258989
0.0258974
0.0258943
0.0258896
0.0258989
0.0258974
0.0258943
0.0258896
0.0444484
0.0296764
0.0251837
0.0236726
0.023168
0.0230184
0.0229693
0.0229097
0.0227868
0.0225735
0.0222536
0.0218164
0.0212553
0.0205711
0.0197821
0.0189522
0.0182871
0.018636
0.0281901
0.0336632
0.0282346
0.0255366
0.0242671
0.0236865
0.0234192
0.0232742
0.0231524
0.0230001
0.022787
0.022495
0.0221133
0.0216377
0.0210743
0.0204504
0.0198469
0.0195083
0.0204322
0.0321809
0.0293261
0.0270745
0.0255312
0.0246116
0.0240942
0.0238004
0.0236119
0.023455
0.0232845
0.0230723
0.0228011
0.0224613
0.0220507
0.0215792
0.0210811
0.0206502
0.0205631
0.0219464
0.0355493
0.0273675
0.0263281
0.025444
0.024815
0.0243997
0.0241255
0.0239272
0.0237558
0.0235773
0.0233685
0.0231145
0.0228073
0.0224469
0.0220464
0.0216453
0.0213479
0.0214584
0.023216
0.0383947
0.0264192
0.0258929
0.0253733
0.0249492
0.0246305
0.0243926
0.0242025
0.0240301
0.0238511
0.0236481
0.0234089
0.0231277
0.0228066
0.0224612
0.0221353
0.0219421
0.0222097
0.0242756
0.0407943
0.0259473
0.0256581
0.0253407
0.025052
0.0248102
0.0246101
0.0244359
0.0242696
0.024095
0.0238992
0.0236732
0.0234131
0.0231228
0.0228202
0.0225529
0.0224414
0.0228348
0.0251555
0.0428112
0.0257164
0.0255449
0.0253417
0.02514
0.0249551
0.0247878
0.024631
0.0244741
0.0243063
0.0241184
0.0239039
0.0236609
0.0233948
0.0231256
0.0229037
0.0228564
0.0233509
0.0258822
0.0444989
0.0256125
0.025503
0.0253659
0.0252198
0.0250751
0.0249341
0.0247933
0.0246464
0.0244861
0.024306
0.0241015
0.0238723
0.0236252
0.0233818
0.0231953
0.0231984
0.0237739
0.0264787
0.0459031
0.0255768
0.0255016
0.0254037
0.0252932
0.0251765
0.0250554
0.0249281
0.0247904
0.0246374
0.0244643
0.0242683
0.0240502
0.0238179
0.0235945
0.0234352
0.0234779
0.0241182
0.0269652
0.0470641
0.0255774
0.0255221
0.0254479
0.0253603
0.0252628
0.0251565
0.02504
0.0249103
0.0247637
0.0245968
0.0244078
0.0241984
0.0239775
0.0237694
0.0236311
0.0237046
0.0243963
0.0273592
0.0480173
0.0255966
0.0255531
0.0254937
0.0254209
0.0253367
0.0252411
0.0251329
0.0250097
0.0248685
0.0247067
0.0245233
0.0243207
0.0241086
0.023912
0.0237898
0.023887
0.0246193
0.0276759
0.0487939
0.0256244
0.0255882
0.0255381
0.0254751
0.0253999
0.025312
0.02521
0.0250919
0.024955
0.0247974
0.0246184
0.024421
0.0242155
0.0240275
0.0239174
0.0240328
0.0247969
0.0279285
0.0494217
0.0256552
0.0256236
0.0255794
0.0255228
0.0254538
0.0253714
0.025274
0.0251598
0.0250263
0.0248718
0.0246962
0.0245026
0.0243019
0.0241204
0.0240192
0.0241484
0.0249372
0.0281284
0.0499249
0.0256858
0.0256571
0.0256168
0.0255645
0.0254996
0.0254211
0.0253271
0.0252157
0.0250847
0.0249326
0.0247594
0.0245687
0.0243715
0.0241946
0.0241
0.0242395
0.0250472
0.0282853
0.0503248
0.0257146
0.0256877
0.0256499
0.0256004
0.0255385
0.0254625
0.0253709
0.0252616
0.0251324
0.0249821
0.0248107
0.0246219
0.0244272
0.0242535
0.0241636
0.0243107
0.0251327
0.0284074
0.0506398
0.0257407
0.025715
0.0256788
0.0256313
0.0255712
0.0254971
0.0254071
0.0252992
0.0251714
0.0250222
0.0248519
0.0246646
0.0244714
0.0243
0.0242134
0.024366
0.0251988
0.0285017
0.0508858
0.0257638
0.0257389
0.0257038
0.0256574
0.0255986
0.0255257
0.0254369
0.0253299
0.0252029
0.0250545
0.0248851
0.0246985
0.0245064
0.0243364
0.0242521
0.0244086
0.0252494
0.0285738
0.0510762
0.0257839
0.0257595
0.025725
0.0256795
0.0256215
0.0255494
0.0254613
0.025355
0.0252285
0.0250805
0.0249115
0.0247254
0.024534
0.0243649
0.024282
0.0244413
0.0252879
0.0286286
0.0512224
0.0258011
0.0257771
0.025743
0.025698
0.0256405
0.0255689
0.0254812
0.0253752
0.0252491
0.0251013
0.0249325
0.0247467
0.0245555
0.0243869
0.024305
0.0244661
0.025317
0.0286699
0.0513335
0.0258158
0.0257919
0.0257581
0.0257134
0.0256562
0.0255849
0.0254974
0.0253916
0.0252656
0.0251179
0.0249491
0.0247633
0.0245722
0.0244039
0.0243225
0.0244849
0.0253388
0.0287008
0.0514174
0.0258281
0.0258043
0.0257707
0.0257261
0.0256691
0.0255979
0.0255105
0.0254048
0.0252787
0.0251311
0.0249622
0.0247763
0.0245852
0.0244169
0.0243358
0.024499
0.025355
0.0287236
0.0514801
0.0258383
0.0258146
0.0257811
0.0257365
0.0256796
0.0256085
0.0255211
0.0254153
0.0252892
0.0251414
0.0249724
0.0247864
0.0245952
0.0244268
0.0243458
0.0245095
0.0253669
0.0287404
0.0515266
0.0258468
0.0258231
0.0257895
0.0257451
0.0256881
0.025617
0.0255295
0.0254237
0.0252975
0.0251495
0.0249804
0.0247942
0.0246028
0.0244343
0.0243533
0.0245173
0.0253757
0.0287527
0.0515609
0.0258537
0.02583
0.0257964
0.0257519
0.025695
0.0256238
0.0255363
0.0254303
0.025304
0.0251559
0.0249866
0.0248002
0.0246086
0.02444
0.0243589
0.024523
0.0253821
0.0287616
0.0515859
0.0258593
0.0258356
0.025802
0.0257575
0.0257004
0.0256292
0.0255416
0.0254355
0.025309
0.0251608
0.0249913
0.0248047
0.024613
0.0244442
0.0243631
0.0245272
0.0253867
0.028768
0.0516041
0.0258638
0.02584
0.0258064
0.0257619
0.0257048
0.0256334
0.0255457
0.0254396
0.0253129
0.0251646
0.0249949
0.0248082
0.0246162
0.0244473
0.0243661
0.0245302
0.02539
0.0287726
0.0516171
0.0258674
0.0258436
0.02581
0.0257653
0.0257082
0.0256368
0.025549
0.0254427
0.025316
0.0251675
0.0249977
0.0248108
0.0246187
0.0244496
0.0243683
0.0245324
0.0253924
0.0287759
0.0516265
0.0258702
0.0258464
0.0258127
0.0257681
0.0257109
0.0256394
0.0255515
0.0254451
0.0253183
0.0251697
0.0249997
0.0248127
0.0246205
0.0244513
0.0243699
0.024534
0.0253941
0.0287782
0.0516331
0.0258724
0.0258486
0.0258149
0.0257702
0.0257129
0.0256414
0.0255534
0.025447
0.02532
0.0251713
0.0250013
0.0248142
0.0246219
0.0244526
0.0243711
0.0245351
0.0253953
0.0287798
0.0516377
0.0258741
0.0258503
0.0258166
0.0257718
0.0257145
0.0256429
0.0255549
0.0254484
0.0253214
0.0251726
0.0250024
0.0248152
0.0246228
0.0244535
0.0243719
0.0245359
0.0253961
0.0287809
0.051641
0.0258755
0.0258516
0.0258179
0.0257731
0.0257157
0.0256441
0.025556
0.0254495
0.0253224
0.0251735
0.0250033
0.024816
0.0246236
0.0244541
0.0243725
0.0245365
0.0253967
0.0287817
0.0516433
0.0258765
0.0258526
0.0258189
0.025774
0.0257167
0.025645
0.0255569
0.0254502
0.0253231
0.0251742
0.0250039
0.0248166
0.0246241
0.0244546
0.0243729
0.0245369
0.0253971
0.0287822
0.0516448
0.0258772
0.0258534
0.0258196
0.0257747
0.0257174
0.0256456
0.0255575
0.0254508
0.0253236
0.0251747
0.0250044
0.024817
0.0246245
0.0244549
0.0243732
0.0245372
0.0253974
0.0287826
0.0516459
0.0258778
0.0258539
0.0258201
0.0257753
0.0257179
0.0256461
0.0255579
0.0254513
0.025324
0.025175
0.0250047
0.0248173
0.0246247
0.0244552
0.0243734
0.0245373
0.0253976
0.0287828
0.0516467
0.0258782
0.0258543
0.0258205
0.0257757
0.0257182
0.0256465
0.0255583
0.0254516
0.0253243
0.0251753
0.025005
0.0248175
0.0246249
0.0244553
0.0243736
0.0245375
0.0253977
0.028783
0.0516472
0.0258785
0.0258546
0.0258208
0.0257759
0.0257185
0.0256467
0.0255585
0.0254518
0.0253245
0.0251755
0.0250051
0.0248177
0.024625
0.0244554
0.0243737
0.0245376
0.0253978
0.0287831
0.0516475
0.0258788
0.0258549
0.025821
0.0257762
0.0257187
0.0256469
0.0255587
0.025452
0.0253247
0.0251756
0.0250052
0.0248178
0.0246251
0.0244555
0.0243738
0.0245376
0.0253979
0.0287832
0.0516477
0.0258789
0.025855
0.0258212
0.0257763
0.0257188
0.025647
0.0255588
0.0254521
0.0253248
0.0251757
0.0250053
0.0248178
0.0246252
0.0244556
0.0243738
0.0245377
0.0253979
0.0287832
0.0516479
0.025879
0.0258551
0.0258213
0.0257764
0.0257189
0.0256471
0.0255589
0.0254521
0.0253249
0.0251758
0.0250054
0.0248179
0.0246252
0.0244556
0.0243738
0.0245377
0.0253979
0.0287832
0.051648
0.0258791
0.0258552
0.0258213
0.0257765
0.025719
0.0256472
0.025559
0.0254522
0.0253249
0.0251758
0.0250054
0.0248179
0.0246253
0.0244556
0.0243739
0.0245377
0.0253979
0.0287833
0.051648
0.0258791
0.0258552
0.0258214
0.0257765
0.025719
0.0256472
0.025559
0.0254522
0.0253249
0.0251758
0.0250054
0.0248179
0.0246253
0.0244557
0.0243739
0.0245377
0.0253979
0.0287833
0.0516481
0.0258791
0.0258552
0.0258214
0.0257765
0.025719
0.0256472
0.025559
0.0254522
0.0253249
0.0251759
0.0250055
0.024818
0.0246253
0.0244557
0.0243739
0.0245377
0.025398
0.0287833
0.0516481
)
;

boundaryField
{
    leftWall
    {
        type            epsilonWallFunction;
        blending        stepwise;
        value           nonuniform List<scalar> 
50
(
0.00353369
0.00632178
0.0103488
0.0141155
0.017526
0.0206179
0.023438
0.0260239
0.029779
0.0340365
0.0376332
0.0406724
0.0432349
0.0453871
0.0471855
0.0486792
0.0499114
0.0509202
0.0517397
0.0523997
0.0529266
0.0533437
0.0536708
0.0539251
0.054121
0.0542706
0.0543839
0.0544689
0.0545321
0.0545788
0.0546131
0.0546379
0.0546559
0.0546688
0.0546779
0.0546844
0.0546889
0.0546921
0.0546943
0.0546958
0.0546968
0.0546975
0.054698
0.0546983
0.0546986
0.0546987
0.0546988
0.0546989
0.0546989
0.0546989
)
;
    }
    rightWall
    {
        type            epsilonWallFunction;
        blending        stepwise;
        value           nonuniform List<scalar> 
50
(
0.00384288
0.0061832
0.00993426
0.0134666
0.016675
0.0195845
0.0222364
0.0246659
0.0281901
0.0321809
0.0355493
0.0383947
0.0407943
0.0428112
0.0444989
0.0459031
0.0470641
0.0480173
0.0487939
0.0494217
0.0499249
0.0503248
0.0506398
0.0508858
0.0510762
0.0512224
0.0513335
0.0514174
0.0514801
0.0515266
0.0515609
0.0515859
0.0516041
0.0516171
0.0516265
0.0516331
0.0516377
0.051641
0.0516433
0.0516448
0.0516459
0.0516467
0.0516472
0.0516475
0.0516477
0.0516479
0.051648
0.051648
0.0516481
0.0516481
)
;
    }
    lowerWall
    {
        type            epsilonWallFunction;
        blending        stepwise;
        value           nonuniform List<scalar> 
62
(
0.00353369
0.0159172
0.0267505
0.0358303
0.0434966
0.0499852
0.0554601
0.0600407
0.0638173
0.0668576
0.06921
0.0709041
0.0719483
0.072325
0.0719807
0.0708103
0.0686296
0.0651305
0.0598119
0.0518958
0.0403111
0.0240559
0.00437059
0.00437059
0.00878492
0.0154561
0.0222814
0.0295466
0.0384834
0.0533889
0.0924246
0.115261
0.0904774
0.0901834
0.11376
0.00472755
0.008449
0.0146488
0.0210442
0.0279252
0.0365596
0.0511601
0.0877357
0.00472755
0.0261522
0.0429156
0.0541552
0.0613108
0.0656751
0.0680912
0.0690554
0.0688447
0.0676024
0.0653882
0.0622049
0.0580127
0.0527329
0.0462453
0.0383746
0.028861
0.0173219
0.00384288
)
;
    }
    atmosphere
    {
        type            inletOutlet;
        inletValue      uniform 0.1;
        value           nonuniform List<scalar> 
46
(
0.0546989
0.0297376
0.025836
0.0247296
0.0244212
0.0244132
0.0245275
0.024688
0.0248593
0.0250245
0.0251759
0.0253104
0.0254274
0.0255278
0.0256128
0.0256839
0.0257425
0.0257902
0.0258281
0.0258572
0.0258783
0.0258921
0.0258989
0.0258989
0.0258974
0.0258943
0.0258896
0.0258791
0.0258552
0.0258214
0.0257765
0.025719
0.0256472
0.025559
0.0254522
0.0253249
0.0251759
0.0250055
0.024818
0.0246253
0.0244557
0.0243739
0.0245377
0.025398
0.0287833
0.0516481
)
;
    }
    defaultFaces
    {
        type            empty;
    }
}


// ************************************************************************* //
