/*--------------------------------*- C++ -*----------------------------------*\
| =========                 |                                                 |
| \\      /  F ield         | OpenFOAM: The Open Source CFD Toolbox           |
|  \\    /   O peration     | Version:  2406                                  |
|   \\  /    A nd           | Website:  www.openfoam.com                      |
|    \\/     M anipulation  |                                                 |
\*---------------------------------------------------------------------------*/
FoamFile
{
    version     2.0;
    format      ascii;
    arch        "LSB;label=32;scalar=64";
    class       volScalarField;
    location    "1";
    object      k;
}
// * * * * * * * * * * * * * * * * * * * * * * * * * * * * * * * * * * * * * //

dimensions      [0 2 -2 0 0 0 0];

internalField   nonuniform List<scalar> 
2268
(
0.0010559
0.00235331
0.00332946
0.00404842
0.00460984
0.00506041
0.0054263
0.0057239
0.00596419
0.00615474
0.00630074
0.00640543
0.00647027
0.00649473
0.00647579
0.00640686
0.00627585
0.00606161
0.00572754
0.00521045
0.0044024
0.00311921
0.000999113
0.00209238
0.00538363
0.00743516
0.00896736
0.0101711
0.0111394
0.0119264
0.0125666
0.0130834
0.013493
0.0138068
0.0140317
0.014171
0.0142237
0.0141833
0.0140362
0.0137571
0.0133024
0.0125974
0.0115146
0.00983917
0.00721025
0.00262319
0.00290902
0.00714418
0.00966441
0.0115518
0.0130431
0.0142472
0.0152281
0.0160274
0.0166735
0.0171863
0.0175799
0.017863
0.0180396
0.0181088
0.0180631
0.0178863
0.0175489
0.0169998
0.0161526
0.0148595
0.0128655
0.00970049
0.00382624
0.00358016
0.0084944
0.0113138
0.0134182
0.0150873
0.0164398
0.0175445
0.0184465
0.019177
0.0197581
0.0202053
0.0205283
0.0207322
0.0208161
0.0207724
0.0205845
0.0202218
0.0196322
0.0187271
0.0173536
0.0152332
0.0117805
0.00488558
0.00413787
0.0096261
0.0126786
0.0149413
0.0167388
0.0181994
0.0193956
0.0203745
0.021169
0.0218026
0.0222918
0.0226474
0.0228749
0.0229741
0.0229379
0.0227504
0.0223821
0.0217832
0.0208691
0.0194904
0.0173559
0.0137564
0.00589968
0.00461316
0.0106073
0.0138597
0.0162501
0.0181488
0.0196948
0.0209637
0.0220046
0.0228514
0.0235286
0.0240536
0.0244378
0.0246876
0.0248035
0.0247794
0.0246008
0.0242411
0.0236549
0.0227658
0.0214364
0.0193792
0.0157854
0.00703946
0.00502665
0.0114729
0.0149044
0.0174049
0.0193882
0.021005
0.0223347
0.0234278
0.0243193
0.0250344
0.0255913
0.0260021
0.0262737
0.0264078
0.0263997
0.0262369
0.0258964
0.0253392
0.0245
0.0232612
0.0213662
0.0180006
0.00876086
0.00539176
0.0122448
0.0158401
0.018439
0.0204962
0.0221741
0.0235563
0.0246949
0.0256258
0.026375
0.0269611
0.0273971
0.0276907
0.0278446
0.0278556
0.027714
0.0274007
0.0268843
0.0261122
0.0249924
0.023328
0.0204909
0.0126373
0.00105224
0.00329665
0.00458788
0.00535755
0.00581888
0.00609054
0.00623733
0.00629411
0.0062791
0.00620095
0.00606225
0.0058612
0.00559207
0.00524464
0.00480241
0.00423813
0.0035025
0.00248987
0.00114072
0.00274017
0.00756271
0.0102159
0.0118159
0.0127845
0.013359
0.0136709
0.0137917
0.0137591
0.0135912
0.013293
0.0128608
0.0122819
0.0115345
0.0105837
0.00937248
0.0078013
0.00566473
0.00221088
0.00395809
0.0101157
0.0133021
0.0152059
0.016363
0.0170527
0.0174271
0.0175692
0.0175231
0.0173096
0.0169348
0.0163933
0.0156698
0.0147373
0.0135535
0.0120506
0.0101112
0.00748347
0.00303583
0.0050424
0.0122276
0.0156836
0.0177029
0.0189306
0.0196653
0.0200632
0.0202089
0.0201474
0.0199002
0.0194727
0.0188586
0.0180406
0.016989
0.0156575
0.0139728
0.0118073
0.00886828
0.00372103
0.00609205
0.0142214
0.0177928
0.0198168
0.0210463
0.0217847
0.0221823
0.0223196
0.0222396
0.0219623
0.0214921
0.0208215
0.0199317
0.0187912
0.0173512
0.0155345
0.0132047
0.0100261
0.00429303
0.0072943
0.0162515
0.0197794
0.0217208
0.0229026
0.0236153
0.0239953
0.0241151
0.024013
0.0237066
0.0231987
0.0224805
0.0215318
0.0203197
0.0187936
0.0168729
0.0144112
0.0110293
0.00478098
0.00913091
0.0184351
0.0217062
0.0234886
0.0245859
0.0252513
0.0256007
0.0256954
0.0255679
0.0252324
0.0246896
0.0239292
0.0229299
0.0216573
0.0200592
0.0180517
0.0154775
0.0119146
0.00520537
0.0130894
0.0208348
0.0235872
0.0251526
0.0261401
0.0267431
0.0270521
0.0271158
0.02696
0.0265948
0.0260188
0.0252198
0.0241754
0.0228501
0.0211896
0.0191065
0.0164323
0.0127043
0.00557989
0.00590162
0.0133293
0.0171607
0.0199002
0.022061
0.0238237
0.0252786
0.0264805
0.027467
0.0282649
0.0288939
0.029368
0.0296962
0.029883
0.0299281
0.029826
0.0295646
0.0291242
0.0284732
0.0275605
0.0262918
0.0244483
0.0213481
0.00645569
0.0145196
0.018623
0.0215262
0.0238059
0.0256643
0.0272009
0.0284747
0.0295253
0.0303812
0.0310632
0.0315869
0.0319632
0.0321993
0.0322987
0.0322615
0.0320846
0.0317616
0.0312835
0.0306382
0.0298096
0.0287718
0.0274815
0.00690707
0.0154943
0.0198291
0.0228751
0.0252591
0.0272015
0.0288097
0.0301469
0.0312549
0.0321637
0.0328956
0.0334676
0.0338924
0.0341798
0.0343365
0.0343674
0.034276
0.0340656
0.0337405
0.033309
0.0327865
0.0322023
0.0316155
0.00727837
0.0162989
0.0208308
0.0240017
0.0264784
0.028496
0.0301688
0.0315635
0.0327242
0.0336824
0.0344617
0.0350805
0.0355532
0.0358915
0.036105
0.036202
0.0361904
0.0360791
0.0358791
0.0356064
0.0352839
0.0349455
0.0346406
0.00758521
0.0169657
0.0216654
0.0249453
0.0275046
0.0295901
0.0313218
0.0327695
0.0339792
0.0349838
0.0358081
0.0364719
0.0369908
0.0373783
0.0376458
0.037804
0.0378635
0.0378358
0.0377347
0.0375772
0.0373852
0.0371858
0.0370111
0.00783908
0.017519
0.0223613
0.0257361
0.0283689
0.0305159
0.0323015
0.0337981
0.0350534
0.0361016
0.0369686
0.037675
0.0382378
0.0386715
0.038989
0.0392024
0.0393237
0.0393654
0.0393417
0.0392685
0.0391643
0.0390492
0.0389441
0.0080489
0.0179775
0.0229409
0.0263982
0.0290962
0.0312987
0.0331335
0.0346753
0.0359731
0.037062
0.0379691
0.0387156
0.0393194
0.0397959
0.0401589
0.0404213
0.0405955
0.0406945
0.0407317
0.0407213
0.0406786
0.0406187
0.0405556
0.00822182
0.0183566
0.0234224
0.0269512
0.0297069
0.0319592
0.0338389
0.0354222
0.0367592
0.0378861
0.0388304
0.0396142
0.0402559
0.0407716
0.0411755
0.0414809
0.0417005
0.0418469
0.0419325
0.0419701
0.0419722
0.0419506
0.0419155
0.00836372
0.0186688
0.0238212
0.0274116
0.0302181
0.032515
0.0344353
0.0360565
0.0374296
0.0385915
0.0395702
0.0403883
0.0410647
0.0416158
0.0420563
0.0423993
0.0426577
0.0428434
0.0429682
0.0430433
0.0430793
0.0430857
0.0430703
0.00847955
0.0189247
0.0241498
0.0277932
0.0306442
0.0329808
0.0349376
0.0365933
0.0379994
0.0391933
0.0402035
0.0410529
0.0417609
0.0423438
0.0428166
0.0431926
0.0434841
0.0437028
0.0438595
0.0439645
0.0440268
0.0440545
0.0440538
0.00857351
0.0191332
0.0244194
0.0281081
0.0309979
0.0333695
0.0353591
0.0370457
0.0384817
0.0397047
0.0407435
0.0416213
0.0423576
0.0429691
0.0434704
0.043875
0.044195
0.0444414
0.0446245
0.0447536
0.0448369
0.0448812
0.0448917
0.00864922
0.0193022
0.0246391
0.0283665
0.0312899
0.0336923
0.0357108
0.0374252
0.038888
0.0401372
0.0412018
0.0421051
0.0428668
0.0435035
0.0440301
0.0444596
0.0448039
0.0450738
0.0452789
0.0454278
0.0455281
0.0455856
0.0456048
0.00870976
0.0194381
0.0248171
0.0285773
0.0315295
0.0339589
0.0360029
0.0377419
0.0392286
0.0405012
0.0415888
0.0425149
0.0432991
0.0439582
0.0445068
0.0449579
0.0453231
0.0456129
0.0458364
0.0460018
0.0461159
0.0461841
0.0462103
0.0087578
0.0195467
0.0249604
0.0287481
0.0317251
0.0341777
0.036244
0.0380046
0.0395125
0.0408058
0.0419138
0.0428601
0.0436642
0.0443429
0.0449107
0.0453805
0.0457637
0.0460704
0.0463094
0.0464885
0.046614
0.0466909
0.0467229
0.00879562
0.0196327
0.0250749
0.0288856
0.0318836
0.0343561
0.0364418
0.0382213
0.0397477
0.0410592
0.0421852
0.0431492
0.0439707
0.0446665
0.045251
0.045737
0.0461355
0.0464566
0.0467087
0.0468993
0.0470342
0.0471183
0.0471549
0.00882513
0.0197004
0.0251657
0.0289955
0.0320112
0.0345008
0.0366031
0.0383989
0.0399414
0.0412688
0.0424104
0.0433898
0.0442265
0.0449372
0.0455361
0.0460359
0.0464476
0.0467809
0.0470441
0.0472442
0.047387
0.0474771
0.0475175
0.00884798
0.0197533
0.0252372
0.0290827
0.0321132
0.0346172
0.0367337
0.0385435
0.0400998
0.0414409
0.0425961
0.0435888
0.0444386
0.0451621
0.0457734
0.0462851
0.046708
0.0470516
0.0473241
0.0475322
0.0476817
0.0477767
0.0478201
0.00886552
0.0197942
0.025293
0.0291514
0.0321942
0.0347102
0.0368386
0.0386603
0.0402285
0.0415813
0.0427481
0.0437523
0.0446133
0.0453477
0.0459697
0.0464914
0.0469239
0.0472762
0.0475565
0.0477714
0.0479263
0.0480254
0.0480714
0.00887888
0.0198256
0.0253363
0.0292051
0.032258
0.034784
0.0369225
0.0387542
0.0403323
0.0416951
0.0428717
0.0438857
0.0447563
0.0455
0.0461309
0.0466612
0.0471017
0.0474614
0.0477482
0.0479687
0.0481282
0.0482307
0.0482788
0.00888896
0.0198496
0.0253696
0.0292468
0.0323079
0.0348422
0.0369889
0.0388289
0.0404154
0.0417866
0.0429716
0.0439937
0.0448724
0.045624
0.0462624
0.0468
0.0472471
0.047613
0.0479053
0.0481305
0.0482938
0.048399
0.0484489
0.00889651
0.0198677
0.0253951
0.029279
0.0323467
0.0348876
0.0370412
0.0388881
0.0404816
0.0418597
0.0430516
0.0440806
0.0449661
0.0457242
0.046369
0.0469126
0.0473653
0.0477363
0.0480332
0.0482622
0.0484286
0.0485362
0.0485875
0.00890212
0.0198813
0.0254144
0.0293035
0.0323765
0.0349229
0.037082
0.0389346
0.0405337
0.0419176
0.0431153
0.04415
0.0450411
0.0458047
0.0464547
0.0470033
0.0474607
0.0478359
0.0481365
0.0483688
0.0485377
0.0486472
0.0486996
0.00890626
0.0198914
0.0254289
0.0293222
0.0323994
0.0349501
0.0371136
0.0389708
0.0405746
0.0419632
0.0431656
0.044205
0.0451007
0.0458688
0.0465232
0.0470758
0.0475371
0.0479158
0.0482194
0.0484543
0.0486254
0.0487364
0.0487898
0.00890929
0.0198989
0.0254397
0.0293362
0.0324167
0.0349709
0.037138
0.0389988
0.0406064
0.0419988
0.043205
0.0442483
0.0451477
0.0459195
0.0465774
0.0471334
0.0475978
0.0479793
0.0482855
0.0485225
0.0486953
0.0488076
0.0488617
0.00891149
0.0199044
0.0254477
0.0293467
0.0324298
0.0349867
0.0371566
0.0390204
0.040631
0.0420264
0.0432357
0.0442821
0.0451846
0.0459593
0.0466201
0.0471788
0.0476457
0.0480296
0.0483378
0.0485765
0.0487507
0.0488639
0.0489187
0.00891308
0.0199084
0.0254536
0.0293545
0.0324396
0.0349986
0.0371707
0.0390368
0.0406498
0.0420477
0.0432595
0.0443083
0.0452132
0.0459903
0.0466534
0.0472143
0.0476833
0.048069
0.0483788
0.0486189
0.0487942
0.0489083
0.0489635
0.00891421
0.0199113
0.025458
0.0293603
0.0324468
0.0350075
0.0371813
0.0390492
0.0406641
0.0420639
0.0432777
0.0443284
0.0452353
0.0460143
0.0466793
0.0472419
0.0477125
0.0480996
0.0484108
0.048652
0.0488282
0.0489429
0.0489985
0.00891502
0.0199134
0.0254611
0.0293645
0.0324522
0.0350141
0.0371893
0.0390586
0.0406749
0.0420762
0.0432915
0.0443438
0.0452522
0.0460328
0.0466992
0.0472632
0.047735
0.0481234
0.0484356
0.0486777
0.0488545
0.0489697
0.0490256
0.00891559
0.0199149
0.0254634
0.0293675
0.0324562
0.035019
0.0371952
0.0390656
0.040683
0.0420855
0.043302
0.0443555
0.0452651
0.0460468
0.0467144
0.0472795
0.0477523
0.0481416
0.0484546
0.0486973
0.0488747
0.0489903
0.0490465
0.00891599
0.0199159
0.025465
0.0293697
0.032459
0.0350225
0.0371995
0.0390707
0.0406891
0.0420924
0.0433098
0.0443643
0.0452748
0.0460575
0.0467259
0.0472918
0.0477655
0.0481554
0.0484691
0.0487124
0.0488902
0.0490061
0.0490624
0.00891627
0.0199167
0.0254661
0.0293713
0.0324611
0.0350251
0.0372027
0.0390745
0.0406935
0.0420976
0.0433157
0.0443708
0.0452821
0.0460654
0.0467345
0.0473011
0.0477754
0.0481659
0.04848
0.0487238
0.0489019
0.049018
0.0490745
0.00891647
0.0199172
0.0254669
0.0293725
0.0324626
0.035027
0.037205
0.0390773
0.0406968
0.0421014
0.04332
0.0443757
0.0452875
0.0460714
0.046741
0.0473081
0.0477828
0.0481738
0.0484883
0.0487323
0.0489107
0.049027
0.0490836
0.0089166
0.0199176
0.0254675
0.0293733
0.0324636
0.0350284
0.0372067
0.0390793
0.0406992
0.0421042
0.0433232
0.0443793
0.0452915
0.0460758
0.0467458
0.0473133
0.0477884
0.0481796
0.0484944
0.0487387
0.0489173
0.0490338
0.0490904
0.00891669
0.0199178
0.0254679
0.0293738
0.0324644
0.0350293
0.0372079
0.0390808
0.0407009
0.0421062
0.0433255
0.0443819
0.0452945
0.0460791
0.0467494
0.0473171
0.0477925
0.048184
0.048499
0.0487434
0.0489222
0.0490387
0.0490955
0.00891676
0.019918
0.0254682
0.0293742
0.0324649
0.03503
0.0372088
0.0390818
0.0407022
0.0421076
0.0433272
0.0443839
0.0452966
0.0460814
0.046752
0.0473199
0.0477955
0.0481872
0.0485023
0.0487469
0.0489258
0.0490424
0.0490992
0.0089168
0.0199181
0.0254684
0.0293745
0.0324653
0.0350305
0.0372094
0.0390826
0.040703
0.0421087
0.0433284
0.0443852
0.0452981
0.0460831
0.0467538
0.047322
0.0477977
0.0481895
0.0485047
0.0487495
0.0489284
0.0490451
0.0491019
0.00891683
0.0199182
0.0254685
0.0293747
0.0324656
0.0350308
0.0372098
0.0390831
0.0407037
0.0421094
0.0433293
0.0443862
0.0452992
0.0460844
0.0467552
0.0473234
0.0477992
0.0481912
0.0485065
0.0487513
0.0489303
0.049047
0.0491038
0.00891685
0.0199182
0.0254686
0.0293748
0.0324657
0.0350311
0.0372101
0.0390835
0.0407041
0.0421099
0.0433299
0.0443869
0.0453
0.0460852
0.0467561
0.0473245
0.0478003
0.0481923
0.0485077
0.0487526
0.0489316
0.0490483
0.0491052
0.00891686
0.0199183
0.0254687
0.0293749
0.0324659
0.0350312
0.0372103
0.0390837
0.0407044
0.0421103
0.0433303
0.0443874
0.0453006
0.0460858
0.0467568
0.0473252
0.0478011
0.0481932
0.0485086
0.0487535
0.0489325
0.0490493
0.0491061
0.00891687
0.0199183
0.0254687
0.029375
0.0324659
0.0350313
0.0372104
0.0390839
0.0407046
0.0421105
0.0433306
0.0443877
0.0453009
0.0460862
0.0467572
0.0473257
0.0478016
0.0481937
0.0485092
0.0487541
0.0489331
0.0490499
0.0491067
0.00891687
0.0199183
0.0254687
0.029375
0.032466
0.0350314
0.0372105
0.039084
0.0407047
0.0421107
0.0433307
0.0443879
0.0453011
0.0460865
0.0467575
0.047326
0.0478019
0.048194
0.0485095
0.0487544
0.0489335
0.0490503
0.0491071
0.00891687
0.0199183
0.0254687
0.029375
0.032466
0.0350314
0.0372105
0.039084
0.0407048
0.0421107
0.0433308
0.044388
0.0453012
0.0460866
0.0467576
0.0473261
0.0478021
0.0481942
0.0485097
0.0487546
0.0489337
0.0490505
0.0491073
0.0147023
0.012514
0.0124863
0.0145722
0.026355
0.0258889
0.0258666
0.0262885
0.0312821
0.0311472
0.0311278
0.0312245
0.0344909
0.03443
0.0344109
0.0344338
0.036925
0.0368869
0.0368675
0.0368668
0.0388872
0.0388587
0.0388388
0.0388274
0.040515
0.0404916
0.040471
0.0404534
0.0418851
0.0418647
0.0418435
0.0418216
0.0430468
0.0430284
0.0430066
0.0429815
0.0440352
0.0440181
0.0439958
0.0439681
0.0448768
0.0448606
0.0448377
0.044808
0.0455928
0.0455772
0.0455538
0.0455223
0.0462005
0.0461854
0.0461614
0.0461285
0.0467147
0.0466999
0.0466755
0.0466414
0.0471481
0.0471336
0.0471088
0.0470736
0.0475118
0.0474974
0.0474722
0.0474361
0.0478153
0.0478011
0.0477756
0.0477387
0.0480673
0.0480531
0.0480273
0.0479898
0.0482753
0.0482611
0.0482351
0.048197
0.0484458
0.0484317
0.0484054
0.0483668
0.0485847
0.0485707
0.0485442
0.0485052
0.0486972
0.0486831
0.0486565
0.0486172
0.0487875
0.0487735
0.0487467
0.0487071
0.0488597
0.0488456
0.0488187
0.0487789
0.0489168
0.0489027
0.0488757
0.0488357
0.0489617
0.0489477
0.0489206
0.0488804
0.0489968
0.0489827
0.0489556
0.0489153
0.049024
0.0490099
0.0489827
0.0489423
0.0490449
0.0490308
0.0490036
0.0489631
0.0490609
0.0490468
0.0490196
0.048979
0.049073
0.0490589
0.0490316
0.048991
0.0490821
0.0490681
0.0490407
0.0490001
0.0490889
0.0490749
0.0490475
0.0490069
0.049094
0.0490799
0.0490526
0.0490119
0.0490977
0.0490836
0.0490563
0.0490156
0.0491004
0.0490863
0.049059
0.0490182
0.0491024
0.0490883
0.0490609
0.0490202
0.0491037
0.0490896
0.0490623
0.0490215
0.0491047
0.0490906
0.0490632
0.0490225
0.0491053
0.0490912
0.0490638
0.0490231
0.0491057
0.0490916
0.0490642
0.0490234
0.0491058
0.0490917
0.0490643
0.0490236
0.0214823
0.0246006
0.026414
0.0276092
0.0284047
0.028895
0.02913
0.0291384
0.0289345
0.0285222
0.0278957
0.0270405
0.025932
0.0245327
0.0227856
0.0205967
0.0177802
0.0138142
0.00610254
0.0274394
0.0287568
0.0297782
0.030547
0.0310864
0.0314112
0.0315315
0.0314531
0.0311768
0.0306981
0.0300056
0.0290811
0.0278969
0.0264125
0.0245667
0.0222565
0.0192744
0.0150331
0.00667005
0.0315226
0.0320951
0.0326477
0.0331054
0.0334307
0.033603
0.0336101
0.033443
0.0330925
0.0325469
0.0317902
0.0308005
0.0295472
0.0279869
0.0260536
0.0236363
0.020509
0.0160321
0.00713214
0.0345316
0.0347892
0.0350732
0.0353171
0.0354756
0.0355176
0.0354214
0.0351697
0.0347467
0.0341358
0.0333171
0.0322655
0.0309479
0.0293178
0.0273052
0.0247918
0.0215364
0.0168576
0.00751225
0.0368941
0.0370002
0.0371252
0.0372229
0.0372544
0.0371892
0.0370024
0.0366731
0.0361818
0.0355086
0.0346307
0.0335206
0.0321427
0.0304479
0.0283627
0.0257628
0.0223944
0.0175426
0.00782652
0.0388213
0.0388435
0.0388682
0.0388634
0.0387985
0.0386459
0.0383813
0.0379826
0.0374285
0.036697
0.0357633
0.0345981
0.0331638
0.031409
0.0292574
0.0265795
0.0231118
0.018112
0.0080868
0.0404277
0.0403975
0.0403544
0.0402754
0.0401361
0.0399124
0.0395817
0.0391217
0.0385107
0.0377254
0.0367398
0.0355231
0.0340363
0.0322262
0.0300139
0.0272661
0.0237112
0.018585
0.00830223
0.0417828
0.0417166
0.0416251
0.0414904
0.0412926
0.0410108
0.0406238
0.0401102
0.0394482
0.0386138
0.0375804
0.0363161
0.0347808
0.0329199
0.0306525
0.0278421
0.0242111
0.0189771
0.00848012
0.0429331
0.0428406
0.0427127
0.042535
0.0422904
0.0419605
0.0415256
0.0409653
0.0402578
0.0393791
0.038302
0.0369941
0.0354143
0.0335071
0.0311899
0.028324
0.0246267
0.0193011
0.00862644
0.0439123
0.0437996
0.0436435
0.0434315
0.0431489
0.0427789
0.0423033
0.0417022
0.0409544
0.0400359
0.0389194
0.0375718
0.0359516
0.0340024
0.0316407
0.0287257
0.0249708
0.0195676
0.0087462
0.0447463
0.0446176
0.0444389
0.0441993
0.0438853
0.0434816
0.0429711
0.0423346
0.0415513
0.0405973
0.0394453
0.0380619
0.0364053
0.0344185
0.032017
0.0290589
0.0252544
0.0197858
0.00884367
0.0454558
0.0453142
0.0451171
0.0448547
0.0445146
0.0440825
0.043542
0.0428749
0.0420603
0.0410749
0.0398912
0.0384758
0.0367866
0.0347663
0.0323297
0.0293339
0.0254868
0.0199632
0.00892247
0.046058
0.0459058
0.0456935
0.0454122
0.0450502
0.044594
0.0440279
0.043334
0.0424922
0.0414791
0.0402673
0.0388235
0.0371054
0.0350554
0.0325881
0.0295596
0.0256761
0.0201067
0.00898573
0.0465675
0.0464064
0.0461815
0.0458843
0.0455039
0.0450272
0.0444391
0.0437222
0.0428566
0.0418192
0.0405827
0.0391139
0.0373704
0.0352944
0.0328003
0.0297437
0.0258294
0.0202219
0.00903613
0.0469969
0.0468283
0.0465929
0.0462824
0.0458863
0.0453922
0.0447852
0.0440485
0.0431622
0.0421037
0.0408457
0.039355
0.0375893
0.0354907
0.0329735
0.0298928
0.0259526
0.0203136
0.00907596
0.047357
0.0471822
0.0469379
0.0466162
0.0462069
0.045698
0.0450749
0.0443211
0.0434171
0.0423402
0.0410635
0.0395539
0.037769
0.035651
0.0331139
0.0300129
0.0260509
0.0203862
0.0091072
0.0476575
0.0474775
0.0472257
0.0468946
0.0464742
0.0459526
0.0453159
0.0445474
0.0436282
0.0425356
0.0412428
0.0397169
0.0379155
0.0357808
0.033227
0.0301087
0.0261288
0.0204432
0.00913149
0.0479069
0.0477224
0.0474644
0.0471253
0.0466955
0.0461634
0.045515
0.0447341
0.0438019
0.0426959
0.0413894
0.0398496
0.0380341
0.0358853
0.0333173
0.0301848
0.02619
0.0204876
0.00915023
0.0481126
0.0479245
0.0476612
0.0473154
0.0468777
0.0463366
0.0456784
0.0448871
0.0439438
0.0428264
0.0415083
0.0399567
0.0381294
0.0359688
0.033389
0.0302447
0.0262378
0.0205219
0.00916456
0.0482812
0.04809
0.0478224
0.047471
0.0470267
0.0464781
0.0458117
0.0450115
0.044059
0.0429321
0.0416042
0.0400427
0.0382055
0.0360351
0.0334455
0.0302915
0.0262748
0.0205482
0.00917543
0.0484186
0.0482248
0.0479535
0.0475975
0.0471477
0.0465928
0.0459195
0.045112
0.0441518
0.0430169
0.0416809
0.0401112
0.0382658
0.0360872
0.0334897
0.0303278
0.0263032
0.0205681
0.00918362
0.0485297
0.0483337
0.0480594
0.0476996
0.0472452
0.0466852
0.0460062
0.0451926
0.044226
0.0430845
0.0417418
0.0401653
0.0383132
0.036128
0.0335239
0.0303557
0.0263249
0.0205832
0.00918972
0.0486189
0.0484212
0.0481444
0.0477814
0.0473233
0.0467591
0.0460754
0.0452568
0.0442849
0.043138
0.0417897
0.0402078
0.0383502
0.0361596
0.0335503
0.030377
0.0263414
0.0205945
0.00919425
0.0486901
0.0484909
0.0482121
0.0478466
0.0473854
0.0468177
0.0461302
0.0453075
0.0443313
0.04318
0.0418273
0.0402408
0.0383788
0.0361839
0.0335705
0.0303932
0.0263537
0.0206029
0.00919758
0.0487465
0.0485461
0.0482656
0.047898
0.0474344
0.0468638
0.0461733
0.0453473
0.0443676
0.0432127
0.0418564
0.0402664
0.0384008
0.0362025
0.0335858
0.0304054
0.0263629
0.0206091
0.0092
0.0487908
0.0485895
0.0483077
0.0479384
0.0474727
0.0468999
0.0462069
0.0453782
0.0443958
0.043238
0.0418789
0.040286
0.0384176
0.0362166
0.0335973
0.0304145
0.0263697
0.0206137
0.00920176
0.0488253
0.0486233
0.0483404
0.0479698
0.0475026
0.0469279
0.0462329
0.0454021
0.0444175
0.0432575
0.041896
0.0403009
0.0384304
0.0362272
0.0336059
0.0304212
0.0263747
0.020617
0.00920303
0.0488521
0.0486495
0.0483657
0.047994
0.0475256
0.0469495
0.0462529
0.0454205
0.0444341
0.0432723
0.0419091
0.0403122
0.0384399
0.0362352
0.0336123
0.0304262
0.0263783
0.0206193
0.00920393
0.0488727
0.0486696
0.0483852
0.0480127
0.0475432
0.046966
0.0462682
0.0454344
0.0444467
0.0432835
0.0419189
0.0403206
0.0384471
0.0362411
0.033617
0.0304298
0.026381
0.020621
0.00920457
0.0488885
0.048685
0.0484
0.0480268
0.0475566
0.0469785
0.0462798
0.045445
0.0444562
0.0432919
0.0419263
0.0403269
0.0384524
0.0362454
0.0336205
0.0304325
0.0263829
0.0206223
0.00920502
0.0489004
0.0486966
0.0484113
0.0480376
0.0475667
0.046988
0.0462885
0.0454529
0.0444633
0.0432982
0.0419317
0.0403316
0.0384563
0.0362486
0.033623
0.0304344
0.0263843
0.0206231
0.00920534
0.0489093
0.0487053
0.0484197
0.0480456
0.0475743
0.046995
0.046295
0.0454588
0.0444686
0.0433029
0.0419357
0.040335
0.0384591
0.0362509
0.0336248
0.0304358
0.0263852
0.0206237
0.00920556
0.048916
0.0487119
0.048426
0.0480516
0.0475799
0.0470003
0.0462998
0.0454632
0.0444725
0.0433063
0.0419387
0.0403375
0.0384612
0.0362525
0.0336261
0.0304367
0.0263859
0.0206242
0.00920571
0.048921
0.0487167
0.0484306
0.048056
0.0475841
0.0470041
0.0463033
0.0454664
0.0444753
0.0433088
0.0419408
0.0403393
0.0384627
0.0362537
0.033627
0.0304374
0.0263864
0.0206245
0.00920581
0.0489246
0.0487202
0.0484341
0.0480593
0.0475871
0.047007
0.0463059
0.0454687
0.0444774
0.0433106
0.0419424
0.0403406
0.0384637
0.0362546
0.0336277
0.0304379
0.0263867
0.0206247
0.00920588
0.0489273
0.0487228
0.0484365
0.0480616
0.0475894
0.047009
0.0463078
0.0454704
0.0444789
0.0433119
0.0419435
0.0403416
0.0384645
0.0362552
0.0336282
0.0304382
0.026387
0.0206248
0.00920593
0.0489292
0.0487247
0.0484383
0.0480633
0.047591
0.0470105
0.0463091
0.0454716
0.04448
0.0433128
0.0419443
0.0403422
0.038465
0.0362556
0.0336285
0.0304385
0.0263871
0.0206249
0.00920596
0.0489305
0.048726
0.0484396
0.0480645
0.0475921
0.0470115
0.0463101
0.0454724
0.0444807
0.0433135
0.0419448
0.0403427
0.0384654
0.0362559
0.0336287
0.0304386
0.0263872
0.020625
0.00920599
0.0489315
0.0487269
0.0484405
0.0480654
0.0475929
0.0470123
0.0463107
0.045473
0.0444812
0.0433139
0.0419452
0.040343
0.0384656
0.0362561
0.0336288
0.0304387
0.0263873
0.020625
0.009206
0.0489321
0.0487275
0.048441
0.0480659
0.0475934
0.0470127
0.0463111
0.0454734
0.0444816
0.0433142
0.0419455
0.0403432
0.0384658
0.0362562
0.0336289
0.0304388
0.0263873
0.020625
0.00920601
0.0489324
0.0487279
0.0484414
0.0480662
0.0475937
0.047013
0.0463114
0.0454737
0.0444818
0.0433144
0.0419456
0.0403433
0.0384659
0.0362563
0.033629
0.0304388
0.0263874
0.020625
0.00920602
0.0489326
0.048728
0.0484416
0.0480664
0.0475938
0.0470132
0.0463115
0.0454738
0.0444819
0.0433145
0.0419457
0.0403434
0.038466
0.0362563
0.033629
0.0304389
0.0263874
0.020625
0.00920602
)
;

boundaryField
{
    leftWall
    {
        type            kqRWallFunction;
        value           nonuniform List<scalar> 
50
(
0.0010559
0.00209238
0.00290902
0.00358016
0.00413787
0.00461316
0.00502665
0.00539176
0.00590162
0.00645569
0.00690707
0.00727837
0.00758521
0.00783908
0.0080489
0.00822182
0.00836372
0.00847955
0.00857351
0.00864922
0.00870976
0.0087578
0.00879562
0.00882513
0.00884798
0.00886552
0.00887888
0.00888896
0.00889651
0.00890212
0.00890626
0.00890929
0.00891149
0.00891308
0.00891421
0.00891502
0.00891559
0.00891599
0.00891627
0.00891647
0.0089166
0.00891669
0.00891676
0.0089168
0.00891683
0.00891685
0.00891686
0.00891687
0.00891687
0.00891687
)
;
    }
    rightWall
    {
        type            kqRWallFunction;
        value           nonuniform List<scalar> 
50
(
0.00114072
0.00221088
0.00303583
0.00372103
0.00429303
0.00478098
0.00520537
0.00557989
0.00610254
0.00667005
0.00713214
0.00751225
0.00782652
0.0080868
0.00830223
0.00848012
0.00862644
0.0087462
0.00884367
0.00892247
0.00898573
0.00903613
0.00907596
0.0091072
0.00913149
0.00915023
0.00916456
0.00917543
0.00918362
0.00918972
0.00919425
0.00919758
0.0092
0.00920176
0.00920303
0.00920393
0.00920457
0.00920502
0.00920534
0.00920556
0.00920571
0.00920581
0.00920588
0.00920593
0.00920596
0.00920599
0.009206
0.00920601
0.00920602
0.00920602
)
;
    }
    lowerWall
    {
        type            kqRWallFunction;
        value           nonuniform List<scalar> 
62
(
0.0010559
0.00235331
0.00332946
0.00404842
0.00460984
0.00506041
0.0054263
0.0057239
0.00596419
0.00615474
0.00630074
0.00640543
0.00647027
0.00649473
0.00647579
0.00640686
0.00627585
0.00606161
0.00572754
0.00521045
0.0044024
0.00311921
0.000999113
0.000999113
0.00262319
0.00382624
0.00488558
0.00589968
0.00703946
0.00876086
0.0126373
0.0147023
0.012514
0.0124863
0.0145722
0.00105224
0.00274017
0.00395809
0.0050424
0.00609205
0.0072943
0.00913091
0.0130894
0.00105224
0.00329665
0.00458788
0.00535755
0.00581888
0.00609054
0.00623733
0.00629411
0.0062791
0.00620095
0.00606225
0.0058612
0.00559207
0.00524464
0.00480241
0.00423813
0.0035025
0.00248987
0.00114072
)
;
    }
    atmosphere
    {
        type            inletOutlet;
        inletValue      uniform 0.1;
        value           nonuniform List<scalar> 
46
(
0.00891687
0.0199183
0.0254687
0.029375
0.032466
0.0350314
0.0372105
0.039084
0.0407048
0.0421107
0.0433308
0.044388
0.0453012
0.0460866
0.0467576
0.0473261
0.0478021
0.0481942
0.0485097
0.0487546
0.0489337
0.0490505
0.0491073
0.0491058
0.0490917
0.0490643
0.0490236
0.0489326
0.048728
0.0484416
0.0480664
0.0475938
0.0470132
0.0463115
0.0454738
0.0444819
0.0433145
0.0419457
0.0403434
0.038466
0.0362563
0.033629
0.0304389
0.0263874
0.020625
0.00920602
)
;
    }
    defaultFaces
    {
        type            empty;
    }
}


// ************************************************************************* //
