/*--------------------------------*- C++ -*----------------------------------*\
| =========                 |                                                 |
| \\      /  F ield         | OpenFOAM: The Open Source CFD Toolbox           |
|  \\    /   O peration     | Version:  2406                                  |
|   \\  /    A nd           | Website:  www.openfoam.com                      |
|    \\/     M anipulation  |                                                 |
\*---------------------------------------------------------------------------*/
FoamFile
{
    version     2.0;
    format      ascii;
    arch        "LSB;label=32;scalar=64";
    class       volScalarField;
    location    "1";
    object      k;
}
// * * * * * * * * * * * * * * * * * * * * * * * * * * * * * * * * * * * * * //

dimensions      [0 2 -2 0 0 0 0];

internalField   nonuniform List<scalar> 
2268
(
0.1
0.1
0.1
0.1
0.1
0.1
0.1
0.1
0.1
0.1
0.1
0.1
0.1
0.00718677
0.00179066
0.00246396
0.00293996
0.00320293
0.00328895
0.0031862
0.00284067
0.00213754
0.000804301
0.1
0.1
0.1
0.1
0.1
0.1
0.1
0.1
0.1
0.1
0.1
0.1
0.1
0.00520995
0.00392528
0.00557468
0.00658428
0.00715509
0.00734445
0.00712434
0.00638409
0.00489664
0.00194364
0.1
0.1
0.1
0.1
0.1
0.1
0.1
0.1
0.1
0.1
0.1
0.1
0.1
0.00534948
0.00531779
0.00733775
0.00858244
0.00930082
0.00955058
0.00929468
0.00839816
0.00656782
0.00271652
0.1
0.1
0.1
0.1
0.1
0.1
0.1
0.1
0.1
0.1
0.1
0.1
0.1
0.00580994
0.00643116
0.00869193
0.0100923
0.0109157
0.0112218
0.0109692
0.0100061
0.00796707
0.00338236
0.1
0.1
0.1
0.1
0.1
0.1
0.1
0.1
0.1
0.1
0.1
0.1
0.1
0.00630819
0.00738574
0.00984574
0.0113751
0.0122907
0.0126598
0.012442
0.011474
0.00931066
0.0040288
0.1
0.1
0.1
0.1
0.1
0.1
0.1
0.1
0.1
0.1
0.1
0.1
0.1
0.00681801
0.00823821
0.0108741
0.0125208
0.0135254
0.0139674
0.013814
0.0129016
0.0107174
0.00478721
0.1
0.1
0.1
0.1
0.1
0.1
0.1
0.1
0.1
0.1
0.1
0.1
0.1
0.00733792
0.00902095
0.0118138
0.0135701
0.0146634
0.0151886
0.0151272
0.0143347
0.0122892
0.00598692
0.1
0.1
0.1
0.1
0.1
0.1
0.1
0.1
0.1
0.1
0.1
0.1
0.1
0.00786887
0.0097525
0.0126838
0.0145428
0.0157246
0.0163414
0.0163948
0.0157812
0.0140961
0.00868846
0.000932561
0.00269872
0.00368455
0.00427231
0.00463003
0.00484707
0.004971
0.00502687
0.00502746
0.00497859
0.00488173
0.00473514
0.00453415
0.00427061
0.00393127
0.003494
0.00291826
0.00211621
0.00104996
0.00233674
0.00619937
0.00828273
0.00954432
0.0103202
0.0107938
0.0110652
0.0111877
0.011189
0.0110817
0.010869
0.010547
0.010105
0.00952488
0.00877748
0.00781504
0.00655318
0.00481738
0.0019623
0.00330832
0.00831452
0.0108743
0.0124195
0.0133754
0.0139622
0.0142988
0.0144495
0.0144478
0.0143092
0.0140373
0.0136267
0.013064
0.0123262
0.0113764
0.0101561
0.0085636
0.00638472
0.00264146
0.00416757
0.01008
0.0129216
0.0146119
0.0156613
0.016309
0.016681
0.0168452
0.0168375
0.0166742
0.0163588
0.015885
0.015237
0.0143884
0.0132979
0.0119
0.010082
0.00759604
0.00320301
0.00500646
0.0117548
0.0147613
0.0165126
0.0176035
0.0182809
0.0186701
0.0188384
0.0188213
0.0186351
0.0182826
0.0177564
0.0170389
0.0161011
0.0148982
0.0133595
0.0113629
0.00862525
0.0036775
0.00597756
0.0134608
0.016507
0.0182495
0.0193423
0.0200263
0.0204191
0.020584
0.0205544
0.0203456
0.0199593
0.0193868
0.0186091
0.0175951
0.0162969
0.0146397
0.0124918
0.00953399
0.00409252
0.00745416
0.015286
0.018203
0.0198728
0.0209362
0.0216087
0.0219943
0.0221495
0.0221047
0.0218729
0.0214548
0.0208402
0.0200088
0.0189276
0.0175464
0.0157865
0.0135066
0.0103523
0.00446635
0.0105499
0.0172726
0.0198535
0.0213998
0.0224106
0.0230578
0.0234276
0.0235683
0.0235056
0.0232505
0.0228019
0.0221485
0.0212684
0.0201271
0.0186726
0.0168224
0.0144265
0.0110961
0.00481003
0.1
0.1
0.1
0.1
0.1
0.1
0.1
0.1
0.1
0.1
0.1
0.1
0.1
0.00872005
0.0108291
0.0139486
0.0159564
0.017275
0.0180431
0.0182977
0.0180132
0.0170713
0.015059
0.1
0.1
0.1
0.1
0.1
0.1
0.1
0.1
0.1
0.1
0.1
0.1
0.1
0.0098496
0.0120894
0.0154148
0.017605
0.0191047
0.0200836
0.0206188
0.0207552
0.0205337
0.0200216
0.1
0.1
0.1
0.1
0.1
0.1
0.1
0.1
0.1
0.1
0.1
0.1
0.1
0.0109441
0.0131833
0.0166776
0.0190337
0.0207031
0.0218769
0.0226565
0.0231192
0.0233517
0.0234829
0.1
0.1
0.1
0.1
0.1
0.1
0.1
0.1
0.1
0.1
0.1
0.1
0.1
0.0119947
0.0141433
0.0177732
0.0202758
0.0220964
0.0234386
0.0244152
0.0251134
0.0256222
0.0260511
0.1
0.1
0.1
0.1
0.1
0.1
0.1
0.1
0.1
0.1
0.1
0.1
0.1
0.012992
0.0149898
0.0187252
0.021353
0.0233036
0.0247855
0.025916
0.0267825
0.0274667
0.0280565
0.1
0.1
0.1
0.1
0.1
0.1
0.1
0.1
0.1
0.1
0.1
0.1
0.1
0.0139273
0.0157359
0.0195507
0.0222833
0.0243428
0.0259383
0.0271881
0.0281768
0.0289789
0.0296683
0.1
0.1
0.1
0.1
0.1
0.1
0.1
0.1
0.1
0.1
0.1
0.1
0.1
0.0147939
0.0163915
0.0202642
0.0230832
0.0252325
0.0269198
0.0282623
0.0293419
0.0302274
0.0309844
0.1
0.1
0.1
0.1
0.1
0.1
0.1
0.1
0.1
0.1
0.1
0.1
0.1
0.0155878
0.016966
0.0208795
0.023769
0.0259921
0.0277533
0.0291683
0.0303166
0.0312634
0.0320691
0.1
0.1
0.1
0.1
0.1
0.1
0.1
0.1
0.1
0.1
0.1
0.1
0.1
0.0163077
0.0174687
0.0214104
0.0243575
0.0266409
0.0284615
0.0299334
0.0311343
0.0321268
0.0329685
0.1
0.1
0.1
0.1
0.1
0.1
0.1
0.1
0.1
0.1
0.1
0.1
0.1
0.0169552
0.0179104
0.0218715
0.024866
0.0271987
0.0290667
0.0305829
0.0318239
0.0328506
0.0337187
0.1
0.1
0.1
0.1
0.1
0.1
0.1
0.1
0.1
0.1
0.1
0.1
0.1
0.0175346
0.0183035
0.0222791
0.0253128
0.0276854
0.0295907
0.0311406
0.0324111
0.0334623
0.0343488
0.1
0.1
0.1
0.1
0.1
0.1
0.1
0.1
0.1
0.1
0.1
0.1
0.1
0.0180527
0.0186627
0.0226513
0.0257179
0.0281222
0.0300553
0.0316291
0.0329194
0.0339863
0.0348839
0.1
0.1
0.1
0.1
0.1
0.1
0.1
0.1
0.1
0.1
0.1
0.1
0.1
0.01852
0.0190069
0.0230098
0.0261039
0.0285313
0.0304825
0.03207
0.0333705
0.0344444
0.0353458
0.1
0.1
0.1
0.1
0.1
0.1
0.1
0.1
0.1
0.1
0.1
0.1
0.1
0.018952
0.0193615
0.0233822
0.0264971
0.0289374
0.030895
0.0324847
0.0337848
0.0348563
0.0357536
0.1
0.1
0.1
0.1
0.1
0.1
0.1
0.1
0.1
0.1
0.1
0.1
0.1
0.0193735
0.0197644
0.0238051
0.0269298
0.0293676
0.0313161
0.0328938
0.0341811
0.0352398
0.0361244
0.1
0.1
0.1
0.1
0.1
0.1
0.1
0.1
0.1
0.1
0.1
0.1
0.1
0.0198296
0.020277
0.0243303
0.0274409
0.0298514
0.0317688
0.0333166
0.0345765
0.0356106
0.0364731
0.1
0.1
0.1
0.1
0.1
0.1
0.1
0.1
0.1
0.1
0.1
0.1
0.1
0.0204152
0.0210078
0.0250302
0.0280756
0.0304179
0.0322742
0.0337696
0.0349854
0.0359821
0.0368125
0.1
0.1
0.1
0.1
0.1
0.1
0.1
0.1
0.1
0.1
0.1
0.1
0.1
0.0213608
0.0221484
0.0259941
0.0288752
0.0310895
0.0328471
0.0342651
0.0354187
0.0363647
0.0371528
0.1
0.1
0.1
0.1
0.1
0.1
0.1
0.1
0.1
0.1
0.1
0.1
0.1
0.0231209
0.0239246
0.0272722
0.0298508
0.0318711
0.0334924
0.0348086
0.035883
0.0367657
0.0375021
0.1
0.1
0.1
0.1
0.1
0.1
0.1
0.1
0.1
0.1
0.1
0.1
0.0283202
0.0227859
0.0259265
0.0287296
0.0309529
0.0327433
0.0342031
0.0353991
0.0363809
0.0371899
0.0378666
0.0182186
0.0173602
0.0176465
0.0180269
0.0183546
0.0186356
0.0188972
0.0191765
0.019529
0.0200598
0.0210114
0.0228573
0.022689
0.0253542
0.0280168
0.0302657
0.0321313
0.0336802
0.0349663
0.0360317
0.0369118
0.0376401
0.0382511
0.00481438
0.00885873
0.0113784
0.0132387
0.0147024
0.0159098
0.0169564
0.0179243
0.0189055
0.0200305
0.0215056
0.0235592
0.0257617
0.0279677
0.0299988
0.0317892
0.0333349
0.0346534
0.035767
0.0366994
0.0374746
0.0381183
0.0386604
0.00424344
0.00998804
0.0131451
0.0154674
0.0173138
0.0188488
0.0201792
0.0213916
0.0225708
0.0238116
0.025216
0.0268371
0.0285366
0.0302187
0.031805
0.0332482
0.0345277
0.0356406
0.0365931
0.0373972
0.0380689
0.0386282
0.0391005
0.00494278
0.0114442
0.0149444
0.0175228
0.0195942
0.0213295
0.0228341
0.0241892
0.0254665
0.0267326
0.0280419
0.0294119
0.0307968
0.0321536
0.033441
0.0346273
0.0356932
0.0366305
0.0374389
0.0381245
0.0386981
0.0391759
0.0395801
0.00554395
0.0126836
0.0164629
0.0192361
0.0214745
0.0233576
0.0249886
0.0264422
0.0277791
0.0290495
0.0302898
0.0315136
0.032709
0.0338578
0.0349394
0.0359356
0.0368329
0.0376241
0.0383076
0.038887
0.0393707
0.0397723
0.0401117
0.00602231
0.0137117
0.0177422
0.0206874
0.0230679
0.0250734
0.0268065
0.0283372
0.0297187
0.030993
0.0321895
0.0333238
0.0343979
0.0354071
0.0363432
0.0371974
0.0379625
0.0386342
0.0392118
0.0396985
0.0401018
0.0404339
0.0407134
0.00641495
0.0145796
0.018843
0.0219511
0.0244641
0.0265813
0.0284059
0.0300049
0.0314275
0.0327112
0.0338835
0.0349622
0.0359563
0.0368691
0.0377003
0.0384479
0.0391095
0.0396844
0.0401735
0.0405809
0.0409137
0.0411839
0.0414093
0.00675205
0.0153415
0.0198279
0.0230979
0.0257429
0.0279702
0.0298839
0.0315497
0.0330147
0.0343149
0.0354775
0.0365226
0.0374634
0.0383086
0.0390631
0.0397299
0.0403107
0.0408077
0.0412239
0.0415642
0.0418366
0.0420528
0.0422304
0.00706
0.0160518
0.020763
0.0242015
0.0269849
0.0293265
0.0313319
0.0330665
0.0345771
0.0358999
0.0370632
0.038089
0.0389941
0.039791
0.0404886
0.0410935
0.0416109
0.0420454
0.0424019
0.0426866
0.042908
0.0430782
0.0432144
0.00736548
0.0167693
0.0217212
0.0253436
0.0282773
0.0307415
0.0328434
0.0346498
0.0362087
0.0375577
0.0387275
0.0397425
0.0406227
0.0413838
0.0420378
0.0425944
0.0430615
0.0434457
0.0437536
0.0439927
0.044172
0.0443038
0.0444054
0.00769851
0.0175608
0.0227863
0.0266171
0.0297183
0.0323152
0.0345184
0.0363978
0.0380046
0.0393798
0.0405571
0.0415644
0.0424247
0.0431566
0.0437752
0.0442926
0.0447186
0.0450619
0.0453303
0.0455323
0.0456776
0.0457785
0.0458519
0.00809493
0.018506
0.024057
0.02813
0.0314189
0.0341578
0.036464
0.0384132
0.0400625
0.0414582
0.0426386
0.0436357
0.0444757
0.0451804
0.0457671
0.0462501
0.0466412
0.0469503
0.0471864
0.0473586
0.047477
0.0475538
0.0476053
0.00859828
0.0197005
0.0256497
0.0300067
0.0335035
0.0363896
0.0387936
0.0408019
0.042481
0.0438847
0.0450576
0.0460362
0.0468506
0.0475251
0.0480796
0.0485299
0.0488892
0.0491685
0.0493776
0.0495259
0.0496236
0.0496826
0.0497181
0.00926135
0.0212592
0.027702
0.0323898
0.0361103
0.0391389
0.0416245
0.0436706
0.0453572
0.0467485
0.0478964
0.0488428
0.0496215
0.0502592
0.0507777
0.0511941
0.0515224
0.0517743
0.0519599
0.0520889
0.052171
0.0522175
0.0522423
0.0101486
0.0233234
0.0303787
0.0354442
0.0393918
0.0425412
0.0450754
0.0471235
0.0487841
0.0501339
0.0512331
0.0521289
0.0528579
0.0534492
0.0539253
0.0543043
0.0546005
0.0548256
0.05499
0.0551027
0.0551732
0.0552116
0.05523
0.0113424
0.026076
0.0338865
0.0393649
0.0435165
0.0467373
0.0492636
0.0512605
0.0528493
0.0541204
0.0551417
0.0559645
0.0566276
0.0571607
0.0575868
0.0579235
0.0581851
0.058383
0.0585268
0.0586253
0.0586869
0.0587203
0.0587358
0.0129601
0.0297761
0.038499
0.0443877
0.04867
0.0518698
0.0543011
0.0561739
0.0576335
0.0587822
0.0596931
0.0604191
0.0609992
0.0614621
0.0618299
0.0621192
0.0623432
0.0625124
0.0626357
0.0627207
0.0627748
0.0628053
0.06282
0.015192
0.0348278
0.0445956
0.0507956
0.0550466
0.0580723
0.0602865
0.0619445
0.0632099
0.0641902
0.0649584
0.0655651
0.0660464
0.0664284
0.0667305
0.0669677
0.0671511
0.0672901
0.0673921
0.0674637
0.0675108
0.0675391
0.0675541
0.0183948
0.0419218
0.0527024
0.0589002
0.0628171
0.0654448
0.067291
0.0686359
0.0696434
0.070414
0.0710126
0.0714822
0.071853
0.0721463
0.0723779
0.0725596
0.0727005
0.0728078
0.0728877
0.0729451
0.0729847
0.0730104
0.0730257
0.0233983
0.0523364
0.0634796
0.0689475
0.0720569
0.0740152
0.0753425
0.0762905
0.0769929
0.0775269
0.0779402
0.0782637
0.0785188
0.0787204
0.0788797
0.079005
0.0791026
0.0791777
0.0792346
0.079277
0.0793077
0.0793296
0.0793442
0.0335082
0.0683164
0.0773647
0.0808519
0.082625
0.0836974
0.0844182
0.0849347
0.0853199
0.0856144
0.0858434
0.0860234
0.0861657
0.0862785
0.086368
0.0864386
0.0864942
0.0865376
0.0865712
0.0865973
0.0866176
0.0866333
0.0866452
0.0623778
0.0905783
0.0930984
0.0937465
0.0940762
0.0943024
0.0944724
0.0946039
0.0947069
0.0947881
0.0948526
0.0949041
0.0949452
0.094978
0.0950043
0.0950253
0.095042
0.0950554
0.0950662
0.0950751
0.0950827
0.0950894
0.0950951
0.0104673
0.00914869
0.00936503
0.0112808
0.0195795
0.019534
0.0198589
0.0205577
0.0236677
0.0238717
0.0241926
0.0246241
0.026411
0.0266805
0.0269977
0.0273584
0.0284936
0.0287907
0.0291093
0.0294463
0.0301503
0.0304644
0.0307868
0.0311151
0.031497
0.0318236
0.0321506
0.0324759
0.0326042
0.0329403
0.0332718
0.0335967
0.0335205
0.0338641
0.0341995
0.0345248
0.034283
0.0346321
0.0349704
0.0352961
0.0349215
0.0352741
0.035614
0.0359396
0.0354609
0.035815
0.036155
0.0364794
0.0359228
0.0362761
0.0366144
0.0369363
0.0363261
0.036676
0.0370105
0.0373282
0.0366875
0.0370312
0.0373594
0.0376708
0.0370213
0.0373557
0.0376751
0.0379778
0.03734
0.0376619
0.0379694
0.0382612
0.0376539
0.03796
0.0382529
0.0385312
0.0379714
0.0382587
0.0385342
0.0387968
0.0382994
0.0385652
0.0388211
0.0390658
0.0386439
0.0388862
0.0391206
0.039346
0.0390111
0.0392286
0.0394404
0.0396453
0.0394084
0.0396005
0.0397893
0.0399733
0.0398457
0.0400128
0.0401786
0.0403418
0.0403368
0.0404797
0.0406233
0.0407664
0.0409004
0.0410207
0.0411433
0.0412672
0.0415615
0.0416609
0.041764
0.0418701
0.0423514
0.0424319
0.0425174
0.042607
0.0433082
0.043372
0.0434417
0.0435165
0.0444758
0.0445252
0.044581
0.0446427
0.045903
0.0459402
0.045984
0.0460339
0.0476411
0.0476683
0.0477019
0.0477414
0.0497422
0.0497614
0.0497865
0.0498169
0.052258
0.0522712
0.0522892
0.0523117
0.0552403
0.0552491
0.0552615
0.0552772
0.058743
0.0587488
0.0587567
0.0587667
0.0628258
0.0628297
0.0628344
0.0628397
0.0675596
0.0675624
0.0675647
0.0675664
0.0730315
0.0730337
0.0730345
0.0730337
0.0793501
0.079352
0.0793519
0.0793497
0.0866504
0.0866521
0.0866517
0.0866492
0.0950981
0.0950991
0.0950989
0.0950974
0.0172799
0.0203869
0.0223182
0.0236366
0.0245434
0.0251361
0.0254713
0.0255828
0.0254892
0.0251971
0.0247027
0.0239925
0.0230428
0.0218172
0.0202607
0.018286
0.0157298
0.0121546
0.00530789
0.0220819
0.0238442
0.0252167
0.0262561
0.027008
0.0275067
0.0277776
0.0278377
0.0276955
0.0273516
0.0267983
0.0260194
0.0249888
0.0236678
0.0219985
0.0198876
0.0171558
0.0133098
0.00584621
0.0254604
0.026649
0.0276802
0.0285073
0.0291214
0.0295262
0.029728
0.0297316
0.0295377
0.0291415
0.0285317
0.0276895
0.0265867
0.0251826
0.0234165
0.0211896
0.0183085
0.0142352
0.00626992
0.0280102
0.0289362
0.0297614
0.0304355
0.0309368
0.0312565
0.0313912
0.0313381
0.0310921
0.0306443
0.0299804
0.0290793
0.027911
0.0264328
0.0245814
0.0222533
0.0192433
0.014978
0.00660582
0.030028
0.0308191
0.0315161
0.0320811
0.0324929
0.0327393
0.0328125
0.0327052
0.0324088
0.0319113
0.0311962
0.0302404
0.0290121
0.0274672
0.02554
0.0231229
0.0200015
0.0155749
0.00687321
0.0316649
0.0323801
0.0329942
0.0334806
0.0338222
0.0340069
0.0340253
0.0338682
0.0335244
0.0329803
0.0322172
0.0312107
0.0299277
0.0283225
0.0263278
0.0238326
0.0206153
0.0160539
0.00708619
0.03301
0.0336794
0.0342378
0.0346669
0.0349533
0.0350866
0.0350573
0.0348551
0.0344679
0.0338804
0.033073
0.03202
0.0306873
0.029028
0.0269734
0.02441
0.0211107
0.0164373
0.00725544
0.0341227
0.0347629
0.0352825
0.0356687
0.0359115
0.0360022
0.0359316
0.0356895
0.0352629
0.0346359
0.033788
0.0326927
0.0313152
0.0296077
0.0275002
0.0248776
0.0215087
0.0167427
0.00738934
0.0350462
0.0356667
0.0361582
0.0365116
0.0367196
0.0367748
0.0366689
0.0363916
0.0359298
0.0352672
0.0343827
0.0332494
0.0318318
0.0300815
0.0279279
0.0252543
0.0218267
0.0169847
0.00749463
0.0358144
0.0364205
0.0368908
0.0372185
0.0373981
0.0374237
0.0372874
0.0369793
0.0364864
0.035792
0.0348748
0.0337076
0.0322544
0.0304666
0.0282729
0.0255558
0.0220791
0.0171751
0.0075768
0.0364549
0.0370493
0.0375025
0.0378093
0.0379655
0.037966
0.0378036
0.0374687
0.0369483
0.0362258
0.0352797
0.0340825
0.0325982
0.0307777
0.0285496
0.0257955
0.022278
0.0173237
0.0076404
0.0369908
0.0375746
0.0380131
0.0383022
0.0384385
0.0384175
0.0382325
0.0378742
0.0373297
0.0365825
0.035611
0.0343875
0.032876
0.0310274
0.0287698
0.0259848
0.0224336
0.0174389
0.00768921
0.0374422
0.0380151
0.0384399
0.0387131
0.0388319
0.0387922
0.0385875
0.0382087
0.0376432
0.0368743
0.0358805
0.0346343
0.0330993
0.0312266
0.0289441
0.0261331
0.0225544
0.0175273
0.00772634
0.0378264
0.038387
0.0387982
0.0390566
0.0391594
0.0391029
0.0388808
0.038484
0.0379
0.0371121
0.036099
0.034833
0.0332779
0.0313846
0.0290811
0.0262488
0.0226475
0.0175948
0.00775435
0.0381586
0.0387047
0.0391015
0.0393453
0.0394332
0.0393613
0.0391235
0.0387107
0.0381103
0.0373058
0.0362759
0.0349927
0.0334203
0.0315096
0.0291886
0.0263385
0.022719
0.017646
0.00777534
0.038452
0.0389811
0.0393622
0.0395909
0.0396642
0.0395779
0.0393257
0.0388984
0.0382834
0.0374643
0.0364195
0.0351216
0.0335343
0.0316087
0.0292729
0.0264081
0.0227738
0.0176847
0.00779103
0.0387183
0.0392274
0.039591
0.039804
0.0398626
0.0397623
0.0394966
0.0390559
0.0384278
0.0375955
0.0365377
0.0352267
0.0336264
0.031688
0.0293397
0.0264626
0.0228161
0.0177142
0.00780278
0.0389678
0.0394535
0.0397977
0.039994
0.0400377
0.0399236
0.0396448
0.0391917
0.0385514
0.0377071
0.0366374
0.0353147
0.0337029
0.0317532
0.0293939
0.0265063
0.0228496
0.0177371
0.00781176
0.0392095
0.0396688
0.0399917
0.0401701
0.0401983
0.0400704
0.0397788
0.0393137
0.0386618
0.0378062
0.0367255
0.0353919
0.0337695
0.0318095
0.0294402
0.026543
0.0228773
0.0177557
0.00781892
0.0394517
0.0398819
0.0401816
0.0403411
0.0403532
0.0402113
0.039907
0.03943
0.0387668
0.0379003
0.0368088
0.0354647
0.033832
0.0318619
0.029483
0.0265766
0.0229022
0.0177722
0.00782512
0.0397028
0.0401016
0.0403767
0.0405162
0.0405118
0.0403555
0.0400384
0.0395494
0.0388748
0.0379973
0.0368949
0.03554
0.0338966
0.031916
0.029527
0.026611
0.0229275
0.0177886
0.00783121
0.0399715
0.0403374
0.0405868
0.0407057
0.0406842
0.0405132
0.0401829
0.0396817
0.0389953
0.0381062
0.0369922
0.0356256
0.0339705
0.0319782
0.0295777
0.0266506
0.0229566
0.0178075
0.00783812
0.0402681
0.0406003
0.0408234
0.0409213
0.0408824
0.0406963
0.0403525
0.0398385
0.0391396
0.0382379
0.0371111
0.0357312
0.0340625
0.0320564
0.0296419
0.0267011
0.0229939
0.0178317
0.00784701
0.0406054
0.0409039
0.0411007
0.0411774
0.0411209
0.0409195
0.0405616
0.0400341
0.0393218
0.0384061
0.0372646
0.0358692
0.0341841
0.0321608
0.0297286
0.0267701
0.0230453
0.0178654
0.00785942
0.0409995
0.041265
0.0414359
0.0414918
0.0414176
0.0412007
0.0408282
0.0402865
0.0395595
0.0386281
0.0374697
0.0360557
0.0343503
0.0323052
0.0298501
0.0268679
0.023119
0.0179143
0.00787757
0.0414713
0.0417051
0.0418509
0.0418863
0.0417948
0.0415623
0.041175
0.0406182
0.0398752
0.0389263
0.0377481
0.0363118
0.0345814
0.0325086
0.0300233
0.0270089
0.0232267
0.0179864
0.00790467
0.042047
0.0422508
0.0423727
0.0423884
0.04228
0.042032
0.0416297
0.0410573
0.0402972
0.0393289
0.0381281
0.0366654
0.0349043
0.0327962
0.0302714
0.0272138
0.0233851
0.018094
0.00794547
0.0427588
0.0429346
0.0430338
0.0430308
0.0429062
0.0426433
0.0422263
0.0416384
0.0408607
0.0398715
0.0386456
0.0371525
0.0353544
0.0332024
0.0306265
0.027511
0.0236181
0.0182543
0.00800699
0.0436454
0.0437949
0.0438729
0.0438523
0.0437125
0.0434359
0.0430053
0.0424026
0.0416078
0.0405978
0.0393453
0.0378183
0.0359773
0.0337721
0.0311315
0.0279398
0.0239594
0.0184924
0.00809952
0.0447506
0.0448758
0.0449338
0.0448968
0.0447434
0.0444548
0.0440128
0.0433978
0.0425882
0.0415589
0.0402806
0.0387183
0.0368301
0.0345626
0.0318427
0.0285531
0.024455
0.0188437
0.0082379
0.0461229
0.0462252
0.0462646
0.0462128
0.0460478
0.04575
0.0453
0.0446769
0.0438573
0.0428135
0.0415133
0.039918
0.0379811
0.0356448
0.0328314
0.0294196
0.0251668
0.0193566
0.00844306
0.0478132
0.047894
0.0479158
0.047851
0.0476771
0.0473739
0.0469212
0.0462967
0.0454747
0.0444251
0.0431116
0.0414906
0.0395095
0.0371026
0.0341843
0.0306254
0.0261747
0.0200956
0.00874354
0.049873
0.0499335
0.0499392
0.0498633
0.0496839
0.0493805
0.0489321
0.0483152
0.0475022
0.0464598
0.0451475
0.0435155
0.0415022
0.0390313
0.0360037
0.0322754
0.0275787
0.0211434
0.00917681
0.0523535
0.052395
0.052386
0.0523018
0.0521211
0.0518237
0.0513883
0.0507906
0.0500013
0.0489843
0.0476942
0.0460741
0.0440518
0.0415355
0.0384058
0.0344938
0.0295015
0.0226041
0.00979034
0.0553062
0.0553301
0.0553085
0.055219
0.0550419
0.0547578
0.0543455
0.0537806
0.0530327
0.0520635
0.0508235
0.0492481
0.047253
0.0447269
0.0415214
0.0374276
0.0320946
0.0246093
0.0106437
0.0587845
0.0587929
0.0587612
0.0586701
0.058502
0.0582389
0.0578606
0.0573432
0.0566565
0.0557612
0.0546049
0.053117
0.0512008
0.0487227
0.0454963
0.0412525
0.0355516
0.0273346
0.0118149
0.062848
0.0628435
0.0628049
0.0627164
0.062563
0.0623287
0.0619951
0.06154
0.0609346
0.0601407
0.0591058
0.0577563
0.0559863
0.053641
0.0504904
0.0461821
0.0401322
0.0310331
0.0134164
0.0675673
0.0675532
0.0675113
0.06743
0.0672968
0.0670984
0.0668191
0.0664393
0.0659336
0.0652674
0.0643918
0.0632356
0.0616915
0.059592
0.0566679
0.0524687
0.046195
0.0361034
0.0156322
0.0730293
0.0730093
0.0729685
0.0728987
0.0727907
0.072634
0.0724162
0.0721216
0.0717297
0.0712121
0.070528
0.0696161
0.0683795
0.0666577
0.0641678
0.0603802
0.0542274
0.0432249
0.0188139
0.0793424
0.0793211
0.0792857
0.0792317
0.0791526
0.0790413
0.078889
0.0786845
0.0784135
0.0780559
0.0775827
0.0769498
0.0760852
0.0748633
0.0730426
0.0701081
0.0648143
0.053638
0.0238826
0.0866418
0.0866239
0.0865987
0.0865641
0.0865164
0.0864516
0.0863646
0.0862491
0.0860971
0.0858977
0.0856354
0.085287
0.0848151
0.0841537
0.0831704
0.0815472
0.0783212
0.0696017
0.0353155
0.0950931
0.0950845
0.0950744
0.0950621
0.0950465
0.0950264
0.0950003
0.0949662
0.094922
0.0948649
0.0947912
0.094696
0.0945726
0.0944129
0.0942078
0.0939533
0.093659
0.0931732
0.0865039
)
;

boundaryField
{
    leftWall
    {
        type            kqRWallFunction;
        value           nonuniform List<scalar> 
50
(
0.1
0.1
0.1
0.1
0.1
0.1
0.1
0.1
0.1
0.1
0.1
0.1
0.1
0.1
0.1
0.1
0.1
0.1
0.1
0.1
0.1
0.1
0.1
0.1
0.1
0.1
0.1
0.1
0.0182186
0.00481438
0.00424344
0.00494278
0.00554395
0.00602231
0.00641495
0.00675205
0.00706
0.00736548
0.00769851
0.00809493
0.00859828
0.00926135
0.0101486
0.0113424
0.0129601
0.015192
0.0183948
0.0233983
0.0335082
0.0623778
)
;
    }
    rightWall
    {
        type            kqRWallFunction;
        value           nonuniform List<scalar> 
50
(
0.00104996
0.0019623
0.00264146
0.00320301
0.0036775
0.00409252
0.00446635
0.00481003
0.00530789
0.00584621
0.00626992
0.00660582
0.00687321
0.00708619
0.00725544
0.00738934
0.00749463
0.0075768
0.0076404
0.00768921
0.00772634
0.00775435
0.00777534
0.00779103
0.00780278
0.00781176
0.00781892
0.00782512
0.00783121
0.00783812
0.00784701
0.00785942
0.00787757
0.00790467
0.00794547
0.00800699
0.00809952
0.0082379
0.00844306
0.00874354
0.00917681
0.00979034
0.0106437
0.0118149
0.0134164
0.0156322
0.0188139
0.0238826
0.0353155
0.0865039
)
;
    }
    lowerWall
    {
        type            kqRWallFunction;
        value           nonuniform List<scalar> 
62
(
0.1
0.1
0.1
0.1
0.1
0.1
0.1
0.1
0.1
0.1
0.1
0.1
0.1
0.00718677
0.00179066
0.00246396
0.00293996
0.00320293
0.00328895
0.0031862
0.00284067
0.00213754
0.000804301
0.000804301
0.00194364
0.00271652
0.00338236
0.0040288
0.00478721
0.00598692
0.00868846
0.0104673
0.00914869
0.00936503
0.0112808
0.000932561
0.00233674
0.00330832
0.00416757
0.00500646
0.00597756
0.00745416
0.0105499
0.000932561
0.00269872
0.00368455
0.00427231
0.00463003
0.00484707
0.004971
0.00502687
0.00502746
0.00497859
0.00488173
0.00473514
0.00453415
0.00427061
0.00393127
0.003494
0.00291826
0.00211621
0.00104996
)
;
    }
    atmosphere
    {
        type            inletOutlet;
        inletValue      uniform 0.1;
        value           nonuniform List<scalar> 
46
(
0.0623778
0.1
0.1
0.1
0.1
0.1
0.1
0.1
0.1
0.1
0.1
0.1
0.1
0.1
0.1
0.1
0.1
0.1
0.1
0.1
0.1
0.1
0.1
0.1
0.1
0.1
0.1
0.1
0.1
0.1
0.1
0.1
0.1
0.1
0.1
0.1
0.1
0.1
0.1
0.1
0.1
0.1
0.1
0.1
0.1
0.1
)
;
    }
    defaultFaces
    {
        type            empty;
    }
}


// ************************************************************************* //
