/*--------------------------------*- C++ -*----------------------------------*\
| =========                 |                                                 |
| \\      /  F ield         | OpenFOAM: The Open Source CFD Toolbox           |
|  \\    /   O peration     | Version:  2406                                  |
|   \\  /    A nd           | Website:  www.openfoam.com                      |
|    \\/     M anipulation  |                                                 |
\*---------------------------------------------------------------------------*/
FoamFile
{
    version     2.0;
    format      ascii;
    arch        "LSB;label=32;scalar=64";
    class       volScalarField;
    location    "1";
    object      nut;
}
// * * * * * * * * * * * * * * * * * * * * * * * * * * * * * * * * * * * * * //

dimensions      [0 2 -1 0 0 0 0];

internalField   nonuniform List<scalar> 
2268
(
2.83964e-05
3.13137e-05
3.72955e-05
4.11682e-05
4.39702e-05
4.61075e-05
4.77826e-05
4.91113e-05
5.01657e-05
5.09932e-05
5.16246e-05
5.20797e-05
5.23681e-05
5.249e-05
5.24338e-05
5.21718e-05
5.16507e-05
5.07731e-05
4.93618e-05
4.70827e-05
4.32709e-05
3.64007e-05
2.05557e-05
6.23284e-05
0.000239801
0.000320322
0.000370354
0.000405987
0.00043304
0.000454256
0.000471149
0.000484637
0.000495311
0.000503555
0.000509608
0.00051359
0.000515501
0.000515193
0.000512307
0.000506138
0.000495363
0.000477491
0.000447657
0.00039582
0.000298083
7.04957e-05
7.35946e-05
0.000405368
0.000586627
0.00070172
0.000784171
0.000847018
0.000896521
0.000936132
0.000967936
0.000993263
0.00101297
0.00102759
0.00103738
0.00104232
0.00104201
0.00103557
0.0010212
0.000995539
0.000952163
0.000878655
0.000750475
0.000516605
8.52482e-05
8.1724e-05
0.00052123
0.000794848
0.000974154
0.00110414
0.00120385
0.00128275
0.00134613
0.00139722
0.00143807
0.00146999
0.00149381
0.00150988
0.00151815
0.00151795
0.00150775
0.00148455
0.00144269
0.00137144
0.00125044
0.00104145
0.000675405
9.64123e-05
8.79249e-05
0.000607763
0.000961576
0.00120045
0.00137589
0.0015114
0.00161912
0.00170598
0.00177621
0.00183254
0.00187671
0.0019098
0.00193227
0.001944
0.00194404
0.00193023
0.00189836
0.00184055
0.001742
0.00157502
0.00128906
0.000802465
0.000106021
9.28956e-05
0.000675973
0.0010989
0.00139197
0.00160996
0.00177954
0.00191497
0.00202454
0.0021134
0.00218487
0.0022411
0.00228337
0.00231226
0.00232758
0.0023281
0.00231112
0.00227136
0.00219901
0.00207588
0.00186804
0.00151361
0.000916833
0.00011589
9.70239e-05
0.000731873
0.00121466
0.00155675
0.0018142
0.00201587
0.00217766
0.00230902
0.00241585
0.00250201
0.00256999
0.00262132
0.00265664
0.00267571
0.00267712
0.00265769
0.00261129
0.00252674
0.00238345
0.00214315
0.00173403
0.0010369
0.000129385
0.000100538
0.000778969
0.00131407
0.00170043
0.00199433
0.00222608
0.00241284
0.00256497
0.00268905
0.0027894
0.00286883
0.00292906
0.00297084
0.00299391
0.00299671
0.00297575
0.00292439
0.00283064
0.00267292
0.00241164
0.0019709
0.0011981
0.000155512
2.10785e-05
3.74009e-05
4.41419e-05
4.77017e-05
4.97032e-05
5.08338e-05
5.1422e-05
5.16313e-05
5.15427e-05
5.11913e-05
5.05837e-05
4.9704e-05
4.85137e-05
4.69454e-05
4.48842e-05
4.21256e-05
3.8255e-05
3.22106e-05
3.04749e-05
7.99818e-05
0.000312702
0.000407621
0.000455474
0.000481294
0.000495323
0.000502274
0.000504411
0.000502824
0.000497981
0.00048997
0.0004786
0.000463391
0.00044349
0.000417419
0.000382446
0.000332753
0.000252223
7.11477e-05
9.62522e-05
0.000550531
0.000779797
0.00089813
0.000961378
0.000995072
0.00101132
0.00101593
0.00101171
0.000999857
0.000980639
0.000953657
0.000917852
0.000871298
0.000810632
0.000729621
0.000615111
0.0004326
8.34951e-05
0.000108739
0.000726467
0.00108909
0.00128278
0.00138684
0.00144199
0.00146829
0.00147553
0.00146842
0.00144902
0.00141784
0.00137434
0.00131688
0.00124251
0.00114606
0.00101803
0.00083891
0.00056108
9.25361e-05
0.000119612
0.000868069
0.00135378
0.00161965
0.00176333
0.00183946
0.00187558
0.00188527
0.00187512
0.00184805
0.00180487
0.00174487
0.00166594
0.00156417
0.00143278
0.00125949
0.00101981
0.000657877
9.9473e-05
0.000130981
0.000995249
0.00159315
0.00192304
0.0021019
0.00219686
0.00224174
0.00225334
0.00223991
0.00220514
0.00215009
0.00207393
0.00197411
0.00184588
0.00168107
0.0014651
0.00116978
0.000734477
0.000105042
0.00014667
0.00112723
0.00182493
0.00220535
0.00241211
0.00252234
0.00257423
0.00258689
0.0025698
0.00252727
0.00246054
0.00236866
0.00224869
0.00209515
0.00189867
0.00164284
0.00129677
0.000797353
0.000109668
0.000175754
0.00129884
0.00206719
0.00247662
0.00270148
0.00282239
0.00287904
0.00289163
0.00287037
0.00281996
0.00274173
0.00263462
0.0024953
0.00231764
0.00209131
0.00179842
0.00140618
0.00085036
0.000113605
0.000105263
0.000842238
0.00144969
0.00189927
0.00224649
0.00252301
0.00274738
0.00293111
0.00308163
0.00320388
0.00330113
0.00337538
0.00342755
0.0034574
0.00346327
0.00344142
0.0033849
0.00328156
0.00311058
0.00283698
0.00240537
0.0017494
0.000893643
0.000110201
0.000907847
0.00159248
0.0021116
0.00251896
0.00284704
0.00311547
0.00333676
0.00351916
0.00366826
0.00378782
0.00388024
0.00394672
0.00398729
0.00400057
0.00398329
0.00392951
0.00382944
0.00366784
0.00342283
0.00306752
0.00258259
0.00199212
0.000114093
0.000959834
0.00170698
0.00228373
0.00274205
0.00311465
0.0034218
0.00367664
0.00388798
0.0040619
0.00420258
0.00431279
0.00439411
0.00444702
0.00447072
0.00446295
0.00441957
0.00433416
0.0041979
0.00400054
0.00373438
0.0034047
0.00305054
0.000117223
0.00100202
0.00180079
0.00242587
0.0029276
0.00333874
0.00367992
0.00396468
0.00420226
0.0043991
0.00455976
0.00468737
0.00478393
0.00485045
0.00488691
0.00489223
0.00486422
0.00479969
0.00469495
0.00454744
0.00435927
0.00414382
0.00393531
0.000119769
0.00103675
0.00187869
0.00254466
0.00308356
0.00352813
0.00389921
0.00421066
0.004472
0.00468999
0.00486949
0.00501398
0.00512591
0.00520682
0.00525747
0.00527795
0.00526775
0.00522614
0.00515287
0.00504953
0.00492195
0.00478354
0.00465842
0.000121854
0.00106561
0.00194391
0.00264466
0.00321549
0.00368908
0.00408647
0.00442169
0.00470452
0.00494196
0.00513913
0.00529985
0.00542695
0.00552249
0.00558793
0.0056243
0.0056324
0.00561316
0.00556828
0.00550117
0.00541831
0.00533059
0.00525378
0.000123568
0.0010897
0.00199875
0.00272915
0.00332745
0.00382627
0.00424677
0.00460315
0.00490536
0.0051606
0.00537424
0.00555037
0.00569214
0.00580207
0.00588219
0.00593424
0.0059599
0.00596112
0.00594055
0.00590213
0.00585174
0.00579762
0.00574989
0.000124978
0.00110985
0.00204494
0.00280063
0.00342255
0.00394328
0.00438405
0.0047592
0.00507883
0.0053503
0.00557915
0.00576971
0.00592542
0.00604914
0.00614332
0.0062102
0.00625203
0.00627129
0.00627098
0.00625499
0.00622827
0.00619691
0.00616753
0.000126137
0.00112669
0.0020838
0.00286104
0.00350325
0.00404295
0.00450146
0.00489322
0.00522843
0.00551458
0.00575738
0.0059613
0.00613003
0.00626667
0.00637396
0.0064545
0.00651082
0.00654565
0.00656206
0.00656358
0.00655434
0.00653884
0.00652158
0.000127086
0.00114074
0.00211643
0.00291197
0.00357154
0.00412763
0.00460161
0.005008
0.00535708
0.00565643
0.00591187
0.00612803
0.00630873
0.00645726
0.00657656
0.00666941
0.0067385
0.00678664
0.00681677
0.00683207
0.00683596
0.00683186
0.00682294
0.000127861
0.00115242
0.00214371
0.00295473
0.00362911
0.0041993
0.00468671
0.00510591
0.00546725
0.00577839
0.00604521
0.00627244
0.00646401
0.00662333
0.00675346
0.00685725
0.00693748
0.00699691
0.00703832
0.00706457
0.0070785
0.00708282
0.00707986
0.00012849
0.00116208
0.00216641
0.00299045
0.0036774
0.00425965
0.00475865
0.00518902
0.00556115
0.00588272
0.00615969
0.00639684
0.00659817
0.00676715
0.00690691
0.00702034
0.0071102
0.00717918
0.00722991
0.00726493
0.00728669
0.00729739
0.00729881
0.000128997
0.00117002
0.00218518
0.00302012
0.00371766
0.00431018
0.00481914
0.00525918
0.00564072
0.00597146
0.00625741
0.00650336
0.00671335
0.0068909
0.00703914
0.00716098
0.00725913
0.00733619
0.00739462
0.00743674
0.0074647
0.00748032
0.00748505
0.000129405
0.0011765
0.00220059
0.00304459
0.00375102
0.00435223
0.00486968
0.00531804
0.00570772
0.00604647
0.00634027
0.00659396
0.00681158
0.00699665
0.0071523
0.00728142
0.00738667
0.00747054
0.00753537
0.00758329
0.0076162
0.00763569
0.00764298
0.000129729
0.00118176
0.00221316
0.00306463
0.00377846
0.00438696
0.00491162
0.00536708
0.00576377
0.00610944
0.00641007
0.00667049
0.00689476
0.00708637
0.00724845
0.00738383
0.00749513
0.00758475
0.0076549
0.00770757
0.00774449
0.00776707
0.00777635
0.000129985
0.00118599
0.00222332
0.00308092
0.00380086
0.00441545
0.00494616
0.00540764
0.00581032
0.00616192
0.00646843
0.00673467
0.00696468
0.00716194
0.00732955
0.00747029
0.00758672
0.00768117
0.00775575
0.00781233
0.00785251
0.00787758
0.00788845
0.000130186
0.00118936
0.00223148
0.00309406
0.00381902
0.00443864
0.00497441
0.00544095
0.00584869
0.00620534
0.00651688
0.0067881
0.00702303
0.00722512
0.00739744
0.00754274
0.00766351
0.00776202
0.00784028
0.00790009
0.00794293
0.00797
0.00798215
0.000130343
0.00119203
0.00223797
0.00310456
0.0038336
0.00445737
0.00499732
0.00546809
0.00588008
0.00624099
0.00655678
0.00683224
0.00707135
0.00727754
0.00745386
0.007603
0.00772742
0.00782931
0.00791064
0.00797311
0.00801813
0.00804684
0.00806
0.000130463
0.00119412
0.00224308
0.00311289
0.00384523
0.00447237
0.00501576
0.00549003
0.00590556
0.00627004
0.0065894
0.00686841
0.00711104
0.0073207
0.00750038
0.00765275
0.00778022
0.00788493
0.00796879
0.00803345
0.00808026
0.00811029
0.00812428
0.000130556
0.00119575
0.00224709
0.00311943
0.00385442
0.00448429
0.00503049
0.00550763
0.00592608
0.00629352
0.00661585
0.00689783
0.00714341
0.00735596
0.00753844
0.0076935
0.0078235
0.00793055
0.00801651
0.00808296
0.00813123
0.00816235
0.008177
0.000130626
0.001197
0.00225019
0.00312454
0.00386163
0.00449369
0.00504215
0.00552163
0.00594247
0.00631234
0.00663713
0.00692157
0.00716959
0.00738453
0.00756934
0.00772663
0.00785872
0.0079677
0.00805537
0.00812329
0.00817276
0.00820475
0.00821993
0.000130679
0.00119796
0.00225258
0.00312849
0.00386723
0.00450103
0.00505132
0.00553268
0.00595547
0.00632732
0.00665412
0.00694058
0.00719059
0.00740751
0.00759423
0.00775335
0.00788716
0.00799771
0.00808678
0.00815591
0.00820634
0.00823904
0.00825465
0.000130718
0.00119869
0.0022544
0.00313152
0.00387156
0.00450673
0.00505846
0.00554134
0.00596569
0.00633914
0.00666757
0.00695567
0.00720732
0.00742584
0.00761413
0.00777474
0.00790995
0.00802178
0.00811199
0.00818209
0.0082333
0.00826657
0.00828253
0.000130748
0.00119924
0.00225578
0.00313382
0.00387486
0.00451111
0.00506399
0.00554806
0.00597366
0.0063484
0.00667814
0.00696757
0.00722054
0.00744036
0.00762991
0.00779172
0.00792807
0.00804093
0.00813206
0.00820295
0.00825479
0.00828851
0.00830475
0.000130769
0.00119964
0.00225681
0.00313556
0.00387738
0.00451446
0.00506823
0.00555325
0.00597983
0.0063556
0.00668639
0.00697687
0.00723089
0.00745176
0.00764232
0.00780511
0.00794236
0.00805606
0.00814793
0.00821944
0.00827178
0.00830587
0.00832232
0.000130785
0.00119994
0.00225758
0.00313687
0.00387927
0.004517
0.00507146
0.00555721
0.00598458
0.00636115
0.00669276
0.00698408
0.00723895
0.00746065
0.00765202
0.00781558
0.00795356
0.00806792
0.00816037
0.00823238
0.00828512
0.0083195
0.00833612
0.000130797
0.00120016
0.00225815
0.00313784
0.00388069
0.0045189
0.0050739
0.00556022
0.00598819
0.00636539
0.00669766
0.00698964
0.00724517
0.00746752
0.00765954
0.00782371
0.00796226
0.00807714
0.00817006
0.00824246
0.00829552
0.00833012
0.00834688
0.000130805
0.00120033
0.00225856
0.00313855
0.00388174
0.00452033
0.00507573
0.00556249
0.00599093
0.00636862
0.00670139
0.00699388
0.00724994
0.0074728
0.00766532
0.00782997
0.00796897
0.00808426
0.00817755
0.00825025
0.00830356
0.00833834
0.00835521
0.000130811
0.00120044
0.00225886
0.00313907
0.00388251
0.00452138
0.00507709
0.00556419
0.00599298
0.00637105
0.00670421
0.0069971
0.00725356
0.00747683
0.00766973
0.00783476
0.00797411
0.00808972
0.00818329
0.00825624
0.00830973
0.00834466
0.0083616
0.000130815
0.00120053
0.00225908
0.00313946
0.00388308
0.00452216
0.0050781
0.00556545
0.00599451
0.00637287
0.00670633
0.00699953
0.0072563
0.00747987
0.00767308
0.00783839
0.00797801
0.00809387
0.00818766
0.00826079
0.00831444
0.00834947
0.00836648
0.000130818
0.00120059
0.00225924
0.00313973
0.00388349
0.00452272
0.00507884
0.00556638
0.00599565
0.00637422
0.00670791
0.00700134
0.00725835
0.00748216
0.00767559
0.00784113
0.00798096
0.00809701
0.00819097
0.00826424
0.008318
0.00835311
0.00837017
0.00013082
0.00120063
0.00225935
0.00313993
0.00388379
0.00452314
0.00507938
0.00556706
0.00599648
0.00637522
0.00670908
0.00700269
0.00725987
0.00748386
0.00767747
0.00784318
0.00798317
0.00809936
0.00819345
0.00826683
0.00832068
0.00835585
0.00837294
0.000130821
0.00120066
0.00225943
0.00314007
0.003884
0.00452343
0.00507977
0.00556756
0.00599709
0.00637595
0.00670994
0.00700368
0.007261
0.00748512
0.00767887
0.0078447
0.00798481
0.00810112
0.00819529
0.00826876
0.00832267
0.00835789
0.00837501
0.000130822
0.00120068
0.00225949
0.00314017
0.00388415
0.00452364
0.00508005
0.00556792
0.00599754
0.00637648
0.00671056
0.00700441
0.00726183
0.00748605
0.00767989
0.00784582
0.00798602
0.00810241
0.00819666
0.00827019
0.00832415
0.00835941
0.00837655
0.000130823
0.00120069
0.00225953
0.00314024
0.00388426
0.00452379
0.00508025
0.00556817
0.00599785
0.00637687
0.00671102
0.00700494
0.00726243
0.00748673
0.00768065
0.00784664
0.00798691
0.00810336
0.00819767
0.00827124
0.00832524
0.00836052
0.00837767
0.000130824
0.0012007
0.00225956
0.00314029
0.00388433
0.0045239
0.00508039
0.00556836
0.00599808
0.00637714
0.00671135
0.00700532
0.00726286
0.00748722
0.00768119
0.00784724
0.00798755
0.00810405
0.0081984
0.00827201
0.00832603
0.00836133
0.00837849
0.000130824
0.00120071
0.00225957
0.00314032
0.00388439
0.00452398
0.00508049
0.00556849
0.00599824
0.00637734
0.00671158
0.00700559
0.00726317
0.00748757
0.00768158
0.00784767
0.00798802
0.00810455
0.00819892
0.00827256
0.0083266
0.00836191
0.00837909
0.000130824
0.00120071
0.00225959
0.00314034
0.00388442
0.00452403
0.00508056
0.00556858
0.00599835
0.00637747
0.00671174
0.00700578
0.00726339
0.00748782
0.00768186
0.00784797
0.00798835
0.0081049
0.0081993
0.00827295
0.008327
0.00836233
0.00837951
0.000130824
0.00120072
0.0022596
0.00314036
0.00388445
0.00452406
0.00508061
0.00556864
0.00599843
0.00637757
0.00671185
0.00700591
0.00726355
0.00748799
0.00768205
0.00784818
0.00798858
0.00810515
0.00819956
0.00827322
0.00832728
0.00836261
0.0083798
0.000130824
0.00120072
0.0022596
0.00314037
0.00388446
0.00452408
0.00508064
0.00556868
0.00599848
0.00637763
0.00671193
0.007006
0.00726365
0.0074881
0.00768218
0.00784832
0.00798873
0.00810531
0.00819973
0.0082734
0.00832747
0.00836281
0.00837999
0.000130824
0.00120072
0.0022596
0.00314038
0.00388447
0.0045241
0.00508066
0.0055687
0.00599851
0.00637767
0.00671197
0.00700605
0.00726371
0.00748817
0.00768225
0.00784841
0.00798882
0.00810541
0.00819984
0.00827351
0.00832758
0.00836292
0.00838011
0.000130825
0.00120072
0.00225961
0.00314038
0.00388448
0.00452411
0.00508067
0.00556871
0.00599853
0.00637769
0.006712
0.00700608
0.00726374
0.00748821
0.00768229
0.00784845
0.00798887
0.00810546
0.00819989
0.00827356
0.00832764
0.00836298
0.00838016
0.000168785
0.000155773
0.00015559
0.000167998
0.0015388
0.00146621
0.00146509
0.00153475
0.00284759
0.00278562
0.0027832
0.00284009
0.0038332
0.00379758
0.00379427
0.00382316
0.00460101
0.00457985
0.00457586
0.004589
0.00521861
0.00520473
0.00520022
0.00520505
0.0057269
0.00571688
0.00571194
0.00571202
0.00615172
0.0061439
0.00613857
0.00613568
0.00651028
0.00650376
0.00649807
0.00649318
0.0068146
0.00680889
0.00680288
0.00679653
0.00707354
0.00706835
0.00706204
0.00705459
0.00729392
0.00728906
0.00728249
0.00727416
0.0074812
0.00747656
0.00746974
0.00746072
0.0076399
0.0076354
0.00762837
0.00761876
0.00777386
0.00776945
0.00776222
0.00775214
0.0078864
0.00788205
0.00787465
0.00786416
0.00798044
0.00797613
0.00796858
0.00795775
0.00805856
0.00805427
0.00804659
0.00803548
0.00812305
0.00811877
0.00811097
0.00809963
0.00817593
0.00817165
0.00816376
0.00815222
0.008219
0.00821472
0.00820674
0.00819504
0.00825382
0.00824954
0.00824149
0.00822965
0.00828177
0.00827749
0.00826939
0.00825744
0.00830405
0.00829976
0.00829161
0.00827957
0.00832167
0.00831738
0.00830919
0.00829708
0.00833551
0.00833122
0.008323
0.00831082
0.0083463
0.008342
0.00833376
0.00832153
0.00835465
0.00835034
0.00834208
0.00832982
0.00836106
0.00835675
0.00834847
0.00833618
0.00836595
0.00836164
0.00835334
0.00834103
0.00836965
0.00836534
0.00835703
0.0083447
0.00837243
0.00836812
0.0083598
0.00834746
0.0083745
0.00837019
0.00836187
0.00834951
0.00837604
0.00837173
0.0083634
0.00835104
0.00837717
0.00837285
0.00836453
0.00835216
0.00837799
0.00837368
0.00836535
0.00835297
0.00837858
0.00837427
0.00836594
0.00835356
0.008379
0.00837469
0.00836635
0.00835398
0.0083793
0.00837498
0.00836664
0.00835426
0.00837949
0.00837517
0.00836684
0.00835445
0.0083796
0.00837529
0.00836695
0.00835457
0.00837966
0.00837534
0.008367
0.00835462
0.000934429
0.00183536
0.00249339
0.00289803
0.00313426
0.00326446
0.00332488
0.00333546
0.00330667
0.00324345
0.00314714
0.00301641
0.0028474
0.00263315
0.00236205
0.00201454
0.00155586
0.000921592
0.000118896
0.00201298
0.00263598
0.0031252
0.00346067
0.00367182
0.00379175
0.00384464
0.00384567
0.00380345
0.00372201
0.00360215
0.003442
0.00323699
0.00297926
0.00265603
0.00224627
0.00171389
0.000995464
0.000124423
0.00304953
0.00342421
0.0037573
0.00400775
0.00417466
0.00426987
0.00430579
0.00429159
0.00423288
0.00413211
0.00398909
0.00380123
0.00356332
0.00326675
0.00289791
0.00243488
0.00184095
0.00105405
0.000128781
0.00392138
0.00413724
0.00435119
0.00452376
0.00464211
0.00470602
0.00471936
0.00468607
0.00460867
0.00448777
0.00432207
0.00410815
0.00384016
0.00350887
0.00310005
0.00259122
0.00194532
0.00110165
0.000132285
0.00463701
0.00475851
0.00488882
0.0049981
0.00507137
0.0051029
0.00509144
0.00503712
0.00493986
0.00479859
0.00461088
0.00437253
0.00407705
0.0037147
0.00327079
0.00272238
0.00203226
0.00114093
0.000135139
0.00522746
0.00529244
0.00536553
0.00542603
0.0054606
0.00546179
0.00542568
0.00534995
0.00523263
0.00507129
0.00486251
0.00460137
0.00428084
0.00389074
0.00341595
0.00283326
0.00210529
0.00117366
0.00013748
0.00571992
0.00574973
0.00578347
0.00580706
0.0058097
0.0057839
0.00572464
0.00562824
0.00549145
0.00531082
0.00508215
0.00479992
0.00445664
0.00404175
0.00353982
0.00292738
0.00216694
0.00120107
0.000139407
0.00613457
0.00614142
0.00614755
0.00614322
0.0061199
0.00607079
0.00599058
0.0058749
0.00571974
0.00552096
0.00527377
0.00497219
0.00460836
0.0041714
0.00364564
0.00300738
0.00221907
0.00122407
0.000140995
0.00648605
0.00647717
0.00646338
0.00643771
0.0063934
0.00632445
0.00622568
0.00609245
0.00592035
0.00570479
0.00544059
0.00512141
0.00473911
0.00428259
0.00373596
0.00307534
0.00226314
0.00124338
0.000142303
0.00678514
0.00676499
0.00673643
0.0066942
0.00663286
0.00654715
0.00643216
0.00628323
0.00609577
0.00586494
0.00558529
0.00525026
0.00485148
0.00437769
0.00381285
0.00313293
0.0023003
0.00125955
0.000143379
0.00704003
0.00701151
0.00697167
0.00691641
0.00684118
0.00674134
0.0066123
0.00644951
0.00624831
0.00600375
0.00571022
0.00536103
0.00494766
0.00445872
0.00387805
0.00318155
0.00233153
0.00127305
0.000144259
0.00725717
0.00722222
0.0071736
0.00710791
0.00702128
0.00690954
0.00676841
0.00659348
0.00638013
0.00612336
0.0058175
0.00545576
0.00502956
0.00452741
0.00393308
0.0032224
0.00235763
0.00128427
0.000144976
0.00744179
0.00740179
0.00734618
0.00727206
0.00717601
0.00705425
0.00690276
0.00671729
0.00649328
0.00622577
0.00590905
0.0055363
0.00509889
0.0045853
0.00397925
0.0032565
0.00237933
0.00129354
0.000145557
0.00759827
0.00755423
0.00749299
0.00741198
0.00730812
0.00717792
0.00701758
0.00682301
0.00658974
0.00631285
0.00598665
0.00560432
0.00515721
0.00463379
0.00401774
0.0032848
0.00239724
0.00130114
0.000146024
0.00773037
0.00768305
0.00761722
0.00753054
0.00742018
0.00728288
0.00711502
0.00691263
0.00667138
0.00638637
0.00605196
0.00566136
0.00520592
0.0046741
0.00404959
0.00330811
0.00241192
0.00130733
0.000146398
0.00784135
0.00779134
0.00772174
0.00763038
0.00751461
0.00737133
0.0071971
0.00698806
0.00673995
0.00644798
0.00610653
0.00570885
0.00524631
0.00470738
0.00407575
0.00332715
0.00242386
0.00131234
0.000146695
0.00793406
0.00788184
0.00780914
0.00771391
0.00759362
0.00744535
0.00726573
0.00705105
0.00679712
0.00649922
0.00615178
0.00574808
0.00527953
0.00473463
0.00409708
0.0033426
0.00243348
0.00131635
0.000146929
0.00801107
0.00795702
0.00788175
0.00778331
0.00765928
0.00750682
0.00732269
0.00710326
0.00684442
0.0065415
0.006189
0.00578024
0.00530666
0.00475677
0.00411432
0.00335502
0.00244118
0.00131954
0.000147112
0.00807461
0.00801906
0.00794168
0.00784059
0.00771345
0.00755751
0.00736961
0.0071462
0.00688324
0.00657611
0.00621938
0.00580639
0.00532862
0.00477462
0.00412814
0.00336492
0.00244729
0.00132206
0.000147253
0.0081267
0.00806991
0.00799079
0.00788751
0.00775781
0.00759898
0.00740796
0.00718124
0.00691485
0.00660423
0.00624398
0.00582748
0.00534626
0.00478889
0.00413914
0.00337276
0.00245209
0.00132402
0.000147362
0.00816911
0.0081113
0.00803075
0.00792568
0.00779386
0.00763266
0.00743906
0.00720961
0.00694039
0.00662688
0.00626373
0.00584436
0.00536032
0.0048002
0.00414781
0.0033789
0.00245583
0.00132554
0.000147445
0.00820339
0.00814475
0.00806303
0.00795649
0.00782294
0.0076598
0.00746409
0.0072324
0.00696086
0.00664499
0.00627947
0.00585776
0.00537143
0.0048091
0.00415459
0.00338368
0.00245872
0.00132671
0.000147508
0.00823089
0.00817158
0.00808891
0.00798118
0.00784623
0.00768151
0.00748407
0.00725056
0.00697714
0.00665935
0.00629191
0.0058683
0.00538013
0.00481604
0.00415985
0.00338736
0.00246094
0.0013276
0.000147555
0.0082528
0.00819294
0.00810951
0.00800081
0.00786473
0.00769873
0.00749991
0.00726492
0.00698998
0.00667064
0.00630166
0.00587654
0.0053869
0.00482141
0.0041639
0.00339018
0.00246262
0.00132827
0.00014759
0.00827013
0.00820982
0.00812578
0.00801631
0.00787931
0.00771229
0.00751235
0.00727619
0.00700003
0.00667946
0.00630925
0.00588292
0.00539213
0.00482553
0.00416699
0.00339232
0.00246389
0.00132877
0.000147616
0.00828373
0.00822307
0.00813854
0.00802845
0.00789073
0.00772289
0.00752206
0.00728497
0.00700783
0.00668629
0.00631511
0.00588783
0.00539612
0.00482867
0.00416933
0.00339392
0.00246484
0.00132915
0.000147635
0.00829432
0.00823338
0.00814846
0.00803789
0.00789959
0.00773111
0.00752958
0.00729175
0.00701385
0.00669153
0.00631959
0.00589158
0.00539916
0.00483104
0.00417109
0.00339513
0.00246555
0.00132942
0.000147649
0.00830252
0.00824136
0.00815613
0.00804517
0.00790643
0.00773744
0.00753536
0.00729695
0.00701845
0.00669554
0.006323
0.00589441
0.00540145
0.00483282
0.0041724
0.00339602
0.00246607
0.00132962
0.000147659
0.00830881
0.00824748
0.00816201
0.00805075
0.00791166
0.00774227
0.00753977
0.0073009
0.00702195
0.00669857
0.00632557
0.00589654
0.00540316
0.00483414
0.00417337
0.00339667
0.00246644
0.00132977
0.000147667
0.0083136
0.00825214
0.00816648
0.008055
0.00791563
0.00774594
0.0075431
0.00730389
0.00702458
0.00670084
0.0063275
0.00589813
0.00540444
0.00483512
0.00417408
0.00339715
0.00246672
0.00132988
0.000147672
0.00831723
0.00825566
0.00816987
0.0080582
0.00791862
0.0077487
0.00754561
0.00730613
0.00702655
0.00670254
0.00632893
0.00589931
0.00540537
0.00483584
0.0041746
0.0033975
0.00246692
0.00132995
0.000147675
0.00831995
0.00825831
0.0081724
0.0080606
0.00792086
0.00775076
0.00754748
0.0073078
0.00702801
0.0067038
0.00632999
0.00590018
0.00540606
0.00483636
0.00417498
0.00339775
0.00246706
0.00133
0.000147678
0.00832198
0.00826028
0.00817429
0.00806239
0.00792253
0.00775229
0.00754887
0.00730904
0.00702909
0.00670472
0.00633076
0.00590081
0.00540656
0.00483674
0.00417525
0.00339793
0.00246716
0.00133004
0.00014768
0.00832349
0.00826174
0.00817569
0.00806371
0.00792376
0.00775342
0.00754989
0.00730994
0.00702988
0.0067054
0.00633133
0.00590127
0.00540692
0.00483702
0.00417545
0.00339806
0.00246723
0.00133007
0.000147681
0.00832459
0.00826281
0.00817672
0.00806468
0.00792466
0.00775425
0.00755063
0.0073106
0.00703046
0.00670589
0.00633174
0.0059016
0.00540718
0.00483721
0.00417559
0.00339815
0.00246728
0.00133009
0.000147682
0.0083254
0.00826359
0.00817746
0.00806538
0.00792531
0.00775485
0.00755117
0.00731108
0.00703087
0.00670624
0.00633203
0.00590183
0.00540736
0.00483735
0.00417568
0.00339821
0.00246732
0.0013301
0.000147682
0.00832598
0.00826415
0.008178
0.00806589
0.00792578
0.00775528
0.00755156
0.00731142
0.00703117
0.00670649
0.00633224
0.005902
0.00540749
0.00483744
0.00417575
0.00339825
0.00246734
0.00133011
0.000147683
0.00832639
0.00826455
0.00817838
0.00806624
0.00792612
0.00775558
0.00755183
0.00731166
0.00703138
0.00670667
0.00633238
0.00590212
0.00540758
0.00483751
0.0041758
0.00339828
0.00246736
0.00133012
0.000147683
0.00832667
0.00826483
0.00817864
0.00806649
0.00792635
0.00775579
0.00755202
0.00731183
0.00703152
0.00670679
0.00633248
0.0059022
0.00540765
0.00483756
0.00417583
0.0033983
0.00246737
0.00133012
0.000147683
0.00832686
0.00826501
0.00817882
0.00806666
0.0079265
0.00775593
0.00755215
0.00731194
0.00703162
0.00670687
0.00633255
0.00590225
0.00540769
0.00483759
0.00417585
0.00339832
0.00246738
0.00133012
0.000147683
0.00832698
0.00826512
0.00817892
0.00806676
0.00792659
0.00775601
0.00755222
0.00731201
0.00703167
0.00670692
0.00633259
0.00590228
0.00540771
0.0048376
0.00417586
0.00339832
0.00246738
0.00133012
0.000147683
0.00832703
0.00826517
0.00817897
0.00806681
0.00792664
0.00775605
0.00755226
0.00731204
0.0070317
0.00670694
0.0063326
0.0059023
0.00540772
0.00483761
0.00417587
0.00339833
0.00246738
0.00133012
0.000147683
)
;

boundaryField
{
    leftWall
    {
        type            nutkWallFunction;
        blending        stepwise;
        value           nonuniform List<scalar> 
50
(
0
0
1.14578e-06
2.51704e-06
3.5474e-06
4.36403e-06
5.03596e-06
5.60332e-06
6.3599e-06
7.1407e-06
7.74881e-06
8.23219e-06
8.62109e-06
8.9361e-06
9.19207e-06
9.40017e-06
9.56907e-06
9.70573e-06
9.81582e-06
9.904e-06
9.97422e-06
1.00297e-05
1.00733e-05
1.01072e-05
1.01335e-05
1.01536e-05
1.01689e-05
1.01804e-05
1.0189e-05
1.01955e-05
1.02002e-05
1.02036e-05
1.02062e-05
1.0208e-05
1.02093e-05
1.02102e-05
1.02108e-05
1.02113e-05
1.02116e-05
1.02118e-05
1.0212e-05
1.02121e-05
1.02122e-05
1.02122e-05
1.02123e-05
1.02123e-05
1.02123e-05
1.02123e-05
1.02123e-05
1.02123e-05
)
;
    }
    rightWall
    {
        type            nutkWallFunction;
        blending        stepwise;
        value           nonuniform List<scalar> 
50
(
0
7.47731e-07
2.83517e-06
4.33077e-06
5.46177e-06
6.35989e-06
7.09914e-06
7.72331e-06
8.55548e-06
9.41409e-06
1.00828e-05
1.06145e-05
1.10426e-05
1.13898e-05
1.16724e-05
1.19026e-05
1.20898e-05
1.22418e-05
1.23645e-05
1.24632e-05
1.25421e-05
1.26047e-05
1.26541e-05
1.26927e-05
1.27227e-05
1.27458e-05
1.27634e-05
1.27768e-05
1.27868e-05
1.27943e-05
1.27999e-05
1.2804e-05
1.2807e-05
1.28091e-05
1.28107e-05
1.28118e-05
1.28126e-05
1.28131e-05
1.28135e-05
1.28138e-05
1.2814e-05
1.28141e-05
1.28142e-05
1.28142e-05
1.28143e-05
1.28143e-05
1.28143e-05
1.28143e-05
1.28143e-05
1.28143e-05
)
;
    }
    lowerWall
    {
        type            nutkWallFunction;
        blending        stepwise;
        value           nonuniform List<scalar> 
62
(
0
0
0
0
0
0
0
0
0
0
0
0
0
0
0
0
0
0
0
0
0
0
0
0
5.06286e-07
2.98229e-06
4.81041e-06
6.35709e-06
7.92283e-06
1.00333e-05
1.40422e-05
1.60233e-05
1.40493e-05
1.40231e-05
1.59108e-05
0
2.12972e-06
4.81084e-06
6.8195e-06
8.5392e-06
1.03116e-05
1.2722e-05
1.71072e-05
0
0
0
0
0
0
0
0
0
0
0
0
0
0
0
0
0
0
0
)
;
    }
    atmosphere
    {
        type            calculated;
        value           nonuniform List<scalar> 
46
(
0.000130825
0.00120072
0.00225961
0.00314038
0.00388448
0.00452411
0.00508067
0.00556871
0.00599853
0.00637769
0.006712
0.00700608
0.00726374
0.00748821
0.00768229
0.00784845
0.00798887
0.00810546
0.00819989
0.00827356
0.00832764
0.00836298
0.00838016
0.00837966
0.00837534
0.008367
0.00835462
0.00832703
0.00826517
0.00817897
0.00806681
0.00792664
0.00775605
0.00755226
0.00731204
0.0070317
0.00670694
0.0063326
0.0059023
0.00540772
0.00483761
0.00417587
0.00339833
0.00246738
0.00133012
0.000147683
)
;
    }
    defaultFaces
    {
        type            empty;
    }
}


// ************************************************************************* //
