/*--------------------------------*- C++ -*----------------------------------*\
| =========                 |                                                 |
| \\      /  F ield         | OpenFOAM: The Open Source CFD Toolbox           |
|  \\    /   O peration     | Version:  2406                                  |
|   \\  /    A nd           | Website:  www.openfoam.com                      |
|    \\/     M anipulation  |                                                 |
\*---------------------------------------------------------------------------*/
FoamFile
{
    version     2.0;
    format      ascii;
    arch        "LSB;label=32;scalar=64";
    class       volScalarField;
    location    "1";
    object      nut;
}
// * * * * * * * * * * * * * * * * * * * * * * * * * * * * * * * * * * * * * //

dimensions      [0 2 -1 0 0 0 0];

internalField   nonuniform List<scalar> 
2268
(
0.000289337
0.000213038
0.000213038
0.000213038
0.000213038
0.000213038
0.000213038
0.000213038
0.000213038
0.000213038
0.000213038
0.000213038
0.000213038
5.70492e-05
2.68915e-05
3.15987e-05
3.46395e-05
3.62225e-05
3.67479e-05
3.61954e-05
3.41882e-05
2.96534e-05
1.82059e-05
0.000450785
0.000254306
0.000232321
0.000225511
0.000222385
0.000220634
0.000219545
0.000218827
0.000218345
0.000218025
0.00021783
0.000217737
0.000217737
2.83387e-05
0.000119809
0.000231932
0.000275872
0.000297121
0.000304618
0.000298681
0.000274199
0.000215671
5.97682e-05
0.000450785
0.000288167
0.000251962
0.000238672
0.000232268
0.000228639
0.000226375
0.000224885
0.000223885
0.000223223
0.000222819
0.000222626
0.000222626
2.94167e-05
0.000180078
0.00038428
0.000479314
0.000526203
0.000543268
0.000531245
0.000478876
0.000354317
7.07191e-05
0.000450785
0.000314823
0.000270613
0.00025196
0.000242449
0.000236938
0.000233468
0.000231176
0.000229635
0.000228616
0.000227992
0.000227696
0.000227696
3.31776e-05
0.000224511
0.000490724
0.00062866
0.00069915
0.000725666
0.000708861
0.000631981
0.000450919
7.89732e-05
0.000450785
0.000335499
0.000287638
0.000264953
0.000252709
0.000245413
0.000240757
0.00023766
0.000235569
0.000234184
0.000233336
0.000232932
0.000232932
3.73881e-05
0.000260817
0.000572585
0.00074611
0.000838038
0.000874144
0.000854589
0.000757607
0.000528466
8.62552e-05
0.000450785
0.000351572
0.000302834
0.000277373
0.000262866
0.000253958
0.000248176
0.000244294
0.000241659
0.000239907
0.000238832
0.00023832
0.00023832
4.18526e-05
0.000292323
0.000640992
0.000845525
0.000957679
0.00100413
0.000984462
0.00087219
0.000600518
9.41024e-05
0.000450785
0.000364209
0.000316232
0.000289057
0.00027278
0.000262475
0.000255662
0.000251035
0.000247873
0.000245762
0.000244464
0.000243844
0.000243844
4.65626e-05
0.000320835
0.000702153
0.000935502
0.0010677
0.00112585
0.00110941
0.000987975
0.000678737
0.000105337
0.000450785
0.00037429
0.000327979
0.000299933
0.000282353
0.000270886
0.000263157
0.000257843
0.000254182
0.000251726
0.00025021
0.000249486
0.000249486
5.15301e-05
0.000347486
0.00075995
0.00102178
0.00117473
0.00124644
0.0012373
0.00111609
0.000782923
0.000127001
1.97175e-05
3.35947e-05
3.92735e-05
4.2295e-05
4.4027e-05
4.50388e-05
4.55991e-05
4.58399e-05
4.58257e-05
4.55836e-05
4.51174e-05
4.44129e-05
4.34371e-05
4.21318e-05
4.03981e-05
3.80578e-05
3.47499e-05
2.95531e-05
2.91124e-05
7.33327e-05
0.00026432
0.000338747
0.000376262
0.000396911
0.000408583
0.000414814
0.000417263
0.000416707
0.000413468
0.000407593
0.000398925
0.000387095
0.000371435
0.000350772
0.000322905
0.000283081
0.000217937
6.67064e-05
8.73567e-05
0.000449741
0.00061508
0.000698612
0.000743833
0.00076891
0.000782002
0.000786876
0.000785263
0.000777879
0.000764852
0.000745888
0.000720257
0.000686613
0.00064254
0.000583412
0.000499134
0.00036197
7.75063e-05
9.81217e-05
0.000582839
0.000830739
0.000957674
0.00102608
0.0010637
0.00108311
0.00109011
0.00108736
0.00107594
0.00105609
0.0010274
0.000988853
0.000938511
0.000872872
0.000785198
0.000660902
0.000461582
8.5442e-05
0.000107598
0.000689931
0.00101074
0.00117616
0.00126507
0.00131376
0.00133871
0.00134746
0.00134349
0.00132822
0.00130198
0.00126429
0.00121383
0.00114818
0.00106287
0.000949344
0.000789341
0.000536809
9.16277e-05
0.00011761
0.000787623
0.00117403
0.00137227
0.0014785
0.00153663
0.00156625
0.00157634
0.00157101
0.001552
0.00151968
0.00147348
0.00141184
0.00133186
0.00122819
0.00109065
0.000897893
0.000598185
9.67213e-05
0.000131355
0.000890234
0.00133508
0.00155906
0.00167907
0.00174493
0.00177838
0.00178937
0.00178252
0.00175975
0.00172148
0.00166705
0.00159465
0.00150087
0.00137953
0.00121894
0.000995003
0.00065151
0.000101093
0.000156237
0.00102119
0.00150672
0.00174622
0.0018761
0.00194805
0.00198453
0.00199602
0.00198742
0.0019608
0.0019166
0.001854
0.00177092
0.00166347
0.00152459
0.00134111
0.00108638
0.000700322
0.000104952
0.000450785
0.000387195
0.000344345
0.000315955
0.000296959
0.000284001
0.000275003
0.000268692
0.000264289
0.000261311
0.000259463
0.000258578
0.000258578
5.98154e-05
0.000387458
0.000849039
0.00115691
0.00134459
0.00144094
0.00145025
0.0013524
0.00109909
0.000643009
0.000450785
0.000399213
0.00036127
0.000333993
0.000314483
0.000300478
0.000290378
0.0002831
0.000277922
0.000274373
0.000272152
0.000271083
0.000271083
7.14036e-05
0.00043225
0.000945273
0.00130489
0.00153612
0.00167005
0.00171854
0.00167853
0.00153853
0.00129773
0.000450785
0.000408009
0.000374621
0.000349176
0.000330021
0.000315682
0.000304995
0.000297098
0.000291375
0.0002874
0.000284891
0.000283677
0.000283677
8.32544e-05
0.00046967
0.001023
0.00142562
0.00169616
0.00186745
0.00195741
0.001974
0.00192311
0.00182176
0.000450785
0.000414731
0.000385375
0.000362019
0.000343726
0.000329557
0.000318697
0.00031049
0.00030444
0.000300185
0.000297477
0.00029616
0.00029616
9.51856e-05
0.000501676
0.00108801
0.00152728
0.00183274
0.00203822
0.00216525
0.00222712
0.00223509
0.00220544
0.000450785
0.000420035
0.000394195
0.000372953
0.000355791
0.000342125
0.000331399
0.000323136
0.000316951
0.000312551
0.000309728
0.000308349
0.000308349
0.000107003
0.000529335
0.00114314
0.00161387
0.00194979
0.002185
0.00234281
0.00243853
0.00248406
0.00249171
0.000450785
0.000424321
0.000401532
0.000382316
0.000366405
0.000353445
0.00034307
0.000334944
0.00032878
0.00032435
0.000321487
0.000320083
0.000320083
0.000118514
0.000553311
0.00119008
0.00168778
0.00204994
0.00231034
0.00249302
0.00261384
0.00268407
0.00271295
0.000450785
0.000427843
0.0004077
0.00039037
0.000375733
0.000363589
0.000353707
0.000345856
0.000339832
0.000335464
0.000332624
0.000331225
0.000331225
0.000129547
0.000574085
0.00123003
0.00175078
0.00213537
0.00241689
0.00261961
0.00275938
0.00284676
0.00288917
0.000450785
0.000430771
0.000412922
0.000397314
0.000383919
0.000372635
0.000363326
0.000355843
0.000350043
0.000345806
0.000343036
0.000341667
0.000341667
0.000139964
0.000592071
0.001264
0.00180443
0.00220809
0.0025073
0.00272626
0.0028807
0.00298066
0.00303257
0.000450785
0.000433224
0.00041736
0.000403304
0.000391081
0.000380656
0.000371957
0.000364893
0.000359373
0.000355314
0.000352647
0.000351325
0.000351325
0.000149664
0.00060767
0.00129297
0.00185017
0.00227007
0.0025841
0.00281634
0.00298239
0.00309197
0.003151
0.000450785
0.000435285
0.000421136
0.000408461
0.00039732
0.00038772
0.000379633
0.000373012
0.000367801
0.000363947
0.000361404
0.000360142
0.000360142
0.000158595
0.000621305
0.00131789
0.00188945
0.00232321
0.00264972
0.00289289
0.00306823
0.00318533
0.00324984
0.000450785
0.000437018
0.000424341
0.000412883
0.000402722
0.000393892
0.000386395
0.000380214
0.00037532
0.000371684
0.000369277
0.000368079
0.000368079
0.000166744
0.000633447
0.00133977
0.00192376
0.00236943
0.00270648
0.00295867
0.00314149
0.00326445
0.00333317
0.000450785
0.00043847
0.000427048
0.000416648
0.000407358
0.000399228
0.000392281
0.00038652
0.000381937
0.000378518
0.000376248
0.000375116
0.000375116
0.000174152
0.000644644
0.00135969
0.00195468
0.00241072
0.00275674
0.00301634
0.00320507
0.00333249
0.00340426
0.000450785
0.000439677
0.000429313
0.00041982
0.00041129
0.000403781
0.000397331
0.000391957
0.000387664
0.000384451
0.000382314
0.000381246
0.000381246
0.000180912
0.000655577
0.00137895
0.00198401
0.00244928
0.00280293
0.00306853
0.00326173
0.00339229
0.003466
0.000450785
0.000440667
0.000431182
0.000422451
0.000414568
0.000407597
0.000401583
0.000396552
0.000392521
0.000389496
0.000387479
0.000386471
0.000386471
0.000187199
0.000667156
0.00139915
0.00201394
0.00248764
0.00284777
0.00311797
0.00331419
0.00344651
0.00352096
0.000450785
0.000441463
0.00043269
0.000424583
0.000417235
0.000410714
0.000405069
0.000400333
0.000396528
0.000393666
0.000391755
0.000390799
0.000390799
0.000193323
0.000680737
0.0014226
0.00204747
0.00252905
0.0028944
0.00316759
0.00336517
0.00349769
0.00357155
0.000450785
0.000442081
0.000433865
0.00042625
0.000419328
0.000413168
0.000407821
0.000403324
0.000399704
0.000396977
0.000395155
0.000394242
0.000394242
0.000199879
0.000698651
0.0014532
0.0020892
0.00257791
0.00294665
0.00322064
0.00341744
0.00354827
0.00361997
0.000450785
0.000442534
0.000434728
0.000427479
0.000420874
0.000414984
0.000409862
0.000405548
0.000402069
0.000399445
0.00039769
0.000396811
0.000396811
0.000208169
0.000725803
0.00149867
0.00214697
0.00264058
0.00300927
0.00328065
0.00347374
0.00360054
0.00366822
0.000450785
0.00044283
0.000435295
0.000428287
0.000421893
0.000416183
0.000411212
0.00040702
0.000403636
0.000401083
0.000399373
0.000398517
0.000398517
0.000221683
0.000775757
0.00157663
0.00223456
0.00272591
0.0030877
0.00335114
0.0035366
0.00365647
0.00371801
0.000450785
0.000442978
0.000435576
0.000428688
0.000422399
0.00041678
0.000411884
0.000407753
0.000404417
0.000401899
0.000400213
0.000399368
0.000399368
0.000255181
0.000898978
0.00172895
0.00237391
0.00284418
0.00318697
0.0034349
0.00360787
0.00371758
0.00377072
0.000450785
0.000442978
0.000435577
0.000428688
0.000422399
0.00041678
0.000411884
0.000407753
0.000404418
0.000401899
0.000400213
0.000399368
0.000249964
0.000605151
0.00133222
0.00203222
0.00258502
0.00300061
0.00330868
0.00353276
0.00368831
0.0037847
0.0038273
0.000192165
0.000171089
0.000174358
0.000178983
0.000182925
0.000186288
0.000189454
0.00019293
0.000197477
0.000204552
0.000217818
0.000252345
0.000603962
0.00120075
0.00183153
0.00238588
0.00283432
0.00318329
0.00344819
0.00364292
0.00377742
0.00385803
0.00388838
9.61597e-05
0.000255161
0.000351736
0.000422991
0.000479634
0.000526915
0.000568276
0.000606628
0.000645328
0.000690001
0.000754735
0.000890272
0.00133111
0.00183408
0.00231607
0.0027404
0.00309422
0.00337832
0.00359878
0.00376226
0.00387399
0.00393742
0.00395444
8.84234e-05
0.000502057
0.000737629
0.000895352
0.0010151
0.00111281
0.00119698
0.00127363
0.0013488
0.00143151
0.00154012
0.00171654
0.00203582
0.00239794
0.00275206
0.00307278
0.00334845
0.00357559
0.00375477
0.00388791
0.00397686
0.00402278
0.00402605
9.56145e-05
0.000657253
0.00102599
0.00127194
0.00145507
0.00160209
0.00172713
0.00183945
0.00194711
0.00205991
0.00219261
0.00236733
0.00260344
0.00286739
0.00313059
0.00337481
0.00358956
0.0037696
0.00391271
0.00401815
0.00408556
0.00411449
0.0041042
0.000101507
0.000751606
0.00122057
0.00154228
0.00178287
0.00197532
0.00213778
0.00228183
0.00241654
0.00255085
0.00269498
0.00285971
0.00305019
0.00325431
0.00345734
0.00364741
0.00381632
0.00395881
0.00407166
0.00415279
0.00420062
0.0042137
0.00419051
0.000106005
0.000817561
0.00136095
0.00174399
0.00203381
0.00226632
0.00246189
0.00263343
0.00279029
0.00294034
0.00309077
0.00324744
0.00341222
0.00358029
0.00374415
0.00389655
0.00403157
0.00414477
0.00423285
0.00429324
0.0043238
0.00432251
0.0042874
0.000109609
0.000868848
0.00147094
0.00190458
0.00223663
0.00250433
0.00272918
0.00292471
0.00310025
0.0032629
0.00341826
0.00357022
0.00372012
0.00386607
0.0040043
0.00413049
0.00424062
0.00433122
0.00439932
0.00444237
0.00445802
0.00444402
0.00439818
0.000112672
0.000912368
0.00156448
0.00204213
0.00241175
0.00271119
0.00296255
0.00317963
0.00337172
0.00354546
0.00370574
0.00385581
0.00399711
0.00412924
0.00425044
0.00435826
0.00445008
0.0045233
0.00457546
0.00460421
0.00460725
0.00458227
0.00452704
0.000115469
0.00095261
0.00165107
0.00216972
0.00257459
0.00290393
0.00318018
0.00341735
0.00362474
0.00380888
0.00397443
0.00412456
0.00426106
0.00438442
0.00449409
0.00458885
0.00466708
0.00472694
0.00476647
0.0047836
0.00477618
0.00474198
0.00467881
0.00011825
0.000993206
0.0017383
0.002298
0.00273794
0.00309678
0.00339731
0.00365378
0.00387573
0.00406982
0.00424085
0.00439222
0.00452613
0.00464374
0.00474536
0.00483062
0.00489864
0.00494821
0.00497779
0.00498562
0.00496976
0.00492812
0.0048586
0.000121273
0.00103751
0.00183303
0.00243645
0.00291314
0.00330228
0.00362715
0.00390252
0.00413838
0.00434185
0.00451815
0.00467112
0.00480349
0.00491703
0.00501268
0.00509074
0.00515092
0.00519248
0.0052143
0.0052149
0.00519254
0.00514528
0.00507117
0.000124818
0.00108874
0.00194158
0.00259368
0.00311029
0.00353137
0.00388104
0.00417489
0.00442377
0.00463561
0.00481636
0.00497052
0.00510146
0.00521153
0.00530226
0.00537449
0.00542841
0.00546369
0.00547954
0.00547474
0.00544776
0.00539681
0.00532008
0.00012918
0.0011498
0.00206948
0.0027771
0.00333796
0.00379314
0.00416801
0.00447957
0.00474002
0.00495854
0.00514216
0.00529631
0.00542506
0.00553143
0.00561749
0.00568454
0.00573318
0.00576343
0.00577479
0.00576627
0.00573654
0.00568395
0.00560681
0.000134667
0.00122306
0.00222106
0.00299257
0.00360281
0.00409432
0.00449439
0.00482212
0.00509179
0.00531441
0.00549849
0.00565058
0.00577566
0.0058774
0.00595839
0.00602035
0.00606424
0.00609036
0.00609845
0.00608775
0.0060571
0.00600502
0.0059299
0.000141587
0.00131035
0.00239967
0.00324472
0.00390997
0.00443964
0.00486383
0.0052049
0.00548018
0.00570318
0.00588433
0.00603158
0.00615083
0.00624645
0.0063215
0.00637805
0.00641735
0.00643994
0.00644578
0.00643429
0.00640448
0.00635504
0.00628447
0.000150276
0.00141368
0.00260918
0.00353897
0.00426484
0.00483305
0.00527819
0.00562763
0.00590306
0.00612133
0.00629516
0.00643401
0.00654476
0.00663235
0.00670026
0.0067508
0.00678543
0.00680487
0.00680924
0.00679815
0.00677079
0.00672599
0.0066624
0.000161172
0.00153669
0.00285746
0.00388541
0.00467626
0.00527998
0.00573895
0.00608836
0.00635596
0.00656267
0.00672373
0.00685003
0.00694923
0.00702668
0.00708607
0.00712985
0.00715956
0.00717603
0.00717951
0.00716976
0.00714614
0.00710767
0.00705315
0.000174968
0.00168746
0.00316253
0.00430488
0.00516062
0.00578943
0.00624822
0.00658414
0.00683273
0.00701928
0.00716124
0.00727046
0.00735496
0.00742016
0.00746969
0.00750594
0.00753041
0.00754395
0.00754689
0.00753909
0.0075201
0.00748914
0.00744518
0.000192964
0.00188454
0.00356474
0.00483814
0.00574549
0.00637431
0.00680807
0.00711058
0.00732571
0.00748217
0.00759837
0.00768615
0.00775313
0.00780427
0.00784283
0.00787092
0.00788986
0.00790043
0.00790294
0.00789737
0.0078834
0.00786046
0.00782775
0.000218521
0.00217222
0.00415358
0.00555967
0.00647073
0.00704766
0.00741682
0.00765968
0.00782505
0.0079416
0.00802624
0.00808915
0.0081366
0.00817256
0.00819953
0.00821913
0.0082324
0.00823991
0.00824194
0.00823851
0.00822945
0.00821436
0.00819269
0.000267932
0.0026476
0.00511989
0.00658964
0.0073773
0.00781004
0.00806139
0.00821655
0.00831794
0.00838752
0.00843719
0.0084737
0.00850104
0.00852166
0.0085371
0.00854834
0.00855598
0.0085604
0.00856178
0.00856014
0.00855541
0.00854737
0.00853569
0.000242464
0.0034799
0.00677082
0.00802496
0.00844773
0.00862063
0.0087073
0.00875737
0.00878914
0.00881064
0.00882591
0.00883709
0.00884546
0.00885178
0.00885652
0.00885998
0.00886235
0.00886376
0.00886427
0.00886388
0.00886257
0.00886029
0.00885688
0.000140431
0.000131468
0.000133115
0.000146144
0.00107609
0.00104357
0.00105994
0.00112673
0.00174659
0.00173081
0.00175943
0.00183095
0.002177
0.00217578
0.00221076
0.00227849
0.00248149
0.00248733
0.00252648
0.00259463
0.0027117
0.00272147
0.00276389
0.00283415
0.00289341
0.0029059
0.00295104
0.00302373
0.00304077
0.00305538
0.00310283
0.00317779
0.00316228
0.00317864
0.00322802
0.00330495
0.00326357
0.00328135
0.00333231
0.00341087
0.00334876
0.00336764
0.00341983
0.00349966
0.00342115
0.00344078
0.00349384
0.00357459
0.00348355
0.00350357
0.00355712
0.00363842
0.00353848
0.00355846
0.0036121
0.00369357
0.00358823
0.00360771
0.00366099
0.00374221
0.00363489
0.00365334
0.00370577
0.00378629
0.00368032
0.00369714
0.00374819
0.00382754
0.00372614
0.00374068
0.0037898
0.00386751
0.00377367
0.0037853
0.00383194
0.00390753
0.00382397
0.00383208
0.00387574
0.00394879
0.00387787
0.00388196
0.00392223
0.0039924
0.00393612
0.00393587
0.00397248
0.00403953
0.00399965
0.00399491
0.00402771
0.00409153
0.00406976
0.00406053
0.00408952
0.0041501
0.00414833
0.00413476
0.00416007
0.0042175
0.00423798
0.00422035
0.00424219
0.00429665
0.00434221
0.00432087
0.00433951
0.00439122
0.0044653
0.00444068
0.00445645
0.00450563
0.00461221
0.00458481
0.00459804
0.00464488
0.0047882
0.00475857
0.00476959
0.00481424
0.00499821
0.00496698
0.0049761
0.00501861
0.00524604
0.00521394
0.00522144
0.00526173
0.00553339
0.00550125
0.0055074
0.00554523
0.00585904
0.00582778
0.00583279
0.00586778
0.00621826
0.00618887
0.00619291
0.00622457
0.00660291
0.00657636
0.00657957
0.00660734
0.00700219
0.00697933
0.00698182
0.00700521
0.00740408
0.00738555
0.00738741
0.00740607
0.00779715
0.00778328
0.0077846
0.00779841
0.00817244
0.0081632
0.00816405
0.00817319
0.00852483
0.00851984
0.00852029
0.00852526
0.00885374
0.00885234
0.00885249
0.00885399
0.000758223
0.00139651
0.00181097
0.00205166
0.00219114
0.00227059
0.00231093
0.00232269
0.00231099
0.00227803
0.00222418
0.00214838
0.00204807
0.00191847
0.00175113
0.00153049
0.00122607
0.000772566
0.000110303
0.00146897
0.00189648
0.0022123
0.00242276
0.00255612
0.00263552
0.00267567
0.00268502
0.002668
0.00262649
0.00256061
0.00246893
0.00234828
0.00219294
0.0019929
0.00173022
0.00137079
0.00084556
0.000115848
0.00203332
0.00232928
0.00257115
0.00274798
0.00286755
0.00294095
0.0029771
0.00298187
0.00295854
0.00290843
0.00283128
0.00272529
0.00258676
0.00240924
0.00218159
0.00188419
0.00148067
0.000900199
0.000120069
0.00244736
0.00268287
0.00288008
0.00303063
0.00313591
0.00320103
0.00323113
0.00322994
0.00319965
0.00314095
0.00305318
0.00293416
0.0027798
0.00258305
0.00233196
0.00200576
0.00156657
0.000942544
0.00012334
0.00275783
0.00296845
0.00314124
0.00327389
0.00336715
0.00342389
0.00344719
0.00343941
0.00340189
0.00333477
0.00323703
0.00310617
0.00293776
0.00272433
0.00245334
0.00210317
0.00163492
0.000976026
0.000125908
0.00299917
0.00320062
0.00336075
0.0034819
0.0035659
0.00361508
0.00363166
0.00361722
0.00357252
0.00349733
0.00339031
0.00324874
0.00306791
0.00284002
0.00255211
0.00218197
0.00168989
0.00100281
0.000127936
0.00319241
0.00339135
0.00354513
0.00365905
0.00373611
0.00377884
0.00378917
0.00376835
0.0037168
0.00363402
0.00351847
0.00336726
0.00317547
0.00293509
0.00263283
0.00224602
0.00173436
0.00102434
0.000129542
0.00335025
0.0035494
0.00370011
0.00380943
0.00388131
0.00391863
0.00392336
0.00389663
0.00383868
0.0037489
0.00362562
0.0034658
0.00326441
0.00301327
0.00269884
0.00229814
0.00177038
0.00104169
0.000130812
0.00348079
0.00368112
0.0038304
0.0039367
0.00400463
0.00403744
0.00403723
0.00400513
0.00394136
0.00384523
0.00371499
0.00354756
0.00333781
0.00307744
0.00275275
0.0023405
0.00179952
0.00105564
0.000131815
0.00358952
0.00379126
0.00393988
0.00404407
0.00410891
0.00413792
0.00413338
0.00409649
0.00402749
0.00392566
0.00378927
0.00361515
0.00339817
0.00312993
0.00279662
0.00237479
0.00182299
0.00106681
0.000132602
0.00368055
0.00388352
0.00403178
0.00413438
0.00419669
0.00422248
0.00421416
0.00417303
0.00409937
0.00399251
0.00385069
0.00367077
0.00344757
0.00317265
0.00283213
0.00240241
0.0018418
0.00107571
0.000133215
0.00375711
0.00396099
0.00410891
0.00421017
0.00427032
0.00429331
0.00428168
0.00423681
0.00415906
0.00404777
0.00390123
0.0037163
0.00348778
0.00320724
0.00286072
0.00242452
0.00185678
0.00108275
0.000133691
0.00382197
0.00402628
0.00417373
0.00427372
0.00433195
0.00435246
0.0043379
0.00428974
0.00420839
0.00409325
0.00394262
0.00375338
0.00352035
0.00323509
0.00288359
0.0024421
0.00186862
0.00108827
0.000134057
0.00387751
0.00408174
0.00422845
0.00432713
0.00438354
0.0044018
0.00438464
0.00433356
0.00424905
0.00413055
0.00397638
0.00378346
0.00354661
0.0032574
0.0029018
0.00245601
0.00187792
0.00109258
0.000134336
0.00392589
0.00412942
0.00427506
0.00437231
0.00442693
0.00444308
0.00442354
0.00436987
0.00428257
0.00416113
0.00400391
0.00380783
0.00356776
0.00327524
0.00291626
0.00246697
0.0018852
0.00109593
0.000134549
0.00396903
0.00417122
0.00431539
0.00441099
0.00446378
0.00447791
0.00445617
0.00440014
0.00431036
0.00418633
0.00402645
0.00382766
0.00358483
0.00328954
0.00292775
0.00247561
0.00189089
0.00109852
0.000134709
0.00400863
0.0042088
0.00435107
0.0044448
0.00449566
0.00450779
0.00448395
0.00442575
0.00433372
0.00420739
0.00404516
0.003844
0.0035988
0.00330113
0.00293699
0.00248249
0.00189537
0.00110054
0.000134832
0.00404623
0.00424371
0.00438363
0.00447521
0.00452402
0.00453413
0.00450827
0.00444801
0.0043539
0.00422546
0.00406111
0.00385783
0.00361053
0.00331079
0.00294461
0.0024881
0.00189899
0.00110216
0.000134927
0.00408321
0.00427734
0.00441449
0.00450366
0.00455029
0.00455832
0.00453045
0.00446821
0.00437211
0.00424169
0.00407536
0.00387012
0.00362088
0.00331924
0.00295122
0.00249292
0.00190206
0.00110351
0.000135005
0.00412082
0.00431103
0.00444503
0.00453155
0.00457585
0.00458175
0.00455184
0.00448763
0.0043896
0.00425724
0.00408899
0.00388183
0.00363071
0.00332723
0.00295742
0.0024974
0.00190489
0.00110473
0.000135074
0.00416029
0.00434613
0.00447667
0.00456035
0.00460218
0.00460587
0.0045739
0.00450769
0.00440768
0.00427337
0.00410315
0.00389403
0.00364095
0.00333555
0.00296387
0.00250204
0.0019078
0.00110599
0.000135143
0.00420294
0.00438408
0.00451095
0.00459164
0.00463093
0.00463233
0.00459823
0.00452995
0.00442789
0.0042915
0.00411918
0.00390792
0.00365269
0.00334513
0.00297132
0.00250742
0.00191117
0.00110743
0.000135222
0.00425028
0.00442656
0.00454965
0.00462728
0.00466396
0.00466302
0.0046267
0.00455625
0.00445199
0.00431334
0.00413867
0.00392498
0.00366724
0.00335711
0.00298071
0.00251425
0.00191547
0.00110929
0.000135323
0.00430419
0.00447561
0.00459492
0.00466948
0.00470353
0.00470019
0.00466157
0.00458881
0.00448216
0.00434099
0.00416363
0.00394707
0.00368628
0.00337297
0.00299328
0.00252347
0.00192134
0.00111184
0.000135464
0.00436705
0.00453372
0.00464935
0.0047209
0.00475233
0.00474657
0.00470556
0.00463034
0.00452107
0.00437703
0.00419653
0.00397652
0.00371198
0.00339463
0.00301066
0.00253637
0.00192964
0.00111549
0.000135668
0.00444187
0.00460401
0.00471611
0.00478475
0.00481361
0.00480542
0.00476196
0.00468412
0.00457197
0.0044247
0.00424053
0.00401637
0.00374716
0.00342464
0.00303502
0.00255468
0.00194155
0.00112078
0.000135969
0.00453236
0.00469022
0.00479896
0.00486483
0.0048912
0.00488061
0.00483465
0.00475408
0.00463881
0.00448792
0.00429951
0.00407039
0.00379543
0.00346631
0.00306928
0.00258076
0.00195873
0.0011285
0.000136416
0.00464291
0.00479668
0.00490222
0.00496543
0.00498942
0.00497649
0.00492806
0.00484471
0.00472618
0.00457135
0.00437816
0.00414323
0.00386128
0.00352389
0.00311723
0.00261773
0.00198339
0.00113972
0.00013708
0.00477843
0.00492816
0.00503057
0.0050912
0.0051129
0.00509775
0.00504698
0.00496094
0.00483914
0.00468023
0.00448185
0.00424034
0.00395013
0.00360256
0.00318362
0.0026696
0.00201848
0.0011559
0.000138061
0.00494396
0.00508948
0.00518864
0.00524667
0.00526617
0.00524899
0.00519613
0.00510769
0.0049829
0.00482004
0.00461635
0.00436771
0.00406809
0.00370835
0.00327409
0.00274128
0.00206763
0.0011789
0.000139498
0.00514412
0.00528489
0.00538044
0.00543571
0.00545306
0.00543411
0.0053796
0.00528934
0.00516217
0.00499592
0.00478725
0.00453137
0.00422149
0.00384771
0.00339486
0.00283827
0.00213509
0.00121096
0.000141573
0.00538226
0.0055173
0.00560857
0.00566074
0.00567595
0.00565557
0.00560006
0.00550887
0.0053804
0.00521186
0.00499916
0.00473657
0.00441615
0.00402678
0.00355205
0.00296618
0.00222525
0.00125447
0.000144512
0.00565959
0.00578744
0.00587343
0.00592197
0.00593499
0.0059136
0.00585794
0.00576708
0.00563887
0.00546981
0.00525482
0.00498687
0.00465645
0.00425057
0.00375092
0.0031299
0.00234202
0.00131167
0.000148581
0.00597438
0.00609314
0.00617255
0.00621678
0.00622751
0.00620559
0.00615084
0.00606191
0.00593605
0.00576894
0.00555429
0.00528342
0.00494463
0.00452229
0.00399521
0.0033331
0.00248831
0.00138432
0.000154061
0.00632149
0.00642899
0.00650039
0.00653953
0.00654787
0.00652598
0.00647338
0.00638829
0.00626737
0.00610541
0.00589476
0.00562472
0.00528074
0.00484349
0.00428752
0.00357852
0.00266616
0.00147367
0.000161248
0.00669263
0.00678668
0.00684864
0.00688196
0.00688787
0.00686667
0.0068176
0.0067385
0.00662554
0.00647266
0.00627081
0.00600704
0.00566326
0.0052151
0.00463083
0.00386989
0.00287835
0.00158119
0.000170476
0.0070771
0.00715587
0.00720725
0.00723424
0.00723781
0.00721805
0.00717395
0.00710315
0.00700148
0.00686226
0.00667526
0.00642527
0.00609023
0.00563926
0.00503136
0.00421557
0.00313168
0.00171004
0.000182194
0.00746336
0.00752568
0.00756585
0.00758635
0.00758788
0.00757035
0.00753267
0.00747244
0.00738547
0.0072649
0.00709988
0.00687354
0.00656001
0.00612077
0.00550168
0.00463379
0.00344257
0.00186743
0.000197126
0.0078407
0.00788637
0.0079154
0.00792968
0.00792967
0.00791518
0.00788519
0.0078375
0.00776832
0.00767126
0.00753588
0.00734502
0.00707053
0.00666678
0.00606293
0.00515964
0.00384702
0.00206933
0.00021665
0.00820104
0.00823091
0.0082496
0.00825835
0.00825748
0.00824675
0.00822534
0.00819154
0.00814235
0.00807267
0.00797381
0.00783066
0.00761643
0.00728286
0.00674365
0.0058546
0.00442286
0.00235356
0.000244424
0.00854017
0.00855608
0.00856584
0.00857014
0.00856913
0.00856264
0.00855015
0.00853062
0.0085022
0.0084617
0.00840354
0.00831749
0.00818394
0.007963
0.00756931
0.00681776
0.00535139
0.00283203
0.000297502
0.00885828
0.0088628
0.00886551
0.00886661
0.00886614
0.00886404
0.00886014
0.00885411
0.00884538
0.00883296
0.00881507
0.00878837
0.00874604
0.00867248
0.00852605
0.00817396
0.00713489
0.00405835
0.000465812
)
;

boundaryField
{
    leftWall
    {
        type            nutkWallFunction;
        blending        stepwise;
        value           nonuniform List<scalar> 
50
(
0
0
0
0
0
0
0
0
0
0
0
0
0
0
0
0
0
0
0
0
0
0
0
0
0
0
0
5.36008e-05
1.87268e-05
4.69516e-06
3.73328e-06
4.90231e-06
5.8333e-06
6.53344e-06
7.08462e-06
7.5426e-06
7.94967e-06
8.34353e-06
8.76241e-06
9.24771e-06
9.84471e-06
1.06014e-05
1.1567e-05
1.2793e-05
1.43421e-05
1.6308e-05
1.88603e-05
2.23844e-05
2.83763e-05
4.12289e-05
)
;
    }
    rightWall
    {
        type            nutkWallFunction;
        blending        stepwise;
        value           nonuniform List<scalar> 
50
(
0
3.22806e-08
1.8845e-06
3.21665e-06
4.24073e-06
5.07575e-06
5.7872e-06
6.41166e-06
7.27249e-06
8.15268e-06
8.81332e-06
9.31907e-06
9.71126e-06
1.00174e-05
1.0257e-05
1.04443e-05
1.05902e-05
1.07033e-05
1.07903e-05
1.08568e-05
1.09072e-05
1.09452e-05
1.09736e-05
1.09948e-05
1.10106e-05
1.10227e-05
1.10324e-05
1.10407e-05
1.10489e-05
1.10582e-05
1.10702e-05
1.10869e-05
1.11112e-05
1.11476e-05
1.12021e-05
1.1284e-05
1.14066e-05
1.15884e-05
1.18548e-05
1.22384e-05
1.27785e-05
1.35189e-05
1.4506e-05
1.57899e-05
1.74332e-05
1.95323e-05
2.22692e-05
2.6132e-05
3.33978e-05
5.55315e-05
)
;
    }
    lowerWall
    {
        type            nutkWallFunction;
        blending        stepwise;
        value           nonuniform List<scalar> 
62
(
0
0
0
0
0
0
0
0
0
0
0
0
2.16739e-05
0
0
0
0
0
0
0
0
0
0
0
0
7.19345e-07
2.12955e-06
3.3525e-06
4.65091e-06
6.48276e-06
9.94954e-06
1.20158e-05
1.05825e-05
1.08254e-05
1.28491e-05
0
1.09228e-06
3.4511e-06
5.22149e-06
6.75713e-06
8.36032e-06
1.05343e-05
1.43997e-05
0
0
0
0
0
0
0
0
0
0
0
0
0
0
0
0
0
0
0
)
;
    }
    atmosphere
    {
        type            calculated;
        value           nonuniform List<scalar> 
46
(
0.000242464
0.009
0.009
0.009
0.009
0.009
0.009
0.009
0.009
0.009
0.009
0.009
0.009
0.009
0.009
0.009
0.009
0.009
0.009
0.009
0.009
0.009
0.009
0.009
0.009
0.009
0.009
0.009
0.009
0.009
0.009
0.009
0.009
0.009
0.009
0.009
0.009
0.009
0.009
0.009
0.009
0.009
0.009
0.009
0.009
0.009
)
;
    }
    defaultFaces
    {
        type            empty;
    }
}


// ************************************************************************* //
