/*--------------------------------*- C++ -*----------------------------------*\
| =========                 |                                                 |
| \\      /  F ield         | OpenFOAM: The Open Source CFD Toolbox           |
|  \\    /   O peration     | Version:  2406                                  |
|   \\  /    A nd           | Website:  www.openfoam.com                      |
|    \\/     M anipulation  |                                                 |
\*---------------------------------------------------------------------------*/
FoamFile
{
    version     2.0;
    format      ascii;
    arch        "LSB;label=32;scalar=64";
    class       surfaceScalarField;
    location    "1";
    object      phi;
}
// * * * * * * * * * * * * * * * * * * * * * * * * * * * * * * * * * * * * * //

dimensions      [0 3 -1 0 0 0 0];

oriented        oriented;

internalField   nonuniform List<scalar> 
4432
(
-5.44599e-304
-2.97167e-304
-1.06425e-303
-1.34073e-303
-1.58275e-303
-1.76804e-303
-2.09942e-303
-1.7383e-303
-2.61714e-303
-1.20617e-303
-3.12877e-303
-4.27683e-305
-3.6121e-303
1.95432e-303
-4.01561e-303
5.08688e-303
-4.21554e-303
9.81498e-303
-3.83405e-303
1.68868e-302
-1.42571e-303
2.75804e-302
1.07451e-302
4.33276e-302
1.6703e-302
6.39111e-302
-1.01711e-303
2.81418e-302
-8.66379e-303
7.23854e-303
-6.9059e-303
-4.72099e-304
-4.74651e-303
-2.14618e-303
-3.17026e-303
-2.0781e-303
-2.07723e-303
-1.48923e-303
-1.31686e-303
-8.27706e-304
-7.71641e-304
-2.45174e-304
-3.42184e-304
1.8113e-304
2.97358e-304
-1.67801e-303
-5.5224e-304
-3.2477e-303
-2.42218e-303
-4.79416e-303
-3.26259e-303
-6.33635e-303
-3.21177e-303
-7.87742e-303
-2.15934e-303
-9.39334e-303
1.47696e-304
-1.0816e-302
4.10132e-303
-1.1994e-302
1.02762e-302
-1.25937e-302
1.95303e-302
-1.18208e-302
3.31999e-302
-7.37189e-303
5.34993e-302
1.823e-303
8.44076e-302
1.27927e-302
1.28543e-301
-5.70756e-303
5.46704e-302
-1.21301e-302
1.00309e-302
-9.2816e-303
4.00254e-304
-6.658e-303
-1.79529e-303
-4.64867e-303
-1.96179e-303
-3.18894e-303
-1.45687e-303
-2.13487e-303
-7.9088e-304
-1.35367e-303
-1.48086e-304
-7.02092e-304
3.8122e-304
5.9256e-304
-2.81593e-303
-8.54699e-304
-5.47983e-303
-3.46248e-303
-8.10996e-303
-4.71286e-303
-1.07403e-302
-4.66057e-303
-1.33799e-302
-3.11456e-303
-1.59974e-302
3.0235e-304
-1.84963e-302
6.16061e-303
-2.0664e-302
1.52869e-302
-2.20595e-302
2.88948e-302
-2.17685e-302
4.88436e-302
-1.75309e-302
7.81885e-302
-1.28326e-302
1.22667e-301
4.02661e-303
1.85888e-301
-1.16833e-302
7.58539e-302
-1.44269e-302
1.24318e-302
-1.09375e-302
1.36392e-303
-8.03881e-303
-1.25128e-303
-5.77532e-303
-1.65506e-303
-4.08327e-303
-1.27928e-303
-2.83158e-303
-6.63364e-304
-1.88423e-303
-9.77218e-306
-1.06786e-303
5.87608e-304
8.94976e-304
-3.99427e-303
-1.18003e-303
-7.81247e-303
-4.51266e-303
-1.15953e-302
-6.19126e-303
-1.53916e-302
-6.17154e-303
-1.92217e-302
-4.17054e-303
-2.30564e-302
3.11501e-304
-2.67902e-302
8.01415e-303
-3.01889e-302
1.99934e-302
-3.27898e-302
3.77794e-302
-3.37319e-302
6.36806e-302
-3.10766e-302
1.01425e-301
-3.17325e-302
1.57702e-301
-7.14388e-303
2.35043e-301
-1.78729e-302
9.15493e-302
-1.67798e-302
1.49023e-302
-1.2639e-302
2.32348e-303
-9.4128e-303
-7.04578e-304
-6.89664e-303
-1.32652e-303
-4.98945e-303
-1.0808e-303
-3.55969e-303
-5.28928e-304
-2.46558e-303
1.1633e-304
-1.49931e-303
7.66999e-304
1.1833e-303
-5.24261e-303
-1.53132e-303
-1.02926e-302
-5.62459e-303
-1.53125e-302
-7.77466e-303
-2.0368e-302
-7.83822e-303
-2.54949e-302
-5.43497e-303
-3.06765e-302
5.69447e-305
-3.58159e-302
9.53563e-303
-4.06898e-302
2.42659e-302
-4.48706e-302
4.60534e-302
-4.76246e-302
7.75781e-302
-4.73207e-302
1.23052e-301
-5.36675e-302
1.89556e-301
-1.99804e-302
2.78038e-301
-2.44248e-302
1.0466e-301
-1.9496e-302
1.73775e-302
-1.4556e-302
3.2458e-303
-1.09117e-302
-2.00801e-304
-8.10436e-303
-1.02559e-303
-5.96887e-303
-9.03179e-304
-4.36031e-303
-4.21394e-304
-3.12804e-303
1.97498e-304
-2.01996e-303
8.75836e-304
1.38515e-303
-6.5861e-303
-1.91879e-303
-1.29637e-302
-6.84431e-303
-1.93214e-302
-9.53481e-303
-2.57439e-302
-9.75213e-303
-3.22873e-302
-7.01463e-303
-3.89558e-302
-5.80386e-304
-4.56759e-302
1.05987e-302
-5.22586e-302
2.79744e-302
-5.83434e-302
5.35876e-302
-6.33416e-302
9.04062e-302
-6.58345e-302
1.42954e-301
-7.79818e-302
2.18426e-301
-3.42599e-302
3.16659e-301
-3.14905e-302
1.16431e-301
-2.26318e-302
1.98162e-302
-1.67332e-302
4.12883e-303
-1.25801e-302
2.51727e-304
-9.43255e-303
-7.68028e-304
-7.04355e-303
-7.63471e-304
-5.24595e-303
-3.58153e-304
-3.88109e-303
2.09315e-304
-2.65089e-303
8.62805e-304
1.36592e-303
-8.04709e-303
-2.35773e-303
-1.58671e-302
-8.21517e-303
-2.36801e-302
-1.15425e-302
-3.1592e-302
-1.2006e-302
-3.96837e-302
-9.02038e-303
-4.7987e-302
-1.72416e-303
-5.64628e-302
1.10713e-302
-6.49716e-302
3.09851e-302
-7.32353e-302
6.02518e-302
-8.08067e-302
1.02048e-301
-8.64044e-302
1.61063e-301
-1.04418e-301
2.44461e-301
-4.99557e-302
3.51675e-301
-3.91415e-302
1.27205e-301
-2.61659e-302
2.21946e-302
-1.91738e-302
4.98034e-303
-1.44313e-302
6.57992e-304
-1.08935e-302
-5.55818e-304
-8.2195e-303
-6.67271e-304
-6.21415e-303
-3.46719e-304
-4.71574e-303
1.37251e-304
-3.41045e-303
6.71755e-304
9.19472e-304
-9.64593e-303
-2.8628e-303
-1.90421e-302
-9.76778e-303
-2.84449e-302
-1.38517e-302
-3.79834e-302
-1.46762e-302
-4.77667e-302
-1.15492e-302
-5.78596e-302
-3.49046e-303
-6.82644e-302
1.08202e-302
-7.88995e-302
3.31506e-302
-8.95752e-302
6.58889e-302
-9.99781e-302
1.12348e-301
-1.08827e-301
1.77255e-301
-1.33098e-301
2.67515e-301
-6.68802e-302
3.81655e-301
-4.74008e-302
1.3665e-301
-3.00391e-302
2.45038e-302
-2.18501e-302
5.81629e-303
-1.64528e-302
1.03513e-303
-1.24792e-302
-3.77429e-304
-9.48574e-303
-6.07224e-304
-7.24294e-303
-3.81006e-304
-5.58742e-303
-1.05303e-305
-4.30736e-303
3.18252e-304
1.92845e-304
-1.90168e-306
-9.43888e-306
-2.68773e-306
-3.20219e-305
-2.30176e-306
-2.86225e-305
-2.35201e-306
-1.77361e-305
-2.26492e-306
-9.2351e-306
-1.90006e-306
-4.33124e-306
-1.41312e-306
-1.86678e-306
-9.58346e-307
-7.234e-307
-6.05252e-307
-2.27635e-307
-3.60751e-307
-3.16574e-308
-2.04431e-307
3.27761e-308
-1.10457e-307
4.39749e-308
-5.68414e-308
3.68736e-308
-2.77021e-308
2.59768e-308
-1.2627e-308
1.64886e-308
-5.24388e-309
9.63757e-309
-1.86403e-309
5.1473e-309
-4.61694e-310
2.30983e-309
5.36123e-310
-3.49049e-306
-2.30571e-305
-6.0085e-306
-5.49499e-305
-6.19141e-306
-4.47497e-305
-6.02791e-306
-2.68052e-305
-5.27681e-306
-1.3689e-305
-4.15012e-306
-6.26846e-306
-2.98456e-306
-2.579e-306
-1.99846e-306
-8.97648e-307
-1.26307e-306
-1.96467e-307
-7.60271e-307
5.72043e-308
-4.38044e-307
1.20908e-307
-2.42031e-307
1.13165e-307
-1.28086e-307
8.53583e-308
-6.46106e-308
5.75692e-308
-3.07386e-308
3.59785e-308
-1.34892e-308
2.11105e-308
-5.17597e-309
1.15676e-308
-1.42407e-309
5.55901e-309
1.55717e-309
-5.98789e-306
-4.7366e-305
-1.07777e-305
-8.5498e-305
-1.16459e-305
-6.33886e-305
-1.09151e-305
-3.63522e-305
-9.06388e-306
-1.8092e-305
-6.8467e-306
-8.07419e-306
-4.8017e-306
-3.1754e-306
-3.17366e-306
-9.836e-307
-1.99732e-306
-1.01064e-307
-1.20475e-306
1.91418e-307
-6.98983e-307
2.4023e-307
-3.90492e-307
2.03303e-307
-2.0976e-307
1.47626e-307
-1.0786e-307
9.808e-308
-5.25945e-308
6.11719e-308
-2.38476e-308
3.62151e-308
-9.58875e-309
2.03095e-308
-2.84398e-309
1.0266e-308
3.28169e-309
-1.13543e-305
-9.22437e-305
-1.89545e-305
-1.29569e-304
-2.01621e-305
-8.71814e-305
-1.80623e-305
-4.76161e-305
-1.4364e-305
-2.30396e-305
-1.05055e-305
-1.00327e-305
-7.21438e-306
-3.78757e-306
-4.71213e-306
-1.03801e-306
-2.95105e-306
3.76627e-308
-1.78066e-306
3.66271e-307
-1.03774e-306
3.92488e-307
-5.8436e-307
3.18011e-307
-3.17435e-307
2.27232e-307
-1.65644e-307
1.50345e-307
-8.23278e-308
9.41073e-308
-3.82956e-308
5.63292e-308
-1.59733e-308
3.22691e-308
-5.0319e-309
1.69937e-308
6.00641e-309
-2.30262e-305
-1.75036e-304
-3.32633e-305
-1.91878e-304
-3.36057e-305
-1.17084e-304
-2.85946e-305
-6.09147e-305
-2.18588e-305
-2.87125e-305
-1.55522e-305
-1.22531e-305
-1.04933e-305
-4.47637e-306
-6.78582e-306
-1.09188e-306
-4.23209e-306
2.05864e-307
-2.55434e-306
5.77014e-307
-1.49428e-306
5.773e-307
-8.4716e-307
4.58669e-307
-4.64612e-307
3.26002e-307
-2.45501e-307
2.16054e-307
-1.24012e-307
1.36148e-307
-5.89471e-308
8.24747e-308
-2.53597e-308
4.81842e-308
-8.40135e-309
2.62656e-308
1.00898e-308
-4.82155e-305
-3.25834e-304
-5.8025e-305
-2.75034e-304
-5.444e-305
-1.52765e-304
-4.382e-305
-7.61207e-305
-3.22788e-305
-3.51494e-305
-2.24214e-305
-1.47964e-305
-1.49078e-305
-5.28569e-306
-9.56435e-306
-1.17027e-306
-5.94721e-306
3.91374e-307
-3.59231e-306
8.18998e-307
-2.10942e-306
7.93888e-307
-1.20346e-306
6.262e-307
-6.65769e-307
4.45394e-307
-3.55751e-307
2.96645e-307
-1.82297e-307
1.88493e-307
-8.83095e-308
1.15571e-307
-3.90283e-308
6.87191e-308
-1.35096e-308
3.85332e-308
1.58512e-308
-1.01589e-304
-6.11306e-304
-1.0007e-304
-3.74935e-304
-8.57647e-305
-1.91976e-304
-6.522e-305
-9.26982e-305
-4.64299e-305
-4.22914e-305
-3.15954e-305
-1.7697e-305
-2.07609e-305
-6.25358e-306
-1.32415e-305
-1.29937e-306
-8.22025e-306
5.78853e-307
-4.97296e-306
1.08422e-306
-2.932e-306
1.03862e-306
-1.68315e-306
8.19327e-307
-9.38801e-307
5.85268e-307
-5.06852e-307
3.92433e-307
-2.63116e-307
2.51566e-307
-1.29629e-307
1.55987e-307
-5.8656e-308
9.41227e-308
-2.11072e-308
5.38963e-308
2.33122e-308
-2.09068e-304
-8.89095e-304
-1.69508e-304
-4.65686e-304
-1.30381e-304
-2.29295e-304
-9.39405e-305
-1.09291e-304
-6.49174e-305
-4.97021e-305
-4.34407e-305
-2.07901e-305
-2.82868e-305
-7.3143e-306
-1.79692e-305
-1.45399e-306
-1.11497e-305
7.76458e-307
-6.75944e-306
1.37395e-306
-4.00195e-306
1.31031e-306
-2.31099e-306
1.0363e-306
-1.29875e-306
7.43996e-307
-7.07724e-307
5.02109e-307
-3.71614e-307
3.24367e-307
-1.85774e-307
2.02961e-307
-8.57692e-308
1.23776e-307
-3.19585e-308
7.18e-308
3.18874e-308
-2.6265e-302
-4.14806e-303
-5.1916e-302
-1.36512e-302
-7.76278e-302
-1.97637e-302
-1.03759e-301
-2.18097e-302
-1.30646e-301
-1.88662e-302
-1.58549e-301
-9.71629e-303
-1.87626e-301
7.20798e-303
-2.17909e-301
3.3919e-302
-2.49285e-301
7.30148e-302
-2.81502e-301
1.27894e-301
-3.09515e-301
2.03062e-301
-3.87376e-301
3.04382e-301
-2.01418e-301
4.27409e-301
-1.29772e-301
1.51701e-301
-7.75566e-302
2.88058e-302
-5.59102e-302
7.41377e-303
-4.20958e-302
1.72624e-303
-3.20764e-302
-8.9795e-305
-2.45424e-302
-5.62591e-304
-1.88538e-302
-5.33959e-304
-1.45862e-302
-3.86981e-304
-1.13579e-302
-3.8062e-304
-8.00301e-304
-8.016e-303
-3.45785e-302
-5.75972e-303
-6.84253e-302
-1.84895e-302
-1.02434e-301
-2.7316e-302
-1.3711e-301
-3.13296e-302
-1.7296e-301
-2.93844e-302
-2.10436e-301
-2.00483e-302
-2.49925e-301
-1.5516e-303
-2.91731e-301
2.82832e-302
-3.36078e-301
7.21375e-302
-3.83115e-301
1.33313e-301
-4.26642e-301
2.15872e-301
-5.35656e-301
3.24548e-301
-2.90719e-301
4.52955e-301
-1.71781e-301
1.6066e-301
-9.75357e-302
3.17849e-302
-6.94038e-302
8.47013e-303
-5.20225e-302
2.10833e-303
-3.96097e-302
-9.00404e-306
-3.02818e-302
-6.59511e-304
-2.31335e-302
-7.65739e-304
-1.75742e-302
-7.33323e-304
-1.30985e-302
-7.86215e-304
-1.04711e-303
-9.11241e-303
-4.33682e-302
-7.823e-303
-8.58369e-302
-2.46855e-302
-1.28583e-301
-3.71578e-302
-1.7228e-301
-4.41052e-302
-2.17624e-301
-4.41669e-302
-2.65272e-301
-3.57105e-302
-3.15825e-301
-1.67951e-302
-3.69823e-301
1.48761e-302
-4.2774e-301
6.20044e-302
-4.89979e-301
1.27737e-301
-5.49417e-301
2.15684e-301
-6.87986e-301
3.29654e-301
-3.83686e-301
4.62001e-301
-2.1596e-301
1.64546e-301
-1.18868e-301
3.3148e-302
-8.35493e-302
8.70742e-303
-6.22285e-302
1.98761e-303
-4.71933e-302
-2.57093e-304
-3.59293e-302
-9.61881e-304
-2.72518e-302
-1.09298e-303
-2.04311e-302
-1.05445e-303
-1.49277e-302
-1.0327e-303
-1.07955e-303
-1.03282e-302
-5.26407e-302
-1.04774e-302
-1.04142e-301
-3.26552e-302
-1.56028e-301
-4.99655e-302
-2.09163e-301
-6.10497e-302
-2.64444e-301
-6.43312e-302
-3.22732e-301
-5.79828e-302
-3.84831e-301
-3.99031e-302
-4.51475e-301
-7.69283e-303
-5.23319e-301
4.13618e-302
-6.00925e-301
1.10277e-301
-6.76112e-301
2.02328e-301
-8.43766e-301
3.20708e-301
-4.7963e-301
4.57032e-301
-2.62249e-301
1.6406e-301
-1.41529e-301
3.27759e-302
-9.83901e-302
7.95587e-303
-7.27923e-302
1.22504e-303
-5.49382e-302
-9.3325e-304
-4.16344e-302
-1.53641e-303
-3.1402e-302
-1.56584e-303
-2.33704e-302
-1.41503e-303
-1.69472e-302
-1.24758e-303
-1.10085e-303
-1.17284e-302
-6.23729e-302
-1.38736e-302
-1.23282e-301
-4.2841e-302
-1.84668e-301
-6.64632e-302
-2.47602e-301
-8.31445e-302
-3.13201e-301
-9.10828e-302
-3.82532e-301
-8.82479e-302
-4.56591e-301
-7.23738e-302
-5.36283e-301
-4.09491e-302
-6.22402e-301
8.7782e-303
-7.1562e-301
7.97678e-302
-8.06641e-301
1.75119e-301
-1.00335e-300
2.97721e-301
-5.79009e-301
4.388e-301
-3.10783e-301
1.59206e-301
-1.65476e-301
3.04558e-302
-1.1393e-301
6.02687e-303
-8.37524e-302
-3.2808e-304
-6.29087e-302
-2.15e-303
-4.74782e-302
-2.46991e-303
-3.56652e-302
-2.26003e-303
-2.64385e-302
-1.89712e-303
-1.91202e-302
-1.52923e-303
-1.19321e-303
-1.32534e-302
-7.25151e-302
-1.81778e-302
-1.4315e-301
-5.57282e-302
-2.14336e-301
-8.74455e-302
-2.87379e-301
-1.1147e-301
-3.63636e-301
-1.25751e-301
-4.44393e-301
-1.28035e-301
-5.30841e-301
-1.15876e-301
-6.24043e-301
-8.66283e-302
-7.24918e-301
-3.74557e-302
-8.34226e-301
3.46322e-302
-9.4154e-301
1.32724e-301
-1.16777e-300
2.59678e-301
-6.82693e-301
4.06575e-301
-3.61795e-301
1.4938e-301
-1.90677e-301
2.58094e-302
-1.3015e-301
2.66099e-303
-9.51103e-302
-2.85911e-303
-7.11229e-302
-4.04579e-303
-5.3485e-302
-3.86874e-303
-4.00563e-302
-3.26387e-303
-2.96239e-302
-2.58077e-303
-2.14011e-302
-1.94861e-303
-1.39828e-303
-1.48552e-302
-8.29806e-302
-2.35779e-302
-1.63564e-301
-7.1862e-302
-2.44769e-301
-1.13805e-301
-3.28167e-301
-1.47239e-301
-4.1539e-301
-1.69825e-301
-5.07966e-301
-1.79062e-301
-6.07291e-301
-1.723e-301
-7.14593e-301
-1.46734e-301
-8.30912e-301
-9.93998e-302
-9.57093e-301
-2.71928e-302
-1.08158e-300
7.31072e-302
-1.33829e-300
2.04557e-301
-7.91707e-301
3.58278e-301
-4.15563e-301
1.33384e-301
-2.17108e-301
1.82518e-302
-1.4701e-301
-2.49908e-303
-1.06838e-301
-6.60824e-303
-7.95642e-302
-6.789e-303
-5.96423e-302
-5.85556e-303
-4.45583e-302
-4.67109e-303
-3.28985e-302
-3.53992e-303
-2.37522e-302
-2.5605e-303
-1.74508e-303
-1.6502e-302
-9.36278e-302
-3.02918e-302
-1.84235e-301
-9.18685e-302
-2.75548e-301
-1.46565e-301
-3.69454e-301
-1.91836e-301
-4.67905e-301
-2.25002e-301
-5.72705e-301
-2.43281e-301
-6.85477e-301
-2.43798e-301
-8.07625e-301
-2.23576e-301
-9.40316e-301
-1.79496e-301
-1.08448e-300
-1.08281e-301
-1.22743e-300
-6.47015e-303
-1.51608e-300
1.29369e-301
-9.07e-301
2.90559e-301
-4.72337e-301
1.09408e-301
-2.44722e-301
6.97265e-303
-1.64442e-301
-9.91616e-303
-1.18879e-301
-1.18685e-302
-8.81886e-302
-1.05733e-302
-6.59143e-302
-8.56257e-303
-4.91382e-302
-6.57488e-303
-3.62287e-302
-4.84104e-303
-2.61416e-302
-3.40957e-303
-2.25741e-303
-1.81703e-302
-1.04231e-301
-3.85792e-302
-2.04707e-301
-1.16484e-301
-3.06017e-301
-1.8692e-301
-4.10438e-301
-2.46867e-301
-5.20299e-301
-2.93231e-301
-6.37724e-301
-3.22913e-301
-7.64589e-301
-3.32814e-301
-9.02488e-301
-3.19788e-301
-1.05272e-300
-2.80569e-301
-1.2163e-300
-2.11688e-301
-1.37941e-300
-1.09392e-301
-1.70191e-300
3.02505e-302
-1.02924e-300
1.98895e-301
-5.32255e-301
7.50292e-302
-2.73418e-301
-9.06172e-303
-1.82344e-301
-2.01465e-302
-1.31147e-301
-1.89705e-302
-9.69294e-302
-1.5603e-302
-7.22481e-302
-1.21196e-302
-5.3752e-302
-9.05985e-303
-3.95777e-302
-6.5399e-303
-2.85396e-302
-4.53099e-303
-2.95454e-303
-1.98389e-302
-1.14439e-301
-4.87591e-302
-2.24272e-301
-1.46599e-301
-3.35168e-301
-2.36303e-301
-4.49886e-301
-3.14227e-301
-5.71211e-301
-3.76775e-301
-7.01631e-301
-4.20502e-301
-8.43297e-301
-4.42103e-301
-9.97994e-301
-4.38317e-301
-1.16715e-300
-4.05782e-301
-1.35186e-300
-3.40878e-301
-1.5372e-300
-2.39571e-301
-1.89583e-300
-9.73927e-302
-1.15855e-300
7.77537e-302
-5.95236e-301
2.72523e-302
-3.0301e-301
-3.10727e-302
-2.0056e-301
-3.38016e-302
-1.43525e-301
-2.82488e-302
-1.05697e-301
-2.20666e-302
-7.85751e-302
-1.6635e-302
-5.83466e-302
-1.21898e-302
-4.2904e-302
-8.67478e-303
-3.09148e-302
-5.94737e-303
-3.8487e-303
-2.1486e-302
-1.23715e-301
-6.12385e-302
-2.4186e-301
-1.83323e-301
-3.61487e-301
-2.96468e-301
-4.85966e-301
-3.96192e-301
-6.18623e-301
-4.78287e-301
-7.62348e-301
-5.38952e-301
-9.19564e-301
-5.74746e-301
-1.09223e-300
-5.82399e-301
-1.28188e-300
-5.58569e-301
-1.48966e-300
-4.99601e-301
-1.69953e-300
-4.01271e-301
-2.09687e-300
-2.58642e-301
-1.29428e-300
-7.91284e-302
-6.60868e-301
-3.73639e-302
-3.33181e-301
-6.03783e-302
-2.1887e-301
-5.14706e-302
-1.55855e-301
-3.9982e-302
-1.14376e-301
-3.00947e-302
-8.48091e-302
-2.2168e-302
-6.28566e-302
-1.59909e-302
-4.61577e-302
-1.12568e-302
-3.32302e-302
-7.66316e-303
-4.94142e-303
-2.30856e-302
-1.31245e-301
-7.65639e-302
-2.55861e-301
-2.28092e-301
-3.82733e-301
-3.6963e-301
-5.16012e-301
-4.95551e-301
-6.59647e-301
-6.00903e-301
-8.16925e-301
-6.81578e-301
-9.90491e-301
-7.34141e-301
-1.18241e-300
-7.555e-301
-1.39425e-300
-7.42527e-301
-1.6272e-300
-6.91719e-301
-1.86405e-300
-5.98859e-301
-2.30279e-300
-4.58735e-301
-1.43476e-300
-2.78311e-301
-7.28285e-301
-1.22441e-301
-3.63453e-301
-9.8211e-302
-2.36974e-301
-7.35863e-302
-1.67931e-301
-5.43014e-302
-1.22819e-301
-3.97014e-302
-9.08402e-302
-2.86938e-302
-6.71986e-302
-2.04311e-302
-4.92759e-302
-1.42586e-302
-3.54393e-302
-9.65817e-303
-6.21939e-303
-2.46047e-302
-1.35775e-301
-9.55195e-302
-2.63841e-301
-2.82848e-301
-3.95612e-301
-4.58674e-301
-5.36224e-301
-6.15777e-301
-6.90279e-301
-7.48362e-301
-8.61362e-301
-8.52153e-301
-1.05219e-300
-9.23989e-301
-1.26478e-300
-9.61242e-301
-1.50064e-300
-9.61275e-301
-1.7609e-300
-9.20999e-301
-2.02716e-300
-8.36497e-301
-2.50991e-300
-7.02619e-301
-1.57713e-300
-5.26055e-301
-7.96045e-301
-2.313e-301
-3.93143e-301
-1.45394e-301
-2.5447e-301
-1.00212e-301
-1.79484e-301
-7.10624e-302
-1.3083e-301
-5.07124e-302
-9.65215e-302
-3.60641e-302
-7.12608e-302
-2.53999e-302
-5.21742e-302
-1.76031e-302
-3.74797e-302
-1.18815e-302
-7.65087e-303
-2.59994e-302
-1.35318e-301
-1.19331e-301
-2.6204e-301
-3.50345e-301
-3.95249e-301
-5.67469e-301
-5.41233e-301
-7.61273e-301
-7.05108e-301
-9.2512e-301
-8.90455e-301
-1.05492e-300
-1.09974e-300
-1.14823e-300
-1.33467e-300
-1.20329e-300
-1.59649e-300
-1.2183e-300
-1.88616e-300
-1.19088e-300
-2.18406e-300
-1.1178e-300
-2.71308e-300
-9.94441e-301
-1.71717e-300
-8.27571e-301
-8.61972e-301
-3.6615e-301
-4.2129e-301
-2.01793e-301
-2.70806e-301
-1.30732e-301
-1.90139e-301
-8.96866e-302
-1.38137e-301
-6.26892e-302
-1.01647e-301
-4.3973e-302
-7.48879e-302
-3.06924e-302
-5.47364e-302
-2.11567e-302
-3.92669e-302
-1.4248e-302
-9.18338e-303
-2.72103e-302
-1.26527e-301
-1.50107e-301
-2.44436e-301
-4.34685e-301
-3.7432e-301
-7.01328e-301
-5.23496e-301
-9.37629e-301
-6.97001e-301
-1.13643e-300
-8.97715e-301
-1.29455e-300
-1.12726e-300
-1.41093e-300
-1.38663e-300
-1.48521e-300
-1.67655e-300
-1.51677e-300
-1.99764e-300
-1.50427e-300
-2.32902e-300
-1.44549e-300
-2.90597e-300
-1.337e-300
-1.84931e-300
-1.18618e-300
-9.22858e-301
-5.26685e-301
-4.46474e-301
-2.65418e-301
-2.85169e-301
-1.63441e-301
-1.99342e-301
-1.09e-301
-1.44337e-301
-7.48725e-302
-1.05921e-301
-5.19399e-302
-7.78615e-302
-3.60059e-302
-5.68041e-302
-2.47289e-302
-4.06886e-302
-1.66382e-302
-1.07436e-302
-2.81609e-302
-1.03233e-301
-1.917e-301
-2.00872e-301
-5.42193e-301
-3.21605e-301
-8.67611e-301
-4.72487e-301
-1.15184e-300
-6.56839e-301
-1.38829e-300
-8.75463e-301
-1.57593e-300
-1.12824e-300
-1.71607e-300
-1.41489e-300
-1.81028e-300
-1.73534e-300
-1.85941e-300
-2.08976e-300
-1.86334e-300
-2.45594e-300
-1.82116e-300
-3.0816e-300
-1.73127e-300
-1.96632e-300
-1.60247e-300
-9.73591e-301
-7.0743e-301
-4.66369e-301
-3.30947e-301
-2.9625e-301
-1.95092e-301
-2.06227e-301
-1.27135e-301
-1.48828e-301
-8.61839e-302
-1.0892e-301
-5.93283e-302
-7.98839e-302
-4.09555e-302
-5.81705e-302
-2.80819e-302
-4.16037e-302
-1.89039e-302
-1.22399e-302
-2.87577e-302
-5.25322e-302
-2.50907e-301
-1.13222e-301
-6.82576e-301
-2.19673e-301
-1.07614e-300
-3.73828e-301
-1.4121e-300
-5.73537e-301
-1.68696e-300
-8.15277e-301
-1.90374e-300
-1.09608e-300
-2.06716e-300
-1.41397e-300
-2.1812e-300
-1.76792e-300
-2.24831e-300
-2.15755e-300
-2.26949e-300
-2.55922e-300
-2.24515e-300
-3.23334e-300
-2.17609e-300
-2.0578e-300
-2.07363e-300
-1.00431e-300
-8.91262e-301
-4.76754e-301
-3.87358e-301
-3.01865e-301
-2.20637e-301
-2.09457e-301
-1.41635e-301
-1.5075e-301
-9.53362e-302
-1.10076e-301
-6.54155e-302
-8.05817e-302
-4.51125e-302
-5.85897e-302
-3.09518e-302
-4.18519e-302
-2.08791e-302
-1.35683e-302
-2.88985e-302
5.70396e-302
-3.08126e-301
5.2429e-302
-8.43236e-301
-4.17244e-302
-1.31255e-300
-2.08959e-301
-1.70066e-300
-4.34889e-301
-2.01192e-300
-7.091e-301
-2.25559e-300
-1.0252e-300
-2.44065e-300
-1.37969e-300
-2.57373e-300
-1.77082e-300
-2.65868e-300
-2.19771e-300
-2.69722e-300
-2.63498e-300
-2.69046e-300
-3.35643e-300
-2.63714e-300
-2.10295e-300
-2.59238e-300
-9.90938e-301
-1.03375e-300
-4.70047e-301
-4.15723e-301
-2.98621e-301
-2.33779e-301
-2.0718e-301
-1.49956e-301
-1.49016e-301
-1.01091e-301
-1.08735e-301
-6.95143e-302
-7.95532e-302
-4.80638e-302
-5.78133e-302
-3.30787e-302
-4.12794e-302
-2.23971e-302
-1.46221e-302
-2.84897e-302
3.12795e-301
-6.47797e-301
3.59914e-301
-1.32522e-300
2.49783e-301
-1.87235e-300
4.21301e-302
-2.30951e-300
-2.30711e-301
-2.65356e-300
-5.51668e-301
-2.92129e-300
-9.12601e-301
-3.12626e-300
-1.31018e-300
-3.27759e-300
-1.74305e-300
-3.38021e-300
-2.21002e-300
-3.43599e-300
-2.67839e-300
-3.44607e-300
-3.45212e-300
-3.41815e-300
-2.04731e-300
-2.25436e-300
-8.70639e-301
-8.91785e-301
-4.381e-301
-3.91308e-301
-2.82495e-301
-2.30041e-301
-1.97412e-301
-1.50516e-301
-1.42584e-301
-1.02616e-301
-1.04331e-301
-7.11158e-302
-7.6481e-302
-4.94801e-302
-5.56599e-302
-3.42443e-302
-3.97813e-302
-2.3312e-302
-1.53049e-302
-2.7471e-302
9.30937e-301
-1.03501e-301
8.69784e-301
-6.71784e-301
6.66109e-301
-1.09971e-300
3.74367e-301
-1.42205e-300
2.97618e-302
-1.66695e-300
-3.51734e-301
-1.85287e-300
-7.65182e-301
-1.99217e-300
-1.21071e-300
-2.09213e-300
-1.68949e-300
-2.15533e-300
-2.20065e-300
-2.17863e-300
-2.73796e-300
-2.14715e-300
-2.3558e-300
-2.01635e-300
-1.2193e-300
-1.18443e-300
-5.88891e-301
-5.76256e-301
-3.65711e-301
-3.28606e-301
-2.49828e-301
-2.11243e-301
-1.7897e-301
-1.43362e-301
-1.31015e-301
-9.96931e-302
-9.66882e-302
-6.99981e-302
-7.12947e-302
-4.91823e-302
-5.2102e-302
-3.43135e-302
-3.73483e-302
-2.35251e-302
-1.55469e-302
-2.5841e-302
6.41848e-301
-3.62909e-301
5.0829e-301
-6.14896e-301
3.5485e-301
-7.76486e-301
1.82992e-301
-8.9073e-301
5.27076e-303
-9.74086e-301
-1.77958e-301
-1.03392e-300
-3.68743e-301
-1.07448e-300
-5.68257e-301
-1.09784e-300
-7.72884e-301
-1.10339e-300
-9.66161e-301
-1.08542e-300
-1.09957e-300
-1.02457e-300
-9.30931e-301
-8.66479e-301
-5.92811e-301
-5.78633e-301
-3.9721e-301
-3.89612e-301
-2.83265e-301
-2.64465e-301
-2.0732e-301
-1.84044e-301
-1.54102e-301
-1.30192e-301
-1.15329e-301
-9.28431e-302
-8.63453e-302
-6.63209e-302
-6.43036e-302
-4.72027e-302
-4.73265e-302
-3.3273e-302
-3.40965e-302
-2.30094e-302
-1.53208e-302
-2.36719e-302
1.48631e-301
-2.89026e-301
7.96875e-302
-3.77217e-301
3.08259e-302
-4.18821e-301
-2.23397e-302
-4.54872e-301
-8.07196e-302
-4.84871e-301
-1.44584e-301
-5.074e-301
-2.13401e-301
-5.22067e-301
-2.8514e-301
-5.28833e-301
-3.54637e-301
-5.2723e-301
-4.10998e-301
-5.15331e-301
-4.35503e-301
-4.88482e-301
-4.05159e-301
-4.4192e-301
-3.37196e-301
-3.6341e-301
-2.69465e-301
-2.79934e-301
-2.11746e-301
-2.09006e-301
-1.6463e-301
-1.54471e-301
-1.27172e-301
-1.13624e-301
-9.76494e-302
-8.3229e-302
-7.44251e-302
-6.06246e-302
-5.61408e-302
-4.37989e-302
-4.17071e-302
-3.12452e-302
-3.02523e-302
-2.18208e-302
-1.46492e-302
-2.11019e-302
-3.07222e-302
-1.91143e-301
-3.63664e-302
-2.45316e-301
-4.5825e-302
-2.70787e-301
-6.28741e-302
-2.91935e-301
-8.62038e-302
-3.09438e-301
-1.14497e-301
-3.22589e-301
-1.46275e-301
-3.31044e-301
-1.79371e-301
-3.34713e-301
-2.10351e-301
-3.33399e-301
-2.34174e-301
-3.26334e-301
-2.44755e-301
-3.11758e-301
-2.38159e-301
-2.87225e-301
-2.16746e-301
-2.50067e-301
-1.8746e-301
-2.06016e-301
-1.56433e-301
-1.6322e-301
-1.27274e-301
-1.26239e-301
-1.01676e-301
-9.60724e-302
-8.00412e-302
-7.22079e-302
-6.21524e-302
-5.36563e-302
-4.75476e-302
-3.9384e-302
-3.57009e-302
-2.84593e-302
-2.61009e-302
-2.00861e-302
-1.36008e-302
-1.83075e-302
-6.10974e-302
-1.16092e-301
-6.00891e-302
-1.61851e-301
-6.06961e-302
-1.85088e-301
-6.64067e-302
-2.01802e-301
-7.68186e-302
-2.14542e-301
-9.08903e-302
-2.23764e-301
-1.07358e-301
-2.29579e-301
-1.24612e-301
-2.32048e-301
-1.40558e-301
-2.31102e-301
-1.52681e-301
-2.26349e-301
-1.58522e-301
-2.1694e-301
-1.56703e-301
-2.01761e-301
-1.47478e-301
-1.80076e-301
-1.32677e-301
-1.53788e-301
-1.1496e-301
-1.26536e-301
-9.66675e-302
-1.01216e-301
-7.93702e-302
-7.92329e-302
-6.38825e-302
-6.09476e-302
-5.04919e-302
-4.61587e-302
-3.91735e-302
-3.44167e-302
-2.97384e-302
-2.51956e-302
-2.1924e-302
-1.79744e-302
-1.2276e-302
-1.54693e-302
-5.64133e-302
-7.03926e-302
-5.7504e-302
-1.06704e-301
-5.72336e-302
-1.27434e-301
-5.93277e-302
-1.41881e-301
-6.42542e-302
-1.52362e-301
-7.15547e-302
-1.59717e-301
-8.04285e-302
-1.64318e-301
-8.98329e-302
-1.66356e-301
-9.85178e-302
-1.65856e-301
-1.05135e-301
-1.62631e-301
-1.08478e-301
-1.56254e-301
-1.07815e-301
-1.46214e-301
-1.03041e-301
-1.32337e-301
-9.47538e-302
-1.15509e-301
-8.41261e-302
-9.74847e-302
-7.24499e-302
-7.99582e-302
-6.07916e-302
-6.40412e-302
-4.98615e-302
-5.02624e-302
-4.00437e-302
-3.87325e-302
-3.14804e-302
-2.93114e-302
-2.41546e-302
-2.17296e-302
-1.79553e-302
-1.56646e-302
-1.07871e-302
-1.27439e-302
-4.4702e-302
-4.30675e-302
-4.73954e-302
-7.02996e-302
-4.781e-302
-8.75421e-302
-4.89415e-302
-9.98489e-302
-5.15143e-302
-1.08732e-301
-5.54528e-302
-1.14925e-301
-6.03417e-302
-1.1884e-301
-6.55695e-302
-1.20705e-301
-7.0408e-302
-1.20604e-301
-7.41005e-302
-1.18467e-301
-7.59824e-302
-1.14098e-301
-7.56088e-302
-1.07283e-301
-7.28332e-302
-9.80263e-302
-6.78666e-302
-8.68245e-302
-6.12501e-302
-7.4607e-302
-5.36796e-302
-6.23693e-302
-4.58165e-302
-5.08861e-302
-3.81739e-302
-4.06274e-302
-3.1087e-302
-3.17938e-302
-2.47328e-302
-2.43895e-302
-1.91665e-302
-1.82944e-302
-1.43589e-302
-1.33185e-302
-9.24187e-303
-1.02478e-302
-3.31906e-302
-2.6583e-302
-3.63971e-302
-4.62886e-302
-3.74017e-302
-5.98634e-302
-3.83559e-302
-6.99546e-302
-3.99153e-302
-7.73788e-302
-4.21671e-302
-8.26243e-302
-4.49334e-302
-8.60176e-302
-4.78846e-302
-8.77652e-302
-5.06089e-302
-8.79661e-302
-5.2675e-302
-8.66182e-302
-5.36975e-302
-8.36474e-302
-5.33987e-302
-7.89849e-302
-5.1656e-302
-7.26927e-302
-4.85399e-302
-6.50789e-302
-4.43094e-302
-5.66759e-302
-3.93409e-302
-4.80847e-302
-3.40312e-302
-3.98248e-302
-2.87235e-302
-3.22594e-302
-2.36713e-302
-2.55872e-302
-1.90324e-302
-1.98686e-302
-1.48814e-302
-1.50636e-302
-1.1228e-302
-1.10656e-302
-7.73128e-303
-8.05294e-303
-2.37395e-302
-1.65204e-302
-2.67919e-302
-3.04528e-302
-2.80385e-302
-4.07242e-302
-2.89589e-302
-4.86927e-302
-3.005e-302
-5.47268e-302
-3.14364e-302
-5.90918e-302
-3.30615e-302
-6.20016e-302
-3.47604e-302
-6.36107e-302
-3.63081e-302
-6.40078e-302
-3.746e-302
-6.32205e-302
-3.799e-302
-6.12371e-302
-3.77251e-302
-5.80552e-302
-3.65763e-302
-5.37491e-302
-3.45614e-302
-4.85228e-302
-3.18072e-302
-4.27002e-302
-2.8519e-302
-3.66557e-302
-2.49323e-302
-3.07346e-302
-2.12681e-302
-2.52016e-302
-1.77046e-302
-2.02231e-302
-1.43656e-302
-1.5873e-302
-1.13212e-302
-1.21499e-302
-8.59531e-303
-8.99716e-303
-6.32354e-303
-6.19061e-303
-1.65567e-302
-1.03209e-302
-1.91555e-302
-2.00075e-302
-2.03829e-302
-2.75522e-302
-2.12381e-302
-3.3644e-302
-2.20688e-302
-3.84041e-302
-2.29858e-302
-4.19446e-302
-2.39844e-302
-4.43827e-302
-2.49884e-302
-4.58175e-302
-2.5879e-302
-4.63161e-302
-2.65194e-302
-4.5913e-302
-2.67779e-302
-4.46231e-302
-2.65485e-302
-4.24708e-302
-2.57706e-302
-3.95256e-302
-2.44437e-302
-3.59276e-302
-2.26306e-302
-3.18835e-302
-2.04445e-302
-2.76331e-302
-1.80243e-302
-2.34065e-302
-1.55096e-302
-1.93915e-302
-1.30206e-302
-1.57174e-302
-1.06479e-302
-1.24526e-302
-8.4486e-303
-9.61226e-303
-6.4488e-303
-7.16819e-303
-5.06308e-303
-4.66024e-303
-1.13361e-302
-6.47551e-303
-1.34017e-302
-1.31197e-302
-1.44708e-302
-1.85339e-302
-1.52124e-302
-2.30657e-302
-1.58603e-302
-2.67182e-302
-1.64983e-302
-2.95142e-302
-1.71393e-302
-3.15031e-302
-1.77511e-302
-3.27388e-302
-1.82731e-302
-3.32651e-302
-1.86303e-302
-3.31117e-302
-1.87467e-302
-3.23011e-302
-1.85586e-302
-3.08646e-302
-1.80265e-302
-2.88606e-302
-1.71449e-302
-2.63877e-302
-1.5945e-302
-2.35822e-302
-1.44897e-302
-2.06013e-302
-1.28611e-302
-1.75994e-302
-1.11461e-302
-1.47083e-302
-9.424e-303
-1.20243e-302
-7.75795e-303
-9.60428e-303
-6.19126e-303
-7.46782e-303
-4.74688e-303
-5.60257e-303
-3.97288e-303
-3.43888e-303
-7.65527e-303
-4.07776e-303
-9.21998e-303
-8.58245e-303
-1.00808e-302
-1.23942e-302
-1.06836e-302
-1.56888e-302
-1.11829e-302
-1.8423e-302
-1.16371e-302
-2.0576e-302
-1.20622e-302
-2.21562e-302
-1.24464e-302
-2.3186e-302
-1.27597e-302
-2.36891e-302
-1.29614e-302
-2.36865e-302
-1.30084e-302
-2.31992e-302
-1.28627e-302
-2.22561e-302
-1.24996e-302
-2.09037e-302
-1.19129e-302
-1.92118e-302
-1.11185e-302
-1.72725e-302
-1.01515e-302
-1.51907e-302
-9.06028e-303
-1.3071e-302
-7.89875e-303
-1.10051e-302
-6.71816e-303
-9.06311e-303
-5.56152e-303
-7.28961e-303
-4.46e-303
-5.70346e-303
-3.43183e-303
-4.3004e-303
-3.05845e-303
-2.49019e-303
-5.11794e-303
-2.57621e-303
-6.26011e-303
-5.59929e-303
-6.91478e-303
-8.24007e-303
-7.37832e-303
-1.05888e-302
-7.75211e-303
-1.25918e-302
-8.07565e-303
-1.42121e-302
-8.36246e-303
-1.54373e-302
-8.60953e-303
-1.627e-302
-8.80232e-303
-1.67196e-302
-8.91905e-303
-1.67983e-302
-8.93523e-303
-1.65224e-302
-8.82848e-303
-1.5915e-302
-8.58326e-303
-1.50113e-302
-8.19471e-303
-1.38611e-302
-7.67063e-303
-1.25273e-302
-7.03082e-303
-1.10809e-302
-6.30395e-303