/*--------------------------------*- C++ -*----------------------------------*\
| =========                 |                                                 |
| \\      /  F ield         | OpenFOAM: The Open Source CFD Toolbox           |
|  \\    /   O peration     | Version:  2406                                  |
|   \\  /    A nd           | Website:  www.openfoam.com                      |
|    \\/     M anipulation  |                                                 |
\*---------------------------------------------------------------------------*/
FoamFile
{
    version     2.0;
    format      ascii;
    arch        "LSB;label=32;scalar=64";
    class       volVectorField;
    location    "1";
    object      U;
}
// * * * * * * * * * * * * * * * * * * * * * * * * * * * * * * * * * * * * * //

dimensions      [0 1 -1 0 0 0 0];

internalField   nonuniform List<vector> 
2268
(
(-3.26014e-300 -1.0111e-300 0)
(-9.17391e-300 -4.22987e-300 0)
(-1.51246e-299 -5.40329e-300 0)
(-2.10121e-299 -5.31849e-300 0)
(-2.69209e-299 -3.87843e-300 0)
(-3.28325e-299 -7.2649e-301 0)
(-3.86022e-299 4.70818e-300 0)
(-4.38677e-299 1.3284e-299 0)
(-4.78148e-299 2.63587e-299 0)
(-4.84326e-299 4.62903e-299 0)
(-3.91047e-299 7.74075e-299 0)
(5.8531e-300 1.19614e-298 0)
(2.61091e-298 1.63155e-298 0)
(8.17072e-299 7.59793e-299 0)
(-1.04929e-298 3.03217e-299 0)
(-9.28783e-299 -4.68657e-300 0)
(-6.47939e-299 -1.20575e-299 0)
(-4.35763e-299 -1.10909e-299 0)
(-2.88056e-299 -7.79831e-300 0)
(-1.86207e-299 -4.35989e-300 0)
(-1.14453e-299 -1.48232e-300 0)
(-6.17243e-300 4.64159e-301 0)
(-1.64017e-300 8.1491e-301 0)
(-1.00961e-299 -2.19534e-300 0)
(-2.82154e-299 -1.02366e-299 0)
(-4.59345e-299 -1.36739e-299 0)
(-6.35235e-299 -1.34378e-299 0)
(-8.11452e-299 -9.13617e-300 0)
(-9.87084e-299 2.65019e-301 0)
(-1.15756e-298 1.63789e-299 0)
(-1.31191e-298 4.16035e-299 0)
(-1.42651e-298 7.95452e-299 0)
(-1.44881e-298 1.35919e-298 0)
(-1.25005e-298 2.20185e-298 0)
(-4.63072e-299 3.47892e-298 0)
(1.53679e-298 5.26448e-298 0)
(2.39712e-299 2.27672e-298 0)
(-1.54284e-298 4.77822e-299 0)
(-1.22666e-298 -4.07381e-301 0)
(-8.92471e-299 -1.10998e-299 0)
(-6.27654e-299 -1.13318e-299 0)
(-4.33709e-299 -8.27053e-300 0)
(-2.94376e-299 -4.57107e-300 0)
(-1.93047e-299 -1.16311e-300 0)
(-1.16016e-299 1.49023e-300 0)
(-4.42824e-300 2.39359e-300 0)
(-1.67844e-299 -3.76334e-300 0)
(-4.75077e-299 -1.58988e-299 0)
(-7.76054e-299 -2.15295e-299 0)
(-1.07557e-298 -2.12172e-299 0)
(-1.37659e-298 -1.41631e-299 0)
(-1.67825e-298 1.32863e-300 0)
(-1.9742e-298 2.78744e-299 0)
(-2.24879e-298 6.92772e-299 0)
(-2.46912e-298 1.31187e-298 0)
(-2.56741e-298 2.22309e-298 0)
(-2.40269e-298 3.57073e-298 0)
(-1.64991e-298 5.62868e-298 0)
(-1.84127e-299 8.60538e-298 0)
(-8.05829e-299 3.62223e-298 0)
(-1.86164e-298 6.04511e-299 0)
(-1.43224e-298 4.72613e-300 0)
(-1.06495e-298 -8.27147e-300 0)
(-7.70436e-299 -9.83589e-300 0)
(-5.48158e-299 -7.44907e-300 0)
(-3.84115e-299 -3.96253e-300 0)
(-2.62377e-299 -4.3474e-301 0)
(-1.67821e-299 2.62313e-300 0)
(-7.59891e-300 4.00015e-300 0)
(-2.36203e-299 -5.45887e-300 0)
(-6.75751e-299 -2.14615e-299 0)
(-1.10796e-298 -2.93223e-299 0)
(-1.53942e-298 -2.90705e-299 0)
(-1.97473e-298 -1.94431e-299 0)
(-2.41388e-298 1.93374e-300 0)
(-2.85024e-298 3.85987e-299 0)
(-3.26638e-298 9.56692e-299 0)
(-3.62622e-298 1.80589e-298 0)
(-3.86021e-298 3.04714e-298 0)
(-3.8413e-298 4.86583e-298 0)
(-3.32398e-298 7.60713e-298 0)
(-2.38688e-298 1.14519e-297 0)
(-1.89795e-298 4.56242e-298 0)
(-2.18272e-298 7.36878e-299 0)
(-1.64837e-298 9.99054e-300 0)
(-1.23732e-298 -5.22987e-300 0)
(-9.11763e-299 -8.02225e-300 0)
(-6.62846e-299 -6.3544e-300 0)
(-4.76323e-299 -3.19518e-300 0)
(-3.36409e-299 3.29298e-301 0)
(-2.26521e-299 3.71717e-300 0)
(-1.15795e-299 5.65665e-300 0)
(-3.08322e-299 -7.27369e-300 0)
(-8.88647e-299 -2.72302e-299 0)
(-1.46131e-298 -3.74816e-299 0)
(-2.03476e-298 -3.75205e-299 0)
(-2.61556e-298 -2.55571e-299 0)
(-3.20532e-298 1.42736e-300 0)
(-3.79859e-298 4.78741e-299 0)
(-4.37875e-298 1.20059e-298 0)
(-4.91137e-298 2.27051e-298 0)
(-5.33329e-298 3.82401e-298 0)
(-5.54015e-298 6.0779e-298 0)
(-5.35393e-298 9.40898e-298 0)
(-4.92669e-298 1.39092e-297 0)
(-3.02151e-298 5.31577e-298 0)
(-2.55505e-298 8.71077e-299 0)
(-1.89619e-298 1.50799e-299 0)
(-1.42716e-298 -2.37254e-300 0)
(-1.06415e-298 -6.2909e-300 0)
(-7.86203e-299 -5.30745e-300 0)
(-5.76583e-299 -2.51197e-300 0)
(-4.18942e-299 9.25908e-301 0)
(-2.95238e-299 4.55876e-300 0)
(-1.65949e-299 7.11116e-300 0)
(-3.85945e-299 -9.24924e-300 0)
(-1.11776e-298 -3.34592e-299 0)
(-1.84206e-298 -4.64071e-299 0)
(-2.56932e-298 -4.7054e-299 0)
(-3.3084e-298 -3.30863e-299 0)
(-4.0633e-298 -8.12923e-301 0)
(-4.83092e-298 5.50155e-299 0)
(-5.59761e-298 1.4177e-298 0)
(-6.33384e-298 2.69866e-298 0)
(-6.98685e-298 4.54668e-298 0)
(-7.47501e-298 7.19939e-298 0)
(-7.66606e-298 1.10442e-297 0)
(-7.72755e-298 1.60911e-297 0)
(-4.20299e-298 5.9771e-298 0)
(-2.98679e-298 1.00396e-298 0)
(-2.18041e-298 1.99423e-299 0)
(-1.64003e-298 2.05899e-301 0)
(-1.2322e-298 -4.77521e-300 0)
(-9.21392e-299 -4.43787e-300 0)
(-6.86758e-299 -2.03488e-300 0)
(-5.10974e-299 1.2051e-300 0)
(-3.7514e-299 4.89153e-300 0)
(-2.30099e-299 7.83465e-300 0)
(-4.70499e-299 -1.14546e-299 0)
(-1.36678e-298 -4.0391e-299 0)
(-2.25593e-298 -5.64736e-299 0)
(-3.1506e-298 -5.81716e-299 0)
(-4.06233e-298 -4.26018e-299 0)
(-4.99806e-298 -5.44946e-300 0)
(-5.95811e-298 5.93446e-299 0)
(-6.93323e-298 1.60074e-298 0)
(-7.90079e-298 3.08346e-298 0)
(-8.81996e-298 5.20816e-298 0)
(-9.62945e-298 8.2254e-298 0)
(-1.0228e-297 1.2524e-297 0)
(-1.07631e-297 1.80765e-297 0)
(-5.46291e-298 6.5858e-298 0)
(-3.4737e-298 1.13421e-298 0)
(-2.50037e-298 2.46079e-299 0)
(-1.8773e-298 2.51024e-300 0)
(-1.4176e-298 -3.51183e-300 0)
(-1.06955e-298 -3.8e-300 0)
(-8.07086e-299 -1.8296e-300 0)
(-6.11699e-299 1.05341e-300 0)
(-4.64977e-299 4.41815e-300 0)
(-3.13681e-299 6.90361e-300 0)
(-5.63154e-299 -1.39853e-299 0)
(-1.63916e-298 -4.82507e-299 0)
(-2.70845e-298 -6.80703e-299 0)
(-3.78596e-298 -7.13738e-299 0)
(-4.88624e-298 -5.47283e-299 0)
(-6.01964e-298 -1.31543e-299 0)
(-7.19059e-298 6.01146e-299 0)
(-8.39523e-298 1.74255e-298 0)
(-9.61875e-298 3.41772e-298 0)
(-1.08326e-297 5.8028e-298 0)
(-1.19939e-297 9.15333e-298 0)
(-1.30304e-297 1.38533e-297 0)
(-1.40431e-297 1.98693e-297 0)
(-6.81565e-298 7.1397e-298 0)
(-4.00668e-298 1.26059e-298 0)
(-2.85171e-298 2.91301e-299 0)
(-2.13702e-298 4.5895e-300 0)
(-1.61941e-298 -2.48545e-300 0)
(-1.22978e-298 -3.39986e-300 0)
(-9.35958e-299 -1.9115e-300 0)
(-7.17716e-299 4.27531e-301 0)
(-5.57978e-299 2.8301e-300 0)
(-4.25459e-299 3.0175e-300 0)
(-8.21419e-303 -2.10957e-302 0)
(-3.5204e-302 -1.05011e-301 0)
(-2.61611e-302 -1.00607e-301 0)
(-2.63916e-302 -6.35354e-302 0)
(-2.73084e-302 -3.34185e-302 0)
(-2.44033e-302 -1.59138e-302 0)
(-1.8978e-302 -7.08165e-303 0)
(-1.32858e-302 -2.93609e-303 0)
(-8.59468e-303 -1.08736e-303 0)
(-5.22415e-303 -3.11864e-304 0)
(-3.01235e-303 -1.92294e-305 0)
(-1.65512e-303 6.75951e-305 0)
(-8.66792e-304 7.50266e-305 0)
(-4.30986e-304 5.79694e-305 0)
(-2.01495e-304 3.81016e-305 0)
(-8.67989e-305 2.23457e-305 0)
(-3.2927e-305 1.16093e-305 0)
(-9.63175e-306 4.74101e-306 0)
(-9.09425e-307 8.21086e-307 0)
(-1.23681e-302 -7.05718e-302 0)
(-6.73252e-302 -2.05976e-301 0)
(-6.98581e-302 -1.77366e-301 0)
(-7.15013e-302 -1.08712e-301 0)
(-6.61253e-302 -5.627e-302 0)
(-5.43524e-302 -2.61499e-302 0)
(-4.04013e-302 -1.10479e-302 0)
(-2.77408e-302 -4.08935e-303 0)
(-1.78871e-302 -1.12336e-303 0)
(-1.09508e-302 4.41724e-306 0)
(-6.40739e-303 3.37541e-304 0)
(-3.59382e-303 3.59476e-304 0)
(-1.93212e-303 2.83079e-304 0)
(-9.92281e-304 1.9431e-304 0)
(-4.82878e-304 1.22031e-304 0)
(-2.18933e-304 7.12514e-305 0)
(-8.90456e-305 3.83797e-305 0)
(-2.91299e-305 1.76914e-305 0)
(-3.38389e-306 4.38558e-306 0)
(-2.34026e-302 -1.53352e-301 0)
(-1.1331e-301 -3.27681e-301 0)
(-1.32762e-301 -2.57229e-301 0)
(-1.33133e-301 -1.51612e-301 0)
(-1.16076e-301 -7.66731e-302 0)
(-9.08663e-302 -3.47275e-302 0)
(-6.54545e-302 -1.39986e-302 0)
(-4.41758e-302 -4.62834e-303 0)
(-2.82838e-302 -7.8467e-304 0)
(-1.7318e-302 5.51134e-304 0)
(-1.01884e-302 8.36684e-304 0)
(-5.77051e-303 7.39548e-304 0)
(-3.14502e-303 5.45895e-304 0)
(-1.64412e-303 3.64785e-304 0)
(-8.18483e-304 2.27382e-304 0)
(-3.82329e-304 1.33768e-304 0)
(-1.62149e-304 7.39613e-305 0)
(-5.67768e-305 3.6296e-305 0)
(-8.15578e-306 1.07372e-305 0)
(-6.1454e-302 -3.06653e-301 0)
(-1.97783e-301 -5.02649e-301 0)
(-2.34978e-301 -3.58382e-301 0)
(-2.25353e-301 -2.01429e-301 0)
(-1.87038e-301 -9.90312e-302 0)
(-1.40916e-301 -4.36866e-302 0)
(-9.89408e-302 -1.684e-302 0)
(-6.57746e-302 -4.92409e-303 0)
(-4.18105e-302 -1.96829e-304 0)
(-2.55665e-302 1.30786e-303 0)
(-1.50887e-302 1.49636e-303 0)
(-8.60452e-303 1.23487e-303 0)
(-4.73733e-303 8.87805e-304 0)
(-2.5102e-303 5.87738e-304 0)
(-1.27172e-303 3.66701e-304 0)
(-6.07954e-304 2.17943e-304 0)
(-2.66393e-304 1.23279e-304 0)
(-9.83031e-305 6.34043e-305 0)
(-1.65828e-305 2.11336e-305 0)
(-1.69306e-301 -5.8919e-301 0)
(-3.56418e-301 -7.55684e-301 0)
(-4.03034e-301 -4.88298e-301 0)
(-3.64236e-301 -2.61004e-301 0)
(-2.88624e-301 -1.24722e-301 0)
(-2.10446e-301 -5.37485e-302 0)
(-1.44634e-301 -1.99438e-302 0)
(-9.49442e-302 -5.1568e-303 0)
(-5.99866e-302 5.62598e-304 0)
(-3.66386e-302 2.24925e-303 0)
(-2.16809e-302 2.31537e-303 0)
(-1.24359e-302 1.85356e-303 0)
(-6.90611e-303 1.31901e-303 0)
(-3.70171e-303 8.72363e-304 0)
(-1.90345e-303 5.47241e-304 0)
(-9.27937e-304 3.2911e-304 0)
(-4.17915e-304 1.90109e-304 0)
(-1.61085e-304 1.01633e-304 0)
(-3.0731e-305 3.71989e-305 0)
(-4.49872e-301 -1.1107e-300 0)
(-6.50962e-301 -1.10778e-300 0)
(-6.73838e-301 -6.4879e-301 0)
(-5.6911e-301 -3.30581e-301 0)
(-4.31369e-301 -1.54125e-301 0)
(-3.05605e-301 -6.52499e-302 0)
(-2.0631e-301 -2.35294e-302 0)
(-1.34058e-301 -5.4472e-303 0)
(-8.43107e-302 1.43669e-303 0)
(-5.14732e-302 3.35454e-303 0)
(-3.05449e-302 3.2912e-303 0)
(-1.76164e-302 2.60089e-303 0)
(-9.86047e-303 1.84703e-303 0)
(-5.34006e-303 1.22589e-303 0)
(-2.7823e-303 7.74983e-304 0)
(-1.37983e-303 4.7186e-304 0)
(-6.36416e-304 2.77842e-304 0)
(-2.5466e-304 1.5345e-304 0)
(-5.37863e-305 6.079e-305 0)
(-1.13063e-300 -2.0537e-300 0)
(-1.1888e-300 -1.56327e-300 0)
(-1.09595e-300 -8.34815e-301 0)
(-8.62187e-301 -4.0868e-301 0)
(-6.26886e-301 -1.87236e-301 0)
(-4.33182e-301 -7.84478e-302 0)
(-2.88191e-301 -2.78037e-302 0)
(-1.85813e-301 -5.9181e-303 0)
(-1.16511e-301 2.36422e-303 0)
(-7.11697e-302 4.59932e-303 0)
(-4.23706e-302 4.4188e-303 0)
(-2.45715e-302 3.48057e-303 0)
(-1.38574e-302 2.4785e-303 0)
(-7.57688e-303 1.65504e-303 0)
(-3.99533e-303 1.05561e-303 0)
(-2.01201e-303 6.50531e-304 0)
(-9.47619e-304 3.89538e-304 0)
(-3.91588e-304 2.20773e-304 0)
(-9.03227e-305 9.31523e-305 0)
(-2.61909e-300 -3.88312e-300 0)
(-2.15426e-300 -2.07799e-300 0)
(-1.71586e-300 -1.02959e-300 0)
(-1.26094e-300 -4.91578e-301 0)
(-8.83867e-301 -2.23486e-301 0)
(-5.98297e-301 -9.34201e-302 0)
(-3.93521e-301 -3.29292e-302 0)
(-2.52311e-301 -6.70101e-303 0)
(-1.57955e-301 3.25743e-303 0)
(-9.66097e-302 5.9303e-303 0)
(-5.77188e-302 5.66794e-303 0)
(-3.36518e-302 4.47649e-303 0)
(-1.91117e-302 3.20544e-303 0)
(-1.05408e-302 2.15615e-303 0)
(-5.6176e-303 1.38752e-303 0)
(-2.86692e-303 8.64371e-304 0)
(-1.37458e-303 5.24553e-304 0)
(-5.83669e-304 3.02652e-304 0)
(-1.45992e-304 1.33249e-304 0)
(-7.19756e-299 -1.85492e-299 0)
(-2.09952e-298 -6.21552e-299 0)
(-3.47313e-298 -8.88948e-299 0)
(-4.85941e-298 -9.57793e-299 0)
(-6.27809e-298 -7.843e-299 0)
(-7.74547e-298 -3.09058e-299 0)
(-9.27316e-298 5.46756e-299 0)
(-1.08666e-297 1.88616e-298 0)
(-1.25237e-297 3.84609e-298 0)
(-1.42345e-297 6.6107e-298 0)
(-1.59818e-297 1.04341e-297 0)
(-1.77357e-297 1.56642e-297 0)
(-1.95595e-297 2.21239e-297 0)
(-9.03926e-298 7.86693e-298 0)
(-4.89041e-298 1.45257e-298 0)
(-3.4345e-298 3.61623e-299 0)
(-2.56688e-298 7.70097e-300 0)
(-1.95167e-298 -1.08074e-300 0)
(-1.49141e-298 -3.01248e-300 0)
(-1.14297e-298 -2.36189e-300 0)
(-8.80792e-299 -1.08702e-300 0)
(-6.84885e-299 -6.50688e-301 0)
(-5.34273e-299 -3.16497e-300 0)
(-9.465e-299 -2.62084e-299 0)
(-2.76515e-298 -8.51417e-299 0)
(-4.57961e-298 -1.24356e-298 0)
(-6.41569e-298 -1.39548e-298 0)
(-8.30172e-298 -1.25137e-298 0)
(-1.02637e-297 -7.39331e-299 0)
(-1.23244e-297 2.30987e-299 0)
(-1.45025e-297 1.77371e-298 0)
(-1.68119e-297 4.03223e-298 0)
(-1.92626e-297 7.18909e-298 0)
(-2.18608e-297 1.14763e-297 0)
(-2.46076e-297 1.71786e-297 0)
(-2.75356e-297 2.39936e-297 0)
(-1.22451e-297 8.50167e-298 0)
(-6.19387e-298 1.65559e-298 0)
(-4.2756e-298 4.38323e-299 0)
(-3.17419e-298 1.09252e-299 0)
(-2.4099e-298 1.11849e-301 0)
(-1.8418e-298 -3.05789e-300 0)
(-1.40865e-298 -3.39954e-300 0)
(-1.0745e-298 -3.08851e-300 0)
(-8.11906e-299 -3.45621e-300 0)
(-5.94086e-299 -5.47029e-300 0)
(-1.18738e-298 -3.59391e-299 0)
(-3.46776e-298 -1.14361e-298 0)
(-5.74596e-298 -1.70384e-298 0)
(-8.0561e-298 -1.98499e-298 0)
(-1.04364e-297 -1.91921e-298 0)
(-1.29233e-297 -1.42389e-298 0)
(-1.55509e-297 -3.98405e-299 0)
(-1.83497e-297 1.27805e-298 0)
(-2.1347e-297 3.75142e-298 0)
(-2.45664e-297 7.1954e-298 0)
(-2.80278e-297 1.18163e-297 0)
(-3.17471e-297 1.78402e-297 0)
(-3.57294e-297 2.48804e-297 0)
(-1.55859e-297 8.83355e-298 0)
(-7.59515e-298 1.77401e-298 0)
(-5.16416e-298 4.75605e-299 0)
(-3.804e-298 1.18236e-299 0)
(-2.87559e-298 -2.09003e-301 0)
(-2.19013e-298 -4.05825e-300 0)
(-1.66652e-298 -4.8628e-300 0)
(-1.25869e-298 -4.82406e-300 0)
(-9.34388e-299 -5.02706e-300 0)
(-6.67954e-299 -5.82801e-300 0)
(-1.44291e-298 -4.84712e-299 0)
(-4.20753e-298 -1.51997e-298 0)
(-6.97105e-298 -2.30549e-298 0)
(-9.77701e-298 -2.77396e-298 0)
(-1.26745e-297 -2.84641e-298 0)
(-1.57109e-297 -2.42929e-298 0)
(-1.89311e-297 -1.41379e-298 0)
(-2.23766e-297 3.27085e-299 0)
(-2.60847e-297 2.93887e-298 0)
(-3.00883e-297 6.58742e-298 0)
(-3.44149e-297 1.1456e-297 0)
(-3.90873e-297 1.77296e-297 0)
(-4.40931e-297 2.49696e-297 0)
(-1.90595e-297 8.92101e-298 0)
(-9.09027e-298 1.80267e-298 0)
(-6.10147e-298 4.63927e-299 0)
(-4.45971e-298 9.6227e-300 0)
(-3.3538e-298 -2.56504e-300 0)
(-2.54326e-298 -6.32047e-300 0)
(-1.92577e-298 -6.9305e-300 0)
(-1.44492e-298 -6.55346e-300 0)
(-1.06366e-298 -6.11582e-300 0)
(-7.55445e-299 -5.82031e-300 0)
(-1.7127e-298 -6.45803e-299 0)
(-4.9824e-298 -2.00353e-298 0)
(-8.25072e-298 -3.0858e-298 0)
(-1.15715e-297 -3.81331e-298 0)
(-1.5006e-297 -4.09493e-298 0)
(-1.86129e-297 -3.82707e-298 0)
(-2.2448e-297 -2.89176e-298 0)
(-2.65624e-297 -1.15714e-298 0)
(-3.10021e-297 1.52407e-298 0)
(-3.58065e-297 5.31149e-298 0)
(-4.10081e-297 1.03752e-297 0)
(-4.6633e-297 1.68748e-297 0)
(-5.26597e-297 2.43443e-297 0)
(-2.2684e-297 8.78108e-298 0)
(-1.06755e-297 1.73385e-298 0)
(-7.08668e-298 3.94513e-299 0)
(-5.14259e-298 3.59549e-300 0)
(-3.84738e-298 -7.50475e-300 0)
(-2.90523e-298 -1.02575e-299 0)
(-2.19107e-298 -9.96495e-300 0)
(-1.63722e-298 -8.71477e-300 0)
(-1.20068e-298 -7.34557e-300 0)
(-8.51674e-299 -6.05793e-300 0)
(-1.9956e-298 -8.51166e-299 0)
(-5.78816e-298 -2.61901e-298 0)
(-9.57751e-298 -4.08559e-298 0)
(-1.34293e-297 -5.158e-298 0)
(-1.74179e-297 -5.73292e-298 0)
(-2.16147e-297 -5.69489e-298 0)
(-2.60864e-297 -4.91738e-298 0)
(-3.0894e-297 -3.26127e-298 0)
(-3.60907e-297 -5.76903e-299 0)
(-4.17219e-297 3.29548e-298 0)
(-4.78238e-297 8.52017e-298 0)
(-5.44252e-297 1.52493e-297 0)
(-6.14986e-297 2.30023e-297 0)
(-2.64859e-297 8.39723e-298 0)
(-1.23491e-297 1.55233e-298 0)
(-8.11814e-298 2.55787e-299 0)
(-5.85216e-298 -7.13548e-300 0)
(-4.35697e-298 -1.56938e-299 0)
(-3.27736e-298 -1.63929e-299 0)
(-2.46371e-298 -1.44208e-299 0)
(-1.83592e-298 -1.17552e-299 0)
(-1.34391e-298 -9.15485e-300 0)
(-9.53285e-299 -6.81681e-300 0)
(-2.28957e-298 -1.11022e-298 0)
(-6.61755e-298 -3.39407e-298 0)
(-1.09394e-297 -5.34979e-298 0)
(-1.5334e-297 -6.86967e-298 0)
(-1.98914e-297 -7.83558e-298 0)
(-2.46965e-297 -8.12012e-298 0)
(-2.98285e-297 -7.58566e-298 0)
(-3.5358e-297 -6.08594e-298 0)
(-4.13463e-297 -3.46457e-298 0)
(-4.78437e-297 4.41348e-299 0)
(-5.48905e-297 5.80083e-298 0)
(-6.25177e-297 1.277e-297 0)
(-7.06919e-297 2.08672e-297 0)
(-3.04955e-297 7.72094e-298 0)
(-1.41109e-297 1.23251e-298 0)
(-9.19348e-298 3.13346e-300 0)
(-6.58652e-298 -2.37144e-299 0)
(-4.88143e-298 -2.79603e-299 0)
(-3.65898e-298 -2.53509e-299 0)
(-2.74302e-298 -2.07965e-299 0)
(-2.03987e-298 -1.60914e-299 0)
(-1.49145e-298 -1.18707e-299 0)
(-1.0581e-298 -8.27071e-300 0)
(-2.59112e-298 -1.43383e-298 0)
(-7.45886e-298 -4.35985e-298 0)
(-1.23169e-297 -6.9298e-298 0)
(-1.72603e-297 -9.01748e-298 0)
(-2.23969e-297 -1.04886e-297 0)
(-2.78279e-297 -1.12007e-297 0)
(-3.36461e-297 -1.10056e-297 0)
(-3.99329e-297 -9.74665e-298 0)
(-4.67574e-297 -7.26069e-298 0)
(-5.41759e-297 -3.37546e-298 0)
(-6.2232e-297 2.08746e-298 0)
(-7.096e-297 9.3017e-298 0)
(-8.03158e-297 1.7791e-297 0)
(-3.47411e-297 6.67126e-298 0)
(-1.59594e-297 7.36868e-299 0)
(-1.03089e-297 -3.00986e-299 0)
(-7.34228e-298 -4.75887e-299 0)
(-5.41812e-298 -4.5293e-299 0)
(-4.04803e-298 -3.78307e-299 0)
(-3.0272e-298 -2.96047e-299 0)
(-2.24728e-298 -2.21044e-299 0)
(-1.64151e-298 -1.57572e-299 0)
(-1.16453e-298 -1.05587e-299 0)
(-2.89467e-298 -1.83465e-298 0)
(-8.29344e-298 -5.55278e-298 0)
(-1.36797e-297 -8.88455e-298 0)
(-1.91681e-297 -1.16817e-297 0)
(-2.48883e-297 -1.37892e-297 0)
(-3.09605e-297 -1.50493e-297 0)
(-3.74927e-297 -1.53003e-297 0)
(-4.45782e-297 -1.43772e-297 0)
(-5.22947e-297 -1.2107e-297 0)
(-6.07039e-297 -8.30808e-298 0)
(-6.98534e-297 -2.78559e-298 0)
(-7.97806e-297 4.65728e-298 0)
(-9.04242e-297 1.35604e-297 0)
(-3.92419e-297 5.1339e-298 0)
(-1.78902e-297 1.54816e-300 0)
(-1.14585e-297 -7.68969e-299 0)
(-8.11429e-298 -8.04721e-299 0)
(-5.96302e-298 -6.87925e-299 0)
(-4.44137e-298 -5.45596e-299 0)
(-3.31372e-298 -4.13383e-299 0)
(-2.45601e-298 -3.01306e-299 0)
(-1.79226e-298 -2.10321e-299 0)
(-1.27118e-298 -1.37989e-299 0)
(-3.19138e-298 -2.32805e-298 0)
(-9.09245e-298 -7.01588e-298 0)
(-1.49808e-297 -1.12842e-297 0)
(-2.09961e-297 -1.49553e-297 0)
(-2.72947e-297 -1.78505e-297 0)
(-3.4019e-297 -1.97931e-297 0)
(-4.12939e-297 -2.06104e-297 0)
(-4.92254e-297 -2.01279e-297 0)
(-5.78991e-297 -1.81664e-297 0)
(-6.73825e-297 -1.45331e-297 0)
(-7.77262e-297 -9.0178e-298 0)
(-8.89719e-297 -1.39324e-298 0)
(-1.0103e-296 7.90047e-298 0)
(-4.40003e-297 2.96176e-298 0)
(-1.98922e-297 -9.93243e-299 0)
(-1.26328e-297 -1.40484e-298 0)
(-8.8953e-298 -1.2422e-298 0)
(-6.51064e-298 -9.9564e-299 0)
(-4.83485e-298 -7.62112e-299 0)
(-3.59938e-298 -5.64176e-299 0)
(-2.66354e-298 -4.0435e-299 0)
(-1.94176e-298 -2.78574e-299 0)
(-1.37662e-298 -1.80807e-299 0)
(-3.46773e-298 -2.93306e-298 0)
(-9.81181e-298 -8.80217e-298 0)
(-1.61494e-297 -1.42129e-297 0)
(-2.26525e-297 -1.89498e-297 0)
(-2.95109e-297 -2.28036e-297 0)
(-3.68919e-297 -2.55791e-297 0)
(-4.49384e-297 -2.70926e-297 0)
(-5.37674e-297 -2.71666e-297 0)
(-6.34723e-297 -2.56175e-297 0)
(-7.4124e-297 -2.22478e-297 0)
(-8.57763e-297 -1.68319e-297 0)
(-9.84744e-297 -9.11544e-298 0)
(-1.1209e-296 4.8917e-299 0)
(-4.89919e-297 -2.12366e-300 0)
(-2.19455e-297 -2.35951e-298 0)
(-1.3818e-297 -2.24236e-298 0)
(-9.67551e-298 -1.80585e-298 0)
(-7.0539e-298 -1.38535e-298 0)
(-5.22321e-298 -1.03281e-298 0)
(-3.88018e-298 -7.51109e-299 0)
(-2.86684e-298 -5.3166e-299 0)
(-2.08772e-298 -3.63148e-299 0)
(-1.4792e-298 -2.34468e-299 0)
(-3.70309e-298 -3.67459e-298 0)
(-1.03847e-297 -1.09784e-297 0)
(-1.70794e-297 -1.7776e-297 0)
(-2.40031e-297 -2.37994e-297 0)
(-3.13855e-297 -2.88037e-297 0)
(-3.94209e-297 -3.25738e-297 0)
(-4.82677e-297 -3.49226e-297 0)
(-5.80514e-297 -3.56743e-297 0)
(-6.8868e-297 -3.46523e-297 0)
(-8.07907e-297 -3.16592e-297 0)
(-9.38729e-297 -2.64653e-297 0)
(-1.08165e-296 -1.87921e-297 0)
(-1.23486e-296 -9.02714e-298 0)
(-5.41558e-297 -4.01034e-298 0)
(-2.40182e-297 -4.15532e-298 0)
(-1.49947e-297 -3.31134e-298 0)
(-1.0442e-297 -2.50822e-298 0)
(-7.58366e-298 -1.86187e-298 0)
(-5.59972e-298 -1.35913e-298 0)
(-4.15105e-298 -9.74314e-299 0)
(-3.06203e-298 -6.82955e-299 0)
(-2.22724e-298 -4.63709e-299 0)
(-1.57681e-298 -2.98711e-299 0)
(-3.8657e-298 -4.58668e-298 0)
(-1.07084e-297 -1.36328e-297 0)
(-1.76122e-297 -2.21072e-297 0)
(-2.48526e-297 -2.96706e-297 0)
(-3.27056e-297 -3.60339e-297 0)
(-4.13888e-297 -4.09686e-297 0)
(-5.10696e-297 -4.42914e-297 0)
(-6.18722e-297 -4.58443e-297 0)
(-7.38893e-297 -4.54666e-297 0)
(-8.71896e-297 -4.29773e-297 0)
(-1.01825e-296 -3.81517e-297 0)
(-1.17849e-296 -3.07054e-297 0)
(-1.35016e-296 -2.10026e-297 0)
(-5.93843e-297 -9.20107e-298 0)
(-2.6063e-297 -6.44167e-298 0)
(-1.61369e-297 -4.62864e-298 0)
(-1.11779e-297 -3.35091e-298 0)
(-8.08789e-298 -2.42192e-298 0)
(-5.95543e-298 -1.73694e-298 0)
(-4.40517e-298 -1.23021e-298 0)
(-3.24394e-298 -8.5555e-299 0)
(-2.35642e-298 -5.7841e-299 0)
(-1.66664e-298 -3.72362e-299 0)
(-3.9047e-298 -5.71989e-298 0)
(-1.06203e-297 -1.68865e-297 0)
(-1.7507e-297 -2.73839e-297 0)
(-2.49189e-297 -3.67719e-297 0)
(-3.3177e-297 -4.47145e-297 0)
(-4.25092e-297 -5.09789e-297 0)
(-5.30721e-297 -5.54072e-297 0)
(-6.49736e-297 -5.78739e-297 0)
(-7.82896e-297 -5.82552e-297 0)
(-9.30777e-297 -5.63986e-297 0)
(-1.09382e-296 -5.21065e-297 0)
(-1.27262e-296 -4.51072e-297 0)
(-1.46394e-296 -3.57588e-297 0)
(-6.45114e-297 -1.57563e-297 0)
(-2.80125e-297 -9.24635e-298 0)
(-1.72086e-297 -6.18425e-298 0)
(-1.18596e-297 -4.31673e-298 0)
(-8.54982e-298 -3.04996e-298 0)
(-6.27778e-298 -2.15439e-298 0)
(-4.63305e-298 -1.51045e-298 0)
(-3.40541e-298 -1.04383e-298 0)
(-2.46999e-298 -7.03608e-299 0)
(-1.74491e-298 -4.53168e-299 0)
(-3.73192e-298 -7.15596e-298 0)
(-9.84948e-298 -2.09158e-297 0)
(-1.63883e-297 -3.38461e-297 0)
(-2.37911e-297 -4.53696e-297 0)
(-3.24008e-297 -5.51061e-297 0)
(-4.24152e-297 -6.28473e-297 0)
(-5.39454e-297 -6.84872e-297 0)
(-6.70549e-297 -7.19616e-297 0)
(-8.17861e-297 -7.31992e-297 0)
(-9.8174e-297 -7.2098e-297 0)
(-1.16252e-296 -6.85039e-297 0)
(-1.3608e-296 -6.21931e-297 0)
(-1.57262e-296 -5.35363e-297 0)
(-6.92923e-297 -2.37513e-297 0)
(-2.97671e-297 -1.25271e-297 0)
(-1.81573e-297 -7.92173e-298 0)
(-1.24527e-297 -5.36047e-298 0)
(-8.94463e-298 -3.71421e-298 0)
(-6.54846e-298 -2.59031e-298 0)
(-4.82112e-298 -1.80127e-298 0)
(-3.53651e-298 -1.23898e-298 0)
(-2.56083e-298 -8.33751e-299 0)
(-1.80668e-298 -5.3772e-299 0)
(-3.16978e-298 -9.04065e-298 0)
(-7.91125e-298 -2.59868e-297 0)
(-1.36503e-297 -4.18274e-297 0)
(-2.08707e-297 -5.58007e-297 0)
(-2.9846e-297 -6.75151e-297 0)
(-4.0659e-297 -7.68347e-297 0)
(-5.33131e-297 -8.37528e-297 0)
(-6.77914e-297 -8.82933e-297 0)
(-8.40821e-297 -9.04605e-297 0)
(-1.02189e-296 -9.02129e-297 0)
(-1.22126e-296 -8.74643e-297 0)
(-1.43957e-296 -8.20695e-297 0)
(-1.67219e-296 -7.44526e-297 0)
(-7.33426e-297 -3.3078e-297 0)
(-3.11625e-297 -1.61115e-297 0)
(-1.88975e-297 -9.71357e-298 0)
(-1.29019e-297 -6.40064e-298 0)
(-9.2344e-298 -4.36454e-298 0)
(-6.7408e-298 -3.01401e-298 0)
(-4.9506e-298 -2.08378e-298 0)
(-3.62412e-298 -1.42926e-298 0)
(-2.61989e-298 -9.6151e-299 0)
(-1.84584e-298 -6.21513e-299 0)
(-1.77389e-298 -1.16438e-297 0)
(-3.86491e-298 -3.25159e-297 0)
(-8.28833e-298 -5.1788e-297 0)
(-1.52913e-297 -6.8483e-297 0)
(-2.48353e-297 -8.22813e-297 0)
(-3.6728e-297 -9.32087e-297 0)
(-5.07836e-297 -1.01412e-296 0)
(-6.68689e-297 -1.07036e-296 0)
(-8.49064e-297 -1.1017e-296 0)
(-1.04862e-296 -1.10842e-296 0)
(-1.2673e-296 -1.09039e-296 0)
(-1.50567e-296 -1.04735e-296 0)
(-1.7588e-296 -9.84546e-297 0)
(-7.59101e-297 -4.32538e-297 0)
(-3.18923e-297 -1.95977e-297 0)
(-1.92823e-297 -1.13369e-297 0)
(-1.31198e-297 -7.31726e-298 0)
(-9.36327e-298 -4.93472e-298 0)
(-6.81819e-298 -3.38752e-298 0)
(-4.99733e-298 -2.33533e-298 0)
(-3.65229e-298 -1.60078e-298 0)
(-2.63672e-298 -1.07822e-298 0)
(-1.85566e-298 -6.99171e-299 0)
(1.87081e-298 -1.54291e-297 0)
(4.25181e-298 -4.11342e-297 0)
(1.37591e-298 -6.43278e-297 0)
(-5.8546e-298 -8.38831e-297 0)
(-1.6575e-297 -9.97415e-297 0)
(-3.01059e-297 -1.12206e-296 0)
(-4.60088e-297 -1.21636e-296 0)
(-6.40356e-297 -1.28316e-296 0)
(-8.40598e-297 -1.32423e-296 0)
(-1.0602e-296 -1.34037e-296 0)
(-1.29882e-296 -1.33213e-296 0)
(-1.55675e-296 -1.30066e-296 0)
(-1.82959e-296 -1.2529e-296 0)
(-7.4986e-297 -5.29136e-297 0)
(-3.13811e-297 -2.21982e-297 0)
(-1.90736e-297 -1.24699e-297 0)
(-1.29803e-297 -7.9652e-298 0)
(-9.25837e-298 -5.35208e-298 0)
(-6.73699e-298 -3.67083e-298 0)
(-4.93466e-298 -2.53232e-298 0)
(-3.60456e-298 -1.73893e-298 0)
(-2.6011e-298 -1.17464e-298 0)
(-1.82982e-298 -7.64854e-299 0)
(1.28931e-297 -2.00641e-297 0)
(2.06823e-297 -5.27422e-297 0)
(1.79508e-297 -8.01876e-297 0)
(8.86086e-298 -1.0251e-296 0)
(-4.33863e-298 -1.20236e-296 0)
(-2.04258e-297 -1.34064e-296 0)
(-3.87902e-297 -1.44602e-296 0)
(-5.91683e-297 -1.52281e-296 0)
(-8.14658e-297 -1.5734e-296 0)
(-1.05633e-296 -1.59885e-296 0)
(-1.3159e-296 -1.5998e-296 0)
(-1.59228e-296 -1.5786e-296 0)
(-1.88179e-296 -1.54428e-296 0)
(-6.44084e-297 -5.86283e-297 0)
(-2.90458e-297 -2.26583e-297 0)
(-1.79797e-297 -1.27549e-297 0)
(-1.23433e-297 -8.21509e-298 0)
(-8.84689e-298 -5.55565e-298 0)
(-6.45801e-298 -3.82977e-298 0)
(-4.74085e-298 -2.65377e-298 0)
(-3.4686e-298 -1.83027e-298 0)
(-2.50592e-298 -1.24201e-298 0)
(-1.7642e-298 -8.12875e-299 0)
(4.92775e-297 -2.72284e-297 0)
(5.0649e-297 -6.69996e-297 0)
(4.27133e-297 -9.85902e-297 0)
(2.87867e-297 -1.23437e-296 0)
(1.13978e-297 -1.42834e-296 0)
(-8.20316e-298 -1.57895e-296 0)
(-2.95519e-297 -1.69473e-296 0)
(-5.25825e-297 -1.78122e-296 0)
(-7.73746e-297 -1.84135e-296 0)
(-1.03975e-296 -1.87609e-296 0)
(-1.32243e-296 -1.88594e-296 0)
(-1.61649e-296 -1.87209e-296 0)
(-9.12226e-297 -8.88178e-297 0)
(-3.96572e-297 -3.75954e-297 0)
(-2.35543e-297 -1.95639e-297 0)
(-1.57011e-297 -1.20666e-297 0)
(-1.11154e-297 -8.02558e-298 0)
(-8.09516e-298 -5.51665e-298 0)
(-5.96798e-298 -3.84363e-298 0)
(-4.41052e-298 -2.68514e-298 0)
(-3.24225e-298 -1.8647e-298 0)
(-2.35037e-298 -1.27336e-298 0)
(-1.65859e-298 -8.38522e-299 0)
(3.78977e-297 -2.07889e-297 0)
(3.09981e-297 -4.15917e-297 0)
(2.35616e-297 -5.59843e-297 0)
(1.45279e-297 -6.57348e-297 0)
(5.11444e-298 -7.26176e-297 0)
(-4.54868e-298 -7.74998e-297 0)
(-1.45533e-297 -8.08486e-297 0)
(-2.50275e-297 -8.28842e-297 0)
(-3.59691e-297 -8.35781e-297 0)
(-4.69922e-297 -8.24655e-297 0)
(-5.67153e-297 -7.78305e-297 0)
(-6.13124e-297 -6.41411e-297 0)
(-3.86135e-297 -3.89822e-297 0)
(-2.50187e-297 -2.45827e-297 0)
(-1.76177e-297 -1.58928e-297 0)
(-1.2788e-297 -1.07266e-297 0)
(-9.46573e-298 -7.44323e-298 0)
(-7.07554e-298 -5.24026e-298 0)
(-5.30385e-298 -3.70918e-298 0)
(-3.96444e-298 -2.62164e-298 0)
(-2.93789e-298 -1.83774e-298 0)
(-2.14212e-298 -1.265e-298 0)
(-1.51779e-298 -8.38991e-299 0)
(1.04158e-297 -1.83691e-297 0)
(5.53826e-298 -2.47557e-297 0)
(3.01539e-298 -2.77987e-297 0)
(2.93456e-299 -3.03751e-297 0)
(-2.6914e-298 -3.24865e-297 0)
(-5.97303e-298 -3.40607e-297 0)
(-9.54663e-298 -3.50881e-297 0)
(-1.33598e-297 -3.55726e-297 0)
(-1.72471e-297 -3.54781e-297 0)
(-2.08196e-297 -3.46518e-297 0)
(-2.32969e-297 -3.27203e-297 0)
(-2.34499e-297 -2.93521e-297 0)
(-2.00398e-297 -2.34523e-297 0)
(-1.61547e-297 -1.74565e-297 0)
(-1.27696e-297 -1.2643e-297 0)
(-9.95916e-298 -9.13175e-298 0)
(-7.71214e-298 -6.60456e-298 0)
(-5.93846e-298 -4.77753e-298 0)
(-4.5432e-298 -3.44686e-298 0)
(-3.44557e-298 -2.47154e-298 0)
(-2.58057e-298 -1.75243e-298 0)
(-1.89626e-298 -1.21772e-298 0)
(-1.35102e-298 -8.14121e-299 0)
(-1.48937e-298 -1.28169e-297 0)
(-1.80835e-298 -1.59461e-297 0)
(-2.09521e-298 -1.73921e-297 0)
(-2.82363e-298 -1.87057e-297 0)
(-3.92527e-298 -1.98312e-297 0)
(-5.32783e-298 -2.06878e-297 0)
(-6.96229e-298 -2.12431e-297 0)
(-8.73884e-298 -2.14886e-297 0)
(-1.05148e-297 -2.14101e-297 0)
(-1.20643e-297 -2.09525e-297 0)
(-1.3072e-297 -1.99869e-297 0)
(-1.32e-297 -1.83311e-297 0)
(-1.23639e-297 -1.57597e-297 0)
(-1.09015e-297 -1.27484e-297 0)
(-9.22043e-298 -9.90873e-298 0)
(-7.57109e-298 -7.53565e-298 0)
(-6.09044e-298 -5.65553e-298 0)
(-4.82341e-298 -4.2029e-298 0)
(-3.7682e-298 -3.09454e-298 0)
(-2.90323e-298 -2.25437e-298 0)
(-2.20052e-298 -1.61893e-298 0)
(-1.63161e-298 -1.13675e-298 0)
(-1.17006e-298 -7.66524e-299 0)
(-3.28197e-298 -7.80751e-298 0)
(-3.27621e-298 -1.05236e-297 0)
(-3.17375e-298 -1.18258e-297 0)
(-3.34136e-298 -1.27942e-297 0)
(-3.78671e-298 -1.35571e-297 0)
(-4.45898e-298 -1.41196e-297 0)
(-5.29716e-298 -1.44767e-297 0)
(-6.22665e-298 -1.4627e-297 0)
(-7.14923e-298 -1.45637e-297 0)
(-7.93829e-298 -1.42589e-297 0)
(-8.45041e-298 -1.36518e-297 0)
(-8.56529e-298 -1.26605e-297 0)
(-8.25522e-298 -1.12226e-297 0)
(-7.57499e-298 -9.48073e-298 0)
(-6.66651e-298 -7.70272e-298 0)
(-5.67331e-298 -6.08554e-298 0)
(-4.70296e-298 -4.7107e-298 0)
(-3.81662e-298 -3.58835e-298 0)
(-3.04052e-298 -2.69499e-298 0)
(-2.37927e-298 -1.99516e-298 0)
(-1.82561e-298 -1.45183e-298 0)
(-1.36651e-298 -1.03054e-298 0)
(-9.86803e-299 -7.01008e-299 0)
(-2.9381e-298 -4.71882e-298 0)
(-3.1173e-298 -6.94012e-298 0)
(-3.05516e-298 -8.14515e-298 0)
(-3.08828e-298 -8.98029e-298 0)
(-3.27994e-298 -9.59194e-298 0)
(-3.61709e-298 -1.00245e-297 0)
(-4.06357e-298 -1.02949e-297 0)
(-4.56961e-298 -1.0411e-297 0)
(-5.07303e-298 -1.03722e-297 0)
(-5.50185e-298 -1.01642e-297 0)
(-5.78328e-298 -9.75603e-298 0)
(-5.86074e-298 -9.10945e-298 0)
(-5.71214e-298 -8.20767e-298 0)
(-5.34823e-298 -7.11302e-298 0)
(-4.82262e-298 -5.95056e-298 0)
(-4.20746e-298 -4.83572e-298 0)
(-3.5693e-298 -3.83855e-298 0)
(-2.95606e-298 -2.98791e-298 0)
(-2.39607e-298 -2.28554e-298 0)
(-1.90222e-298 -1.71841e-298 0)
(-1.47688e-298 -1.26678e-298 0)
(-1.11587e-298 -9.08903e-299 0)
(-8.11439e-299 -6.23571e-299 0)
(-2.26486e-298 -2.87655e-298 0)
(-2.53345e-298 -4.57328e-298 0)
(-2.55396e-298 -5.60505e-298 0)
(-2.57795e-298 -6.32871e-298 0)
(-2.67542e-298 -6.84799e-298 0)
(-2.85412e-298 -7.20893e-298 0)
(-3.09817e-298 -7.43507e-298 0)
(-3.37889e-298 -7.5388e-298 0)
(-3.65933e-298 -7.52371e-298 0)
(-3.89825e-298 -7.38373e-298 0)
(-4.05568e-298 -7.10379e-298 0)
(-4.10026e-298 -6.66711e-298 0)
(-4.01558e-298 -6.0715e-298 0)