/*--------------------------------*- C++ -*----------------------------------*\
| =========                 |                                                 |
| \\      /  F ield         | OpenFOAM: The Open Source CFD Toolbox           |
|  \\    /   O peration     | Version:  2406                                  |
|   \\  /    A nd           | Website:  www.openfoam.com                      |
|    \\/     M anipulation  |                                                 |
\*---------------------------------------------------------------------------*/
FoamFile
{
    version     2.0;
    format      ascii;
    arch        "LSB;label=32;scalar=64";
    class       volScalarField;
    location    "0.6";
    object      epsilon;
}
// * * * * * * * * * * * * * * * * * * * * * * * * * * * * * * * * * * * * * //

dimensions      [0 2 -3 0 0 0 0];

internalField   nonuniform List<scalar> 
2268
(
0.00930551
0.0372465
0.0604421
0.0787666
0.0933282
0.104902
0.114046
0.121188
0.12666
0.130724
0.133579
0.13536
0.13614
0.135916
0.134598
0.131984
0.127714
0.121199
0.111505
0.0971942
0.0762491
0.0465461
0.00943504
0.01589
0.025722
0.0354425
0.0432874
0.0494772
0.0543271
0.0580987
0.0609975
0.0631847
0.0647848
0.065891
0.0665665
0.0668439
0.0667229
0.0661641
0.0650802
0.0633196
0.060641
0.0566746
0.0508745
0.0425128
0.0309696
0.0182406
0.0249404
0.0266741
0.0327105
0.0379528
0.0421561
0.0454483
0.0479921
0.0499302
0.0513788
0.0524283
0.0531464
0.0535786
0.0537488
0.0536573
0.0532786
0.052556
0.0513943
0.0496495
0.0471166
0.0435227
0.0385642
0.0322592
0.0306901
0.0330796
0.0289999
0.0328735
0.0367076
0.0398867
0.0424022
0.044348
0.0458264
0.0469264
0.0477192
0.0482585
0.0485808
0.0487055
0.0486344
0.0483501
0.0478145
0.0469669
0.0457237
0.0439859
0.041666
0.038778
0.0359228
0.0429439
0.0402311
0.0315163
0.0338025
0.0366462
0.0391258
0.0411238
0.0426794
0.0438627
0.044742
0.0453742
0.0458032
0.0460591
0.0461587
0.0461051
0.0458879
0.0454834
0.0448574
0.0439743
0.0428211
0.0414727
0.0402682
0.040537
0.055636
0.0465299
0.0339332
0.0349597
0.0370339
0.0389769
0.0405835
0.041848
0.0428139
0.0435324
0.0440487
0.044399
0.0446086
0.0446923
0.0446549
0.0444917
0.0441912
0.0437414
0.0431458
0.0424649
0.0419238
0.0422328
0.0458711
0.0708929
0.052107
0.0361626
0.0361518
0.0376007
0.0391096
0.0404011
0.0414329
0.0422264
0.0428182
0.0432439
0.0435332
0.0437075
0.0437803
0.0437578
0.0436404
0.0434266
0.0431225
0.0427636
0.0424683
0.0425894
0.0442323
0.0517962
0.0960426
0.0570655
0.0381835
0.0372988
0.0382275
0.0393751
0.0404047
0.0412434
0.0418941
0.0423814
0.0427328
0.0429722
0.043118
0.0431827
0.0431736
0.0430954
0.0429548
0.0427721
0.0426057
0.0426134
0.0432265
0.0458179
0.0571794
0.162258
0.0103372
0.0507695
0.0817026
0.10242
0.115812
0.124285
0.129393
0.132055
0.132778
0.131804
0.129185
0.12483
0.118525
0.109937
0.0986025
0.0838903
0.0649134
0.0404037
0.0102319
0.0178377
0.0325916
0.0447057
0.0530124
0.0584669
0.0619554
0.0640775
0.0652029
0.0655427
0.065198
0.0641886
0.0624687
0.0599344
0.0564233
0.0517094
0.0454894
0.0373764
0.0270209
0.0157402
0.0295256
0.0330915
0.0398597
0.0448451
0.0482621
0.050512
0.0519081
0.052662
0.0529019
0.0526906
0.052038
0.0509088
0.0492259
0.0468706
0.0436812
0.0394564
0.0339985
0.0274174
0.0241929
0.0410771
0.0362167
0.0395154
0.042507
0.0447613
0.0463301
0.0473362
0.0478907
0.0480702
0.0479136
0.0474239
0.0465708
0.045292
0.0434944
0.0410565
0.0378457
0.0338
0.0293885
0.0318119
0.0531591
0.0403412
0.0405414
0.0419398
0.0433184
0.0443898
0.0451157
0.0455264
0.0456578
0.0455297
0.0451391
0.0444586
0.0434368
0.0419995
0.0400569
0.037531
0.034468
0.0316322
0.0385185
0.067984
0.0451344
0.0420766
0.0420751
0.0427346
0.0434057
0.043907
0.0442015
0.0442911
0.0441795
0.0438582
0.043302
0.0424679
0.0412973
0.0397264
0.0377222
0.0354188
0.0338269
0.0444283
0.0927793
0.0503704
0.0436834
0.0424785
0.0425509
0.0428943
0.0432098
0.0434066
0.0434593
0.043358
0.0430896
0.0426302
0.0419439
0.0409852
0.0397121
0.0381287
0.0364412
0.03587
0.0496602
0.155137
0.0549629
0.0449798
0.0429204
0.0425495
0.0426317
0.0427943
0.0429088
0.0429293
0.0428352
0.0426093
0.0422291
0.0416646
0.0408812
0.0398552
0.0386214
0.0374456
0.0377315
0.0543101
0.0640324
0.0410242
0.0389687
0.0392108
0.0398814
0.0405639
0.0411465
0.041608
0.0419569
0.0422097
0.0423833
0.0424917
0.0425461
0.0425553
0.0425292
0.0424845
0.0424569
0.0425277
0.0428824
0.0439598
0.0468835
0.0549785
0.0801855
0.0713861
0.0440195
0.0407927
0.0403675
0.0405749
0.0409176
0.041247
0.0415198
0.0417297
0.0418829
0.0419894
0.0420591
0.0421013
0.0421258
0.0421454
0.0421817
0.0422749
0.0425029
0.0430177
0.0441148
0.0463695
0.050875
0.0594634
0.0771332
0.0463195
0.0422092
0.0412961
0.0411666
0.0412601
0.0414014
0.0415321
0.0416359
0.041712
0.0417654
0.0418028
0.0418318
0.0418617
0.0419052
0.0419827
0.0421288
0.0424031
0.0429053
0.0437958
0.0453091
0.0477123
0.0510401
0.0815985
0.0480701
0.0432882
0.0420146
0.0416378
0.0415473
0.041548
0.0415709
0.0415927
0.0416079
0.0416179
0.0416271
0.0416412
0.041668
0.0417182
0.0418082
0.0419635
0.042223
0.0426433
0.0432982
0.0442627
0.0455572
0.0470134
0.0850369
0.0493896
0.0440983
0.0425577
0.0419992
0.0417726
0.041668
0.0416088
0.041567
0.0415337
0.0415078
0.0414918
0.0414897
0.0415071
0.0415522
0.0416366
0.0417768
0.0419955
0.0423206
0.04278
0.0433864
0.0441055
0.0448103
0.087655
0.0503735
0.0446989
0.0429613
0.0422694
0.0419425
0.0417593
0.0416377
0.0415464
0.0414743
0.0414186
0.0413799
0.0413609
0.0413652
0.0413983
0.0414673
0.0415818
0.0417532
0.0419932
0.0423083
0.0426909
0.0431053
0.0434755
0.0896233
0.0510986
0.0451387
0.0432571
0.042468
0.0420674
0.0418256
0.0416567
0.0415271
0.041424
0.0413433
0.0412845
0.0412489
0.0412384
0.041256
0.0413056
0.0413918
0.0415191
0.0416906
0.0419041
0.0421479
0.0423953
0.042603
0.091083
0.0516262
0.0454571
0.0434713
0.0426119
0.0421576
0.0418725
0.0416678
0.0415085
0.0413807
0.0412793
0.0412029
0.0411516
0.0411261
0.0411276
0.0411573
0.0412167
0.0413065
0.0414256
0.0415689
0.0417257
0.0418778
0.0420003
0.0921502
0.0520053
0.0456848
0.0436246
0.0427151
0.0422219
0.0419049
0.0416734
0.0414913
0.0413438
0.0412254
0.0411339
0.0410685
0.0410289
0.0410148
0.0410262
0.0410622
0.0411216
0.0412014
0.0412963
0.0413976
0.0414931
0.0415681
0.0929193
0.052274
0.0458458
0.0437333
0.0427883
0.0422674
0.0419272
0.0416757
0.0414761
0.0413132
0.0411809
0.0410766
0.0409988
0.0409466
0.0409187
0.0409139
0.0409305
0.0409659
0.0410167
0.041078
0.0411431
0.0412036
0.0412508
0.0934657
0.0524621
0.0459584
0.0438096
0.04284
0.0422995
0.0419425
0.0416763
0.0414634
0.0412885
0.0411451
0.0410302
0.0409419
0.0408788
0.0408391
0.0408207
0.0408214
0.0408383
0.0408678
0.0409056
0.0409466
0.0409848
0.0410147
0.0938485
0.0525921
0.0460363
0.0438628
0.0428762
0.042322
0.0419532
0.0416762
0.0414533
0.0412692
0.0411169
0.0409934
0.0408966
0.0408244
0.0407748
0.0407454
0.0407335
0.0407362
0.0407501
0.0407713
0.0407958
0.0408195
0.0408384
0.0941131
0.0526808
0.0460896
0.0438994
0.0429015
0.0423379
0.0419607
0.0416759
0.0414457
0.0412545
0.0410955
0.0409652
0.0408613
0.0407817
0.0407241
0.040686
0.0406644
0.0406563
0.0406587
0.0406682
0.0406814
0.0406952
0.040707
0.0942937
0.0527407
0.0461257
0.0439246
0.0429191
0.0423492
0.0419661
0.0416758
0.0414403
0.0412438
0.0410795
0.0409439
0.0408345
0.0407491
0.0406853
0.0406402
0.0406112
0.0405951
0.0405891
0.0405901
0.0405955
0.0406027
0.0406096
0.0944155
0.0527807
0.0461499
0.0439417
0.0429312
0.0423571
0.0419701
0.0416759
0.0414366
0.0412363
0.0410681
0.0409284
0.0408148
0.0407249
0.0406561
0.0406058
0.0405712
0.0405492
0.040537
0.0405321
0.040532
0.0405345
0.0405382
0.0944968
0.0528071
0.0461661
0.0439533
0.0429396
0.0423628
0.0419731
0.0416763
0.0414343
0.0412312
0.0410601
0.0409174
0.0408006
0.0407072
0.0406348
0.0405806
0.0405417
0.0405154
0.0404988
0.0404897
0.0404857
0.040485
0.0404865
0.0945504
0.0528244
0.0461767
0.0439611
0.0429454
0.0423668
0.0419754
0.0416768
0.0414329
0.0412278
0.0410546
0.0409097
0.0407906
0.0406947
0.0406196
0.0405625
0.0405205
0.040491
0.0404713
0.0404592
0.0404525
0.0404497
0.0404496
0.0945854
0.0528356
0.0461837
0.0439663
0.0429494
0.0423697
0.0419772
0.0416774
0.0414322
0.0412258
0.0410511
0.0409046
0.0407838
0.0406861
0.040609
0.0405497
0.0405056
0.0404739
0.040452
0.0404377
0.0404291
0.0404248
0.0404237
0.0946081
0.0528428
0.0461882
0.0439697
0.0429521
0.0423717
0.0419785
0.0416779
0.0414319
0.0412246
0.0410489
0.0409013
0.0407792
0.0406802
0.0406017
0.040541
0.0404953
0.040462
0.0404386
0.0404228
0.040413
0.0404076
0.0404058
0.0946226
0.0528474
0.0461912
0.043972
0.042954
0.0423732
0.0419795
0.0416785
0.0414319
0.0412239
0.0410476
0.0408993
0.0407763
0.0406764
0.040597
0.0405352
0.0404884
0.040454
0.0404295
0.0404128
0.0404021
0.040396
0.0403937
0.0946319
0.0528503
0.046193
0.0439735
0.0429552
0.0423742
0.0419803
0.0416789
0.041432
0.0412237
0.0410469
0.040898
0.0407745
0.040674
0.0405939
0.0405314
0.0404839
0.0404488
0.0404235
0.0404061
0.0403948
0.0403883
0.0403857
0.0946378
0.0528521
0.0461942
0.0439745
0.0429561
0.0423749
0.0419809
0.0416793
0.0414322
0.0412236
0.0410465
0.0408973
0.0407735
0.0406725
0.040592
0.040529
0.040481
0.0404454
0.0404197
0.0404018
0.0403901
0.0403833
0.0403805
0.0946414
0.0528533
0.046195
0.0439751
0.0429566
0.0423754
0.0419813
0.0416797
0.0414324
0.0412236
0.0410464
0.040897
0.0407729
0.0406717
0.0405908
0.0405275
0.0404792
0.0404433
0.0404172
0.0403991
0.0403871
0.0403801
0.0403771
0.0946437
0.052854
0.0461955
0.0439755
0.042957
0.0423757
0.0419816
0.0416799
0.0414326
0.0412237
0.0410463
0.0408968
0.0407726
0.0406712
0.0405901
0.0405267
0.0404782
0.040442
0.0404157
0.0403974
0.0403853
0.0403782
0.0403751
0.0946451
0.0528544
0.0461958
0.0439758
0.0429572
0.042376
0.0419818
0.0416801
0.0414327
0.0412238
0.0410464
0.0408968
0.0407724
0.0406709
0.0405898
0.0405262
0.0404775
0.0404412
0.0404148
0.0403964
0.0403842
0.040377
0.0403739
0.094646
0.0528547
0.046196
0.0439759
0.0429574
0.0423761
0.0419819
0.0416802
0.0414329
0.0412239
0.0410464
0.0408968
0.0407724
0.0406708
0.0405896
0.0405259
0.0404772
0.0404408
0.0404143
0.0403958
0.0403836
0.0403763
0.0403731
0.0946466
0.0528548
0.0461961
0.043976
0.0429575
0.0423762
0.041982
0.0416803
0.0414329
0.041224
0.0410465
0.0408968
0.0407724
0.0406708
0.0405895
0.0405258
0.040477
0.0404406
0.0404141
0.0403955
0.0403832
0.0403759
0.0403727
0.0946469
0.0528549
0.0461961
0.0439761
0.0429576
0.0423763
0.0419821
0.0416804
0.041433
0.0412241
0.0410465
0.0408968
0.0407724
0.0406708
0.0405895
0.0405258
0.0404769
0.0404405
0.0404139
0.0403953
0.040383
0.0403757
0.0403725
0.0946471
0.052855
0.0461962
0.0439761
0.0429576
0.0423764
0.0419822
0.0416805
0.0414331
0.0412241
0.0410466
0.0408969
0.0407724
0.0406708
0.0405895
0.0405257
0.0404769
0.0404404
0.0404139
0.0403953
0.0403829
0.0403756
0.0403724
0.0946472
0.052855
0.0461962
0.0439762
0.0429577
0.0423764
0.0419822
0.0416805
0.0414331
0.0412241
0.0410466
0.0408969
0.0407725
0.0406708
0.0405895
0.0405257
0.0404769
0.0404404
0.0404139
0.0403952
0.0403829
0.0403755
0.0403724
0.0946473
0.0528551
0.0461962
0.0439762
0.0429577
0.0423764
0.0419822
0.0416805
0.0414331
0.0412242
0.0410466
0.0408969
0.0407725
0.0406709
0.0405895
0.0405258
0.0404769
0.0404404
0.0404138
0.0403952
0.0403829
0.0403755
0.0403723
0.0946473
0.0528551
0.0461962
0.0439762
0.0429577
0.0423764
0.0419822
0.0416805
0.0414331
0.0412242
0.0410467
0.040897
0.0407725
0.0406709
0.0405895
0.0405258
0.0404769
0.0404404
0.0404138
0.0403952
0.0403829
0.0403755
0.0403723
0.0946473
0.0528551
0.0461962
0.0439762
0.0429577
0.0423764
0.0419822
0.0416805
0.0414332
0.0412242
0.0410467
0.040897
0.0407725
0.0406709
0.0405895
0.0405258
0.0404769
0.0404404
0.0404139
0.0403952
0.0403829
0.0403755
0.0403723
0.0946473
0.0528551
0.0461963
0.0439762
0.0429577
0.0423764
0.0419823
0.0416805
0.0414332
0.0412242
0.0410467
0.040897
0.0407725
0.0406709
0.0405895
0.0405258
0.0404769
0.0404404
0.0404139
0.0403952
0.0403829
0.0403755
0.0403723
0.0946474
0.0528551
0.0461963
0.0439762
0.0429577
0.0423764
0.0419823
0.0416806
0.0414332
0.0412242
0.0410467
0.040897
0.0407725
0.0406709
0.0405895
0.0405258
0.0404769
0.0404404
0.0404138
0.0403952
0.0403829
0.0403755
0.0403723
0.0946474
0.0528551
0.0461963
0.0439762
0.0429577
0.0423764
0.0419823
0.0416806
0.0414332
0.0412242
0.0410467
0.040897
0.0407725
0.0406709
0.0405895
0.0405258
0.0404769
0.0404404
0.0404138
0.0403952
0.0403828
0.0403755
0.0403723
0.0946474
0.0528551
0.0461963
0.0439762
0.0429577
0.0423764
0.0419823
0.0416806
0.0414332
0.0412242
0.0410467
0.040897
0.0407725
0.0406709
0.0405895
0.0405258
0.0404769
0.0404404
0.0404138
0.0403952
0.0403828
0.0403755
0.0403723
0.0946474
0.0528551
0.0461963
0.0439762
0.0429577
0.0423764
0.0419823
0.0416806
0.0414332
0.0412242
0.0410467
0.040897
0.0407725
0.0406709
0.0405895
0.0405258
0.0404769
0.0404404
0.0404138
0.0403952
0.0403828
0.0403755
0.0403722
0.0946474
0.0528551
0.0461963
0.0439762
0.0429577
0.0423764
0.0419823
0.0416806
0.0414332
0.0412242
0.0410467
0.040897
0.0407725
0.0406709
0.0405895
0.0405258
0.0404769
0.0404404
0.0404138
0.0403952
0.0403828
0.0403754
0.0403722
0.0946474
0.0528551
0.0461963
0.0439762
0.0429577
0.0423764
0.0419823
0.0416806
0.0414332
0.0412242
0.0410467
0.040897
0.0407725
0.0406709
0.0405895
0.0405258
0.0404769
0.0404404
0.0404138
0.0403952
0.0403828
0.0403754
0.0403722
0.0946474
0.0528551
0.0461963
0.0439762
0.0429577
0.0423764
0.0419823
0.0416806
0.0414332
0.0412242
0.0410467
0.040897
0.0407725
0.0406709
0.0405895
0.0405258
0.0404769
0.0404404
0.0404138
0.0403952
0.0403828
0.0403754
0.0403722
0.0946474
0.0528551
0.0461963
0.0439762
0.0429577
0.0423764
0.0419823
0.0416806
0.0414332
0.0412242
0.0410467
0.040897
0.0407725
0.0406709
0.0405895
0.0405258
0.0404769
0.0404404
0.0404138
0.0403952
0.0403828
0.0403754
0.0403721
0.196562
0.152872
0.152523
0.1946
0.0701083
0.0707931
0.0707588
0.0700327
0.0533542
0.0540162
0.0540109
0.0533418
0.0477919
0.0480546
0.0480537
0.0477896
0.0451394
0.0452517
0.0452521
0.0451406
0.0436358
0.0436901
0.0436909
0.0436383
0.0426891
0.0427182
0.0427192
0.0426921
0.04205
0.042067
0.0420681
0.0420534
0.0415984
0.0416089
0.0416101
0.041602
0.04127
0.0412769
0.0412782
0.0412739
0.0410273
0.0410321
0.0410335
0.0410315
0.0408468
0.0408503
0.0408518
0.0408513
0.0407127
0.0407153
0.0407169
0.0407174
0.0406136
0.0406157
0.0406173
0.0406184
0.040541
0.0405427
0.0405444
0.040546
0.0404885
0.04049
0.0404917
0.0404937
0.040451
0.0404524
0.0404541
0.0404563
0.0404248
0.040426
0.0404278
0.0404301
0.0404067
0.0404078
0.0404096
0.0404121
0.0403944
0.0403955
0.0403973
0.0403999
0.0403863
0.0403874
0.0403892
0.0403918
0.040381
0.0403821
0.0403839
0.0403865
0.0403776
0.0403787
0.0403805
0.0403832
0.0403755
0.0403766
0.0403784
0.0403811
0.0403743
0.0403753
0.0403772
0.0403799
0.0403735
0.0403746
0.0403764
0.0403791
0.0403731
0.0403742
0.040376
0.0403787
0.0403729
0.040374
0.0403758
0.0403785
0.0403728
0.0403739
0.0403757
0.0403784
0.0403727
0.0403738
0.0403757
0.0403783
0.0403727
0.0403738
0.0403756
0.0403783
0.0403727
0.0403738
0.0403756
0.0403783
0.0403727
0.0403738
0.0403756
0.0403783
0.0403727
0.0403738
0.0403756
0.0403783
0.0403727
0.0403737
0.0403756
0.0403783
0.0403727
0.0403737
0.0403756
0.0403783
0.0403727
0.0403737
0.0403756
0.0403782
0.0403726
0.0403737
0.0403755
0.0403782
0.0403726
0.0403736
0.0403755
0.0403782
0.0403726
0.0403736
0.0403755
0.0403782
0.0403725
0.0403736
0.0403754
0.0403781
0.0403725
0.0403735
0.0403754
0.0403781
0.0780611
0.0534044
0.0459568
0.0434742
0.0426534
0.0424269
0.0423977
0.0424059
0.0423838
0.0422985
0.0421284
0.0418528
0.0414492
0.0408978
0.0401989
0.0394267
0.0389258
0.0403557
0.060839
0.0588431
0.0500252
0.0456719
0.04364
0.0427243
0.0423281
0.0421623
0.0420865
0.0420308
0.0419584
0.0418459
0.0416756
0.0414328
0.0411112
0.0407331
0.0404096
0.0405626
0.0431291
0.0677211
0.0508544
0.0472874
0.0448576
0.0434239
0.0426358
0.0422207
0.0420072
0.0418954
0.0418285
0.0417732
0.0417088
0.0416206
0.0414999
0.04135
0.041208
0.0412111
0.0418406
0.0452583
0.0730912
0.0469518
0.045346
0.0439888
0.043037
0.0424314
0.0420686
0.0418608
0.0417464
0.0416852
0.0416518
0.0416292
0.0416068
0.0415803
0.04156
0.0415931
0.041836
0.0428161
0.0468771
0.0772579
0.0447889
0.0439991
0.0432255
0.0426087
0.0421706
0.041883
0.0417074
0.04161
0.0415658
0.0415571
0.0415718
0.0416028
0.0416497
0.0417274
0.0418908
0.0423101
0.043549
0.0480957
0.0804628
0.0434691
0.0430518
0.0425994
0.042203
0.0418976
0.0416843
0.0415501
0.0414793
0.0414579
0.041475
0.0415229
0.0415977
0.0417019
0.041854
0.0421142
0.0426631
0.0440925
0.0490034
0.0829012
0.0426031
0.0423701
0.0420992
0.0418455
0.0416389
0.0414897
0.0413971
0.0413556
0.0413589
0.0414011
0.0414783
0.0415889
0.0417379
0.0419464
0.0422783
0.0429221
0.0444905
0.0496717
0.0847339
0.0420038
0.0418687
0.0417041
0.041543
0.041408
0.0413106
0.0412553
0.041242
0.0412693
0.0413348
0.0414372
0.0415771
0.0417611
0.0420122
0.042397
0.0431096
0.0447788
0.050158
0.0860935
0.0415737
0.0414938
0.0413937
0.0412937
0.0412099
0.0411531
0.0411293
0.0411413
0.0411903
0.0412766
0.0414004
0.041564
0.0417752
0.0420583
0.0424819
0.0432441
0.0449853
0.0505076
0.0870884
0.0412578
0.0412108
0.0411512
0.041092
0.0410451
0.0410194
0.0410213
0.0410548
0.0411228
0.0412268
0.0413685
0.041551
0.0417833
0.0420903
0.042542
0.0433396
0.0451315
0.0507557
0.0878066
0.0410229
0.0409964
0.040963
0.0409318
0.0409113
0.0409092
0.0409316
0.0409829
0.0410666
0.0411855
0.0413418
0.0415394
0.0417877
0.0421124
0.0425844
0.0434068
0.0452341
0.0509298
0.0883181
0.0408474
0.0408342
0.0408184
0.0408064
0.0408051
0.0408208
0.0408591
0.0409247
0.0410214
0.0411523
0.0413202
0.0415295
0.04179
0.0421277
0.0426141
0.0434537
0.0453053
0.0510504
0.0886776
0.0407167
0.0407122
0.0407083
0.0407099
0.0407224
0.0407514
0.0408021
0.0408789
0.0409859
0.0411263
0.0413035
0.0415218
0.0417913
0.0421384
0.0426349
0.0434863
0.0453543
0.0511331
0.0889271
0.0406198
0.0406214
0.0406257
0.0406369
0.0406594
0.0406983
0.0407583
0.0408438
0.0409588
0.0411067
0.0412908
0.0415159
0.0417921
0.0421459
0.0426495
0.0435088
0.0453877
0.0511892
0.0890982
0.0405489
0.0405546
0.0405646
0.0405825
0.0406123
0.0406584
0.0407254
0.0408175
0.0409386
0.0410922
0.0412817
0.0415118
0.0417928
0.0421513
0.0426596
0.0435243
0.0454103
0.0512268
0.0892143
0.0404975
0.0405061
0.0405201
0.0405428
0.0405778
0.0406292
0.0407014
0.0407984
0.040924
0.0410819
0.0412753
0.041509
0.0417935
0.0421552
0.0426668
0.0435348
0.0454254
0.0512518
0.0892922
0.0404609
0.0404714
0.0404883
0.0405143
0.040553
0.0406083
0.0406842
0.0407847
0.0409138
0.0410747
0.0412709
0.0415073
0.0417941
0.0421581
0.0426717
0.043542
0.0454355
0.0512683
0.089344
0.0404352
0.0404471
0.0404659
0.0404943
0.0405356
0.0405936
0.0406721
0.0407753
0.0409067
0.0410699
0.0412681
0.0415063
0.0417948
0.0421602
0.0426752
0.0435469
0.0454422
0.0512791
0.089378
0.0404175
0.0404303
0.0404505
0.0404805
0.0405236
0.0405835
0.0406639
0.0407689
0.040902
0.0410668
0.0412664
0.0415058
0.0417954
0.0421618
0.0426776
0.0435501
0.0454466
0.0512861
0.0894003
0.0404055
0.040419
0.04044
0.0404712
0.0405155
0.0405767
0.0406585
0.0407647
0.040899
0.0410648
0.0412654
0.0415057
0.0417959
0.0421629
0.0426793
0.0435523
0.0454495
0.0512906
0.0894147
0.0403975
0.0404115
0.0404331
0.040465
0.0405102
0.0405723
0.040655
0.040762
0.0408972
0.0410637
0.0412649
0.0415057
0.0417964
0.0421638
0.0426805
0.0435538
0.0454513
0.0512934
0.0894239
0.0403924
0.0404066
0.0404287
0.0404611
0.0405068
0.0405695
0.0406527
0.0407604
0.040896
0.041063
0.0412647
0.0415058
0.0417968
0.0421644
0.0426813
0.0435548
0.0454525
0.0512953
0.0894298
0.0403891
0.0404035
0.0404259
0.0404586
0.0405047
0.0405678
0.0406514
0.0407594
0.0408954
0.0410627
0.0412646
0.041506
0.0417971
0.0421649
0.0426819
0.0435554
0.0454533
0.0512964
0.0894336
0.0403871
0.0404016
0.0404241
0.0404571
0.0405034
0.0405667
0.0406506
0.0407589
0.0408951
0.0410625
0.0412646
0.0415061
0.0417974
0.0421652
0.0426822
0.0435558
0.0454538
0.0512971
0.0894359
0.0403859
0.0404005
0.0404231
0.0404562
0.0405027
0.0405661
0.0406502
0.0407586
0.0408949
0.0410625
0.0412647
0.0415062
0.0417976
0.0421654
0.0426825
0.0435561
0.0454541
0.0512976
0.0894374
0.0403852
0.0403998
0.0404225
0.0404556
0.0405023
0.0405658
0.0406499
0.0407584
0.0408949
0.0410625
0.0412647
0.0415064
0.0417977
0.0421656
0.0426827
0.0435563
0.0454543
0.0512979
0.0894383
0.0403848
0.0403994
0.0404222
0.0404554
0.0405021
0.0405656
0.0406498
0.0407584
0.0408949
0.0410626
0.0412648
0.0415065
0.0417978
0.0421657
0.0426828
0.0435564
0.0454544
0.0512981
0.0894388
0.0403846
0.0403993
0.040422
0.0404552
0.0405019
0.0405656
0.0406498
0.0407584
0.0408949
0.0410626
0.0412649
0.0415065
0.0417979
0.0421658
0.0426828
0.0435565
0.0454545
0.0512982
0.0894392
0.0403845
0.0403992
0.0404219
0.0404552
0.0405019
0.0405655
0.0406498
0.0407584
0.0408949
0.0410626
0.0412649
0.0415066
0.0417979
0.0421658
0.0426829
0.0435565
0.0454546
0.0512982
0.0894394
0.0403844
0.0403991
0.0404219
0.0404551
0.0405019
0.0405655
0.0406498
0.0407584
0.0408949
0.0410627
0.041265
0.0415066
0.041798
0.0421658
0.0426829
0.0435565
0.0454546
0.0512983
0.0894395
0.0403844
0.0403991
0.0404219
0.0404551
0.0405019
0.0405656
0.0406498
0.0407584
0.040895
0.0410627
0.041265
0.0415066
0.041798
0.0421659
0.0426829
0.0435566
0.0454546
0.0512983
0.0894396
0.0403844
0.0403991
0.0404219
0.0404551
0.0405019
0.0405656
0.0406498
0.0407585
0.040895
0.0410627
0.041265
0.0415067
0.041798
0.0421659
0.042683
0.0435566
0.0454546
0.0512983
0.0894397
0.0403844
0.0403991
0.0404219
0.0404551
0.0405019
0.0405656
0.0406498
0.0407585
0.040895
0.0410627
0.041265
0.0415067
0.041798
0.0421659
0.042683
0.0435566
0.0454546
0.0512983
0.0894397
0.0403844
0.0403991
0.0404219
0.0404551
0.0405019
0.0405656
0.0406498
0.0407585
0.040895
0.0410627
0.041265
0.0415067
0.041798
0.0421659
0.042683
0.0435566
0.0454546
0.0512983
0.0894397
0.0403844
0.0403991
0.0404219
0.0404551
0.0405019
0.0405656
0.0406499
0.0407585
0.040895
0.0410627
0.041265
0.0415067
0.041798
0.0421659
0.042683
0.0435566
0.0454546
0.0512983
0.0894397
0.0403843
0.0403991
0.0404218
0.0404551
0.0405019
0.0405656
0.0406499
0.0407585
0.040895
0.0410627
0.041265
0.0415067
0.041798
0.0421659
0.042683
0.0435566
0.0454546
0.0512983
0.0894397
0.0403843
0.040399
0.0404218
0.0404551
0.0405019
0.0405656
0.0406498
0.0407585
0.040895
0.0410627
0.041265
0.0415067
0.041798
0.0421659
0.042683
0.0435566
0.0454546
0.0512983
0.0894397
0.0403843
0.040399
0.0404218
0.0404551
0.0405019
0.0405656
0.0406498
0.0407585
0.040895
0.0410627
0.041265
0.0415067
0.041798
0.0421659
0.042683
0.0435566
0.0454546
0.0512983
0.0894397
0.0403843
0.040399
0.0404218
0.0404551
0.0405019
0.0405656
0.0406498
0.0407585
0.040895
0.0410627
0.041265
0.0415067
0.041798
0.0421659
0.042683
0.0435566
0.0454546
0.0512983
0.0894397
0.0403842
0.040399
0.0404218
0.0404551
0.0405019
0.0405655
0.0406498
0.0407585
0.040895
0.0410627
0.041265
0.0415067
0.041798
0.0421659
0.042683
0.0435566
0.0454546
0.0512983
0.0894397
0.0403842
0.040399
0.0404218
0.0404551
0.0405019
0.0405655
0.0406498
0.0407585
0.040895
0.0410627
0.041265
0.0415067
0.041798
0.0421659
0.042683
0.0435566
0.0454546
0.0512983
0.0894397
0.0403842
0.0403989
0.0404218
0.0404551
0.0405018
0.0405655
0.0406498
0.0407585
0.040895
0.0410627
0.041265
0.0415067
0.041798
0.0421659
0.042683
0.0435566
0.0454546
0.0512983
0.0894397
)
;

boundaryField
{
    leftWall
    {
        type            epsilonWallFunction;
        blending        stepwise;
        value           nonuniform List<scalar> 
50
(
0.00930551
0.01589
0.0249404
0.0330796
0.0402311
0.0465299
0.052107
0.0570655
0.0640324
0.0713861
0.0771332
0.0815985
0.0850369
0.087655
0.0896233
0.091083
0.0921502
0.0929193
0.0934657
0.0938485
0.0941131
0.0942937
0.0944155
0.0944968
0.0945504
0.0945854
0.0946081
0.0946226
0.0946319
0.0946378
0.0946414
0.0946437
0.0946451
0.094646
0.0946466
0.0946469
0.0946471
0.0946472
0.0946473
0.0946473
0.0946473
0.0946473
0.0946474
0.0946474
0.0946474
0.0946474
0.0946474
0.0946474
0.0946474
0.0946474
)
;
    }
    rightWall
    {
        type            epsilonWallFunction;
        blending        stepwise;
        value           nonuniform List<scalar> 
50
(
0.0102319
0.0157402
0.0241929
0.0318119
0.0385185
0.0444283
0.0496602
0.0543101
0.060839
0.0677211
0.0730912
0.0772579
0.0804628
0.0829012
0.0847339
0.0860935
0.0870884
0.0878066
0.0883181
0.0886776
0.0889271
0.0890982
0.0892143
0.0892922
0.089344
0.089378
0.0894003
0.0894147
0.0894239
0.0894298
0.0894336
0.0894359
0.0894374
0.0894383
0.0894388
0.0894392
0.0894394
0.0894395
0.0894396
0.0894397
0.0894397
0.0894397
0.0894397
0.0894397
0.0894397
0.0894397
0.0894397
0.0894397
0.0894397
0.0894397
)
;
    }
    lowerWall
    {
        type            epsilonWallFunction;
        blending        stepwise;
        value           nonuniform List<scalar> 
62
(
0.00930551
0.0372465
0.0604421
0.0787666
0.0933282
0.104902
0.114046
0.121188
0.12666
0.130724
0.133579
0.13536
0.13614
0.135916
0.134598
0.131984
0.127714
0.121199
0.111505
0.0971942
0.0762491
0.0465461
0.00943504
0.00943504
0.0182406
0.0306901
0.0429439
0.055636
0.0708929
0.0960426
0.162258
0.196562
0.152872
0.152523
0.1946
0.0103372
0.0178377
0.0295256
0.0410771
0.0531591
0.067984
0.0927793
0.155137
0.0103372
0.0507695
0.0817026
0.10242
0.115812
0.124285
0.129393
0.132055
0.132778
0.131804
0.129185
0.12483
0.118525
0.109937
0.0986025
0.0838903
0.0649134
0.0404037
0.0102319
)
;
    }
    atmosphere
    {
        type            inletOutlet;
        inletValue      uniform 0.1;
        value           nonuniform List<scalar> 
46
(
0.0946474
0.0528551
0.0461963
0.0439762
0.0429577
0.0423764
0.0419823
0.0416806
0.0414332
0.0412242
0.0410467
0.040897
0.0407725
0.0406709
0.0405895
0.0405258
0.0404769
0.0404404
0.0404138
0.0403952
0.0403828
0.0403754
0.0403721
0.0403725
0.0403735
0.0403754
0.0403781
0.0403842
0.0403989
0.0404218
0.0404551
0.0405018
0.0405655
0.0406498
0.0407585
0.040895
0.0410627
0.041265
0.0415067
0.041798
0.0421659
0.042683
0.0435566
0.0454546
0.0512983
0.0894397
)
;
    }
    defaultFaces
    {
        type            empty;
    }
}


// ************************************************************************* //
