/*--------------------------------*- C++ -*----------------------------------*\
| =========                 |                                                 |
| \\      /  F ield         | OpenFOAM: The Open Source CFD Toolbox           |
|  \\    /   O peration     | Version:  2406                                  |
|   \\  /    A nd           | Website:  www.openfoam.com                      |
|    \\/     M anipulation  |                                                 |
\*---------------------------------------------------------------------------*/
FoamFile
{
    version     2.0;
    format      ascii;
    arch        "LSB;label=32;scalar=64";
    class       volScalarField;
    location    "0.6";
    object      epsilon;
}
// * * * * * * * * * * * * * * * * * * * * * * * * * * * * * * * * * * * * * //

dimensions      [0 2 -3 0 0 0 0];

internalField   nonuniform List<scalar> 
2268
(
3.11056
4.22461
4.22461
4.22461
4.22461
4.22461
4.22461
4.22461
4.22461
4.22461
4.22461
4.22461
4.22461
0.0873632
0.0345823
0.0515287
0.0628587
0.0689211
0.0700008
0.0656513
0.0547916
0.0358702
0.00849571
1.99652
3.53904
3.87395
3.99094
4.04704
4.07915
4.09939
4.11284
4.12192
4.12796
4.13166
4.13343
4.13343
0.107926
0.0311351
0.0343841
0.0388659
0.04143
0.0417491
0.0395572
0.0344104
0.0258717
0.0153144
1.99652
3.12319
3.57196
3.77087
3.87483
3.93633
3.9757
4.00204
4.01992
4.03183
4.03915
4.04264
4.04264
0.120517
0.0363002
0.0349863
0.0374997
0.0391659
0.0392983
0.03763
0.0339045
0.0280985
0.0245663
1.99652
2.85875
3.32579
3.572
3.71211
3.79847
3.85492
3.89313
3.91926
3.93673
3.9475
3.95264
3.95264
0.131894
0.0416765
0.0376165
0.0389366
0.0400812
0.0401315
0.0388161
0.0360116
0.0319814
0.0332998
1.99652
2.68257
3.12893
3.39682
3.5614
3.66728
3.7382
3.78692
3.82053
3.84313
3.8571
3.86379
3.86379
0.14172
0.0465911
0.0405624
0.0409813
0.0417301
0.041743
0.0407641
0.0388232
0.0365294
0.0423143
1.99652
2.55993
2.97193
3.24473
3.4238
3.5439
3.62645
3.68408
3.72426
3.75145
3.76833
3.77643
3.77643
0.150342
0.0509752
0.0433589
0.0430221
0.0434344
0.0434327
0.0427976
0.0417725
0.0416307
0.0534826
1.99652
2.47111
2.84601
3.11357
3.29936
3.4289
3.52027
3.58515
3.63089
3.66207
3.68152
3.69087
3.69087
0.15807
0.0548458
0.0458056
0.0447845
0.04489
0.04488
0.0445784
0.0444998
0.0472449
0.0726953
1.99652
2.40455
2.74408
3.00066
3.1875
3.32243
3.42
3.49049
3.54077
3.57531
3.59697
3.60741
3.60741
0.165115
0.0581957
0.0477696
0.0460969
0.045912
0.0458864
0.0458662
0.0465853
0.0525221
0.123727
0.00967612
0.0432463
0.0676805
0.0839713
0.094605
0.101435
0.105632
0.107898
0.108634
0.108031
0.10612
0.102805
0.0978838
0.0910711
0.0819985
0.070187
0.0549455
0.0351355
0.00977641
0.0160722
0.0294573
0.0402501
0.0476377
0.052493
0.0556047
0.0575078
0.0585381
0.0588912
0.0586613
0.0578627
0.0564434
0.0542944
0.0512538
0.0471058
0.0415705
0.0342918
0.0249272
0.014499
0.0259176
0.0311406
0.0384309
0.0436793
0.0472031
0.04948
0.0508751
0.0516317
0.0518959
0.0517383
0.051168
0.0501413
0.048566
0.0463023
0.043161
0.038904
0.0332817
0.0263106
0.0217214
0.0355095
0.0349556
0.0399941
0.0439465
0.0467069
0.0485258
0.0496496
0.0502603
0.0504722
0.0503405
0.0498701
0.0490204
0.0477071
0.0458009
0.0431256
0.0394676
0.0346469
0.0289213
0.0281052
0.0456671
0.0395607
0.0424369
0.0452578
0.0473936
0.0488537
0.0497705
0.0502703
0.0504389
0.050318
0.0499082
0.0491705
0.0480264
0.0463545
0.04399
0.0407404
0.0364799
0.0316432
0.0337435
0.0584553
0.0446761
0.0450197
0.0467275
0.0482921
0.0494345
0.0501713
0.0505749
0.050704
0.0505875
0.0502213
0.0495679
0.0485536
0.0470655
0.0449508
0.0420396
0.038255
0.0341797
0.0388338
0.080167
0.0500866
0.0473178
0.0479555
0.0490003
0.0498566
0.0504323
0.0507496
0.0508422
0.0507267
0.0503948
0.0498102
0.0489042
0.0475728
0.0456782
0.0430765
0.0397437
0.0364109
0.0435421
0.133997
0.0547984
0.0489303
0.0487042
0.0493099
0.0499169
0.0503503
0.0505909
0.0506501
0.0505337
0.0502294
0.0497018
0.0488879
0.0476937
0.045999
0.0436912
0.0408087
0.0382567
0.0479837
1.99652
2.32441
2.61366
2.8485
3.03072
3.169
3.27269
3.34955
3.40535
3.44417
3.46869
3.48056
3.48056
0.175132
0.0625091
0.0499343
0.0472999
0.0466932
0.0466243
0.0469014
0.0481322
0.0526386
0.0695206
1.99652
2.25444
2.49121
2.69466
2.86184
2.99522
3.0994
3.17908
3.23831
3.2802
3.30696
3.32
3.32
0.185988
0.06745
0.0526894
0.0490681
0.0479941
0.0477777
0.0480881
0.0491804
0.0519059
0.057954
1.99652
2.20583
2.40242
2.57749
2.72709
2.85096
2.95085
3.02929
3.08879
3.13151
3.15909
3.17261
3.17261
0.194679
0.071579
0.0551677
0.0507955
0.0493319
0.0489213
0.0491061
0.049904
0.0515856
0.0544964
1.99652
2.17008
2.33538
2.48605
2.61836
2.73093
2.82399
2.89863
2.95623
2.99813
3.02543
3.03888
3.03888
0.201774
0.0749974
0.0572606
0.0522923
0.0505001
0.0498888
0.0499082
0.0504497
0.0515816
0.0534167
1.99652
2.14268
2.28313
2.41317
2.52956
2.63061
2.71574
2.78519
2.83954
2.87951
2.90575
2.91875
2.91875
0.207636
0.0778401
0.0589957
0.0535366
0.0514653
0.050668
0.0505294
0.0508768
0.0517079
0.0530966
1.99652
2.12103
2.24141
2.35406
2.45629
2.54635
2.62335
2.687
2.73738
2.77476
2.79947
2.81175
2.81175
0.212507
0.0802134
0.0604258
0.0545537
0.0522454
0.0512848
0.0510096
0.051212
0.0518614
0.053021
1.99652
2.10357
2.2075
2.3055
2.39531
2.47531
2.54446
2.60222
2.64835
2.68283
2.70574
2.71716
2.71716
0.216559
0.0821989
0.0616031
0.0553809
0.052872
0.0517726
0.0513839
0.0514767
0.0520051
0.0530246
1.99652
2.08927
2.17958
2.2652
2.34423
2.41522
2.47709
2.52919
2.57109
2.60259
2.62361
2.63412
2.63412
0.219932
0.083862
0.0625738
0.0560547
0.0533773
0.0521622
0.0516814
0.0516903
0.0521331
0.0530579
1.99652
2.07744
2.1564
2.23156
2.3013
2.36432
2.41962
2.46645
2.50433
2.53295
2.5521
2.5617
2.5617
0.222741
0.0852587
0.0633782
0.0566075
0.0537892
0.0524787
0.051924
0.0518686
0.0522494
0.0531075
1.99652
2.06761
2.13707
2.20338
2.26516
2.32124
2.37069
2.41277
2.44695
2.47286
2.49026
2.49899
2.49899
0.225091
0.0864399
0.0640522
0.0570677
0.054131
0.0527418
0.0521277
0.0520229
0.0523581
0.0531689
1.99652
2.05941
2.12093
2.17978
2.23478
2.28487
2.3292
2.36707
2.39793
2.42138
2.43717
2.4451
2.4451
0.227077
0.0874549
0.0646304
0.0574613
0.0544227
0.0529667
0.0523038
0.0521601
0.0524614
0.0532383
1.99652
2.05259
2.10748
2.16008
2.20934
2.25433
2.29425
2.32844
2.35638
2.37767
2.39201
2.39923
2.39922
0.228794
0.0883565
0.0651484
0.0578136
0.0546822
0.0531658
0.0524601
0.0522842
0.0525592
0.0533112
1.99652
2.04695
2.09636
2.14376
2.18822
2.22891
2.26509
2.29614
2.32157
2.34097
2.35406
2.36065
2.36065
0.230351
0.0892083
0.0656472
0.0581512
0.0549263
0.0533492
0.0526022
0.0523973
0.0526503
0.0533833
1.99652
2.04235
2.08728
2.13041
2.17092
2.20804
2.24111
2.26953
2.29284
2.31065
2.32267
2.32873
2.32873
0.231892
0.0900968
0.0661772
0.0585022
0.05517
0.0535244
0.0527332
0.0524995
0.052733
0.0534505
1.99652
2.03867
2.08
2.11971
2.15704
2.19128
2.22182
2.2481
2.26967
2.28617
2.29732
2.30294
2.30294
0.233645
0.0911511
0.0668001
0.0588925
0.0554221
0.0536933
0.0528525
0.0525894
0.0528049
0.0535097
1.99652
2.03582
2.07437
2.11142
2.14627
2.17827
2.20683
2.23143
2.25163
2.2671
2.27756
2.28283
2.28283
0.236037
0.092565
0.0675749
0.0593297
0.0556758
0.0538474
0.0529534
0.0526622
0.0528627
0.0535581
1.99652
2.03374
2.07025
2.10535
2.13839
2.16874
2.19583
2.21919
2.23839
2.25309
2.26303
2.26805
2.26805
0.239942
0.0945577
0.0684853
0.0597601
0.0558887
0.0539603
0.0530208
0.0527098
0.052902
0.053593
1.99652
2.03238
2.06755
2.10138
2.13322
2.16249
2.18863
2.21117
2.2297
2.24389
2.25349
2.25834
2.25834
0.246813
0.0968683
0.0691909
0.059985
0.0559608
0.053984
0.0530322
0.0527217
0.052918
0.0536124
1.99652
2.0317
2.06622
2.09941
2.13067
2.15939
2.18506
2.20719
2.22539
2.23933
2.24877
2.25353
2.25353
0.249214
0.0959414
0.0684807
0.0595902
0.0557434
0.053862
0.0529653
0.0526892
0.0529077
0.0536157
1.99652
2.0317
2.06622
2.09941
2.13067
2.15939
2.18505
2.20719
2.22539
2.23933
2.24877
2.25353
0.345974
0.122927
0.0790049
0.0644493
0.0582138
0.055154
0.053573
0.0528146
0.0526116
0.052872
0.0536041
0.164502
0.184483
0.19849
0.208423
0.215568
0.220851
0.224938
0.228419
0.231986
0.236727
0.244266
0.247257
0.122471
0.0834865
0.0679676
0.0605071
0.056561
0.0543751
0.0531753
0.0526031
0.0524998
0.0528168
0.0535814
0.0433363
0.0528943
0.0634702
0.0712212
0.0768697
0.0810692
0.0843158
0.0870267
0.0896048
0.0924229
0.0953276
0.0948571
0.0785111
0.0677925
0.0613676
0.0574561
0.0550495
0.0535839
0.0527451
0.0523658
0.0523713
0.0527519
0.0535533
0.0471071
0.0414057
0.0467042
0.051729
0.0557578
0.0588897
0.0613503
0.06337
0.0651466
0.0667704
0.0679816
0.0676448
0.0639497
0.0602392
0.0573423
0.0552541
0.0538166
0.0528806
0.0523403
0.0521348
0.0522441
0.0526875
0.0535261
0.0564096
0.0418145
0.0439417
0.0471897
0.0501109
0.0524969
0.054403
0.0559432
0.0572166
0.0582474
0.0589003
0.0588173
0.0576864
0.0562151
0.0548371
0.0537119
0.0528718
0.0523053
0.0519946
0.051933
0.052133
0.052633
0.0535057
0.0639188
0.0438155
0.0440275
0.0461253
0.0482782
0.0501217
0.0516162
0.0528096
0.0537555
0.0544701
0.0549034
0.0549492
0.0545587
0.0539303
0.0532561
0.0526533
0.0521803
0.0518647
0.0517231
0.0517742
0.0520484
0.052596
0.0534975
0.0696838
0.0457696
0.0447601
0.0461005
0.0477176
0.0491642
0.0503506
0.0512896
0.0520147
0.0525447
0.0528717
0.0529722
0.0528505
0.0525815
0.0522554
0.0519443
0.051698
0.0515505
0.0515297
0.0516655
0.0519973
0.0525825
0.0535064
0.0740743
0.0473798
0.0455555
0.0463912
0.0476375
0.0487984
0.0497581
0.0505122
0.0510851
0.0514991
0.0517644
0.0518857
0.0518778
0.0517783
0.0516347
0.0514916
0.0513863
0.0513503
0.0514138
0.0516108
0.0519852
0.0525981
0.0535377
0.0774081
0.048641
0.0462586
0.0467567
0.0477501
0.0487106
0.0495081
0.0501302
0.0505979
0.0509353
0.0511607
0.051288
0.0513334
0.0513205
0.0512774
0.0512334
0.0512163
0.0512535
0.0513743
0.0516138
0.0520179
0.0526496
0.0535984
0.0799617
0.0496223
0.0468515
0.0471252
0.0479504
0.0487748
0.0494604
0.0499909
0.0503864
0.0506725
0.0508706
0.0509979
0.0510699
0.0511035
0.0511177
0.0511329
0.0511708
0.051255
0.0514135
0.0516811
0.0521043
0.0527468
0.0536986
0.0819915
0.0504136
0.0473674
0.0474942
0.0482115
0.0489479
0.0495596
0.0500289
0.050376
0.0506275
0.0508067
0.0509316
0.0510168
0.051076
0.0511231
0.0511736
0.0512451
0.0513586
0.0515405
0.0518252
0.0522589
0.0529053
0.0538537
0.0837552
0.0511169
0.0478656
0.0478975
0.0485493
0.0492319
0.0497973
0.0502272
0.0505424
0.0507706
0.0509362
0.0510576
0.0511489
0.0512216
0.0512871
0.0513579
0.051449
0.0515795
0.0517746
0.0520678
0.052505
0.053149
0.0540875
0.0855407
0.0518544
0.0484316
0.0484
0.049013
0.0496637
0.0502002
0.0506042
0.0508975
0.0511089
0.0512637
0.0513805
0.0514731
0.0515519
0.0516266
0.0517079
0.0518091
0.0519482
0.0521489
0.0524442
0.0528787
0.0535141
0.0544355
0.0877109
0.0527897
0.0491903
0.0491058
0.0496899
0.0503162
0.0508293
0.0512115
0.0514857
0.0516819
0.0518257
0.0519359
0.0520259
0.0521055
0.0521831
0.0522682
0.0523732
0.0525146
0.0527153
0.0530071
0.0534334
0.0540534
0.0549492
0.0907748
0.0541645
0.0503332
0.0501764
0.0507166
0.051305
0.0517838
0.0521361
0.0523855
0.0525621
0.0526913
0.0527913
0.0528747
0.0529504
0.0530261
0.0531103
0.0532141
0.0533531
0.0535493
0.0538327
0.0542449
0.0548423
0.0557022
0.0954983
0.0563588
0.0521586
0.051856
0.0522931
0.0527963
0.0532055
0.0535034
0.0537116
0.0538577
0.0539646
0.0540485
0.0541204
0.0541879
0.0542576
0.0543368
0.0544356
0.0545685
0.054756
0.0550263
0.0554183
0.0559847
0.0567967
0.103076
0.0599808
0.055123
0.0544947
0.0546901
0.0550068
0.0552779
0.0554771
0.0556163
0.0557145
0.0557878
0.055848
0.0559029
0.0559577
0.0560175
0.0560882
0.0561787
0.0563021
0.0564768
0.0567291
0.0570943
0.0576201
0.0583706
0.115408
0.066001
0.0598921
0.0585504
0.0582338
0.0581892
0.0582159
0.0582543
0.0582887
0.058318
0.0583452
0.0583737
0.0584059
0.0584439
0.0584903
0.0585496
0.0586288
0.0587392
0.0588974
0.0591264
0.0594576
0.0599327
0.0606067
0.135636
0.0759598
0.0673541
0.064531
0.0632457
0.0625903
0.0622435
0.062056
0.0619528
0.0618964
0.0618684
0.0618596
0.0618654
0.0618837
0.0619143
0.0619596
0.0620249
0.0621194
0.062257
0.0624573
0.0627468
0.0631604
0.0637428
0.169585
0.0922845
0.0784609
0.0727837
0.0699041
0.0683813
0.0675655
0.0671205
0.0668713
0.0667283
0.0666459
0.0666008
0.0665807
0.0665791
0.0665932
0.0666233
0.0666728
0.0667486
0.0668617
0.0670277
0.0672677
0.0676088
0.0680849
0.231174
0.118319
0.0933683
0.0829456
0.0780085
0.0755816
0.0743546
0.073712
0.0733604
0.0731594
0.0730409
0.072971
0.072932
0.0729146
0.0729143
0.0729298
0.0729627
0.0730176
0.0731024
0.0732284
0.0734107
0.0736686
0.0740251
0.370396
0.153899
0.108301
0.0929085
0.0867599
0.0840654
0.0828007
0.0821671
0.0818279
0.0816344
0.0815186
0.0814476
0.0814048
0.0813812
0.0813722
0.0813761
0.0813931
0.0814258
0.0814787
0.0815588
0.0816752
0.0818394
0.0820641
0.815186
0.16376
0.110064
0.0988107
0.0952708
0.093902
0.0932959
0.0929973
0.092836
0.0927417
0.0926832
0.0926458
0.0926217
0.0926069
0.0925991
0.0925973
0.0926012
0.0926115
0.0926297
0.0926582
0.0927001
0.0927593
0.0928405
0.154123
0.122066
0.124255
0.163119
0.06649
0.0676629
0.0682154
0.0681963
0.0573884
0.0586321
0.0588497
0.0581461
0.055249
0.0561542
0.056263
0.0556992
0.0545675
0.055304
0.0553586
0.0548546
0.0543081
0.0549478
0.0549684
0.0544887
0.0541946
0.05477
0.0547672
0.0543002
0.0541465
0.0546767
0.054657
0.0541976
0.0541384
0.0546363
0.0546042
0.0541492
0.054159
0.054634
0.0545925
0.0541395
0.0541996
0.0546584
0.0546096
0.054157
0.054252
0.0546991
0.0546447
0.0541915
0.0543089
0.0547474
0.0546886
0.0542344
0.0543647
0.0547967
0.0547344
0.0542791
0.0544149
0.054842
0.0547773
0.0543212
0.0544568
0.0548805
0.0548143
0.054358
0.0544881
0.0549101
0.0548438
0.0543882
0.0545077
0.05493
0.0548652
0.0544115
0.0545156
0.0549405
0.0548789
0.0544285
0.0545131
0.0549428
0.0548862
0.0544401
0.0545031
0.0549394
0.054889
0.0544484
0.0544896
0.0549335
0.0548901
0.0544555
0.0544772
0.0549288
0.0548925
0.0544638
0.0544704
0.0549289
0.0548992
0.0544762
0.0544733
0.0549376
0.0549135
0.0544954
0.0544901
0.0549584
0.0549388
0.054525
0.0545257
0.0549961
0.0549797
0.0545697
0.0545867
0.0550572
0.0550429
0.0546363
0.0546828
0.0551512
0.0551381
0.054735
0.0548291
0.055293
0.0552803
0.0548815
0.0550485
0.055505
0.0554922
0.0550989
0.0553751
0.0558208
0.0558076
0.0554221
0.0558589
0.0562898
0.056276
0.0559014
0.0565716
0.0569825
0.0569682
0.0566086
0.0576131
0.0579981
0.0579834
0.057644
0.0591199
0.0594722
0.0594575
0.0591442
0.0612736
0.0615864
0.061572
0.0612913
0.0643124
0.0645785
0.0645651
0.0643235
0.0685434
0.0687568
0.0687449
0.0685487
0.074361
0.0745167
0.0745072
0.0743615
0.0822693
0.0823641
0.0823575
0.0822666
0.092912
0.0929435
0.0929407
0.0929076
0.072328
0.054269
0.0498265
0.0489542
0.0490455
0.0493311
0.0495757
0.0497126
0.0497253
0.0496046
0.0493334
0.0488781
0.0481843
0.0471755
0.045763
0.0438914
0.0417127
0.0404705
0.0546249
0.059307
0.0528358
0.050164
0.0492464
0.0490375
0.0490682
0.0491414
0.0491775
0.0491431
0.0490184
0.0487817
0.0484012
0.0478303
0.0470093
0.0458793
0.04444
0.0429544
0.0429908
0.0615913
0.0551646
0.0520168
0.0503131
0.0495171
0.0491971
0.0490901
0.049056
0.0490244
0.0489586
0.0488346
0.0486287
0.0483107
0.0478395
0.0471657
0.0462496
0.0451248
0.044123
0.0450285
0.0667887
0.0537104
0.0516345
0.0503914
0.0497038
0.0493504
0.0491746
0.0490788
0.0490061
0.0489223
0.048803
0.0486248
0.0483585
0.0479668
0.0474068
0.0466501
0.0457502
0.0450821
0.0465836
0.070642
0.0531521
0.0514709
0.0504426
0.0498261
0.0494686
0.0492617
0.0491339
0.0490392
0.0489475
0.0488358
0.0486816
0.0484571
0.048127
0.0476523
0.0470107
0.0462676
0.0458261
0.0477374
0.0734777
0.0529129
0.0514028
0.0504797
0.0499073
0.0495556
0.0493377
0.0491958
0.0490915
0.0489984
0.0488956
0.0487614
0.0485694
0.0482855
0.0478725
0.0473115
0.0466747
0.0463845
0.048577
0.0755421
0.0527991
0.0513774
0.0505103
0.0499658
0.0496227
0.0494034
0.0492572
0.0491506
0.0490598
0.0489656
0.0488475
0.0486797
0.048429
0.048059
0.0475523
0.0469853
0.0467943
0.0491778
0.0770254
0.0527458
0.0513757
0.0505407
0.0500143
0.0496793
0.0494625
0.0493169
0.0492115
0.0491245
0.0490377
0.0489317
0.0487812
0.0485532
0.0482117
0.0477402
0.0472175
0.0470897
0.0496013
0.0780759
0.05273
0.0513913
0.0505751
0.05006
0.0497315
0.0495182
0.0493748
0.0492717
0.0491883
0.0491073
0.0490098
0.0488708
0.0486576
0.0483341
0.0478841
0.0473881
0.0472994
0.0498954
0.0788088
0.052741
0.0514208
0.0506149
0.0501063
0.0497819
0.0495714
0.0494302
0.0493293
0.0492487
0.0491716
0.0490795
0.0489477
0.0487433
0.0484303
0.0479925
0.0475117
0.0474462
0.0500966
0.0793125
0.0527708
0.0514604
0.0506592
0.0501534
0.049831
0.0496221
0.0494822
0.0493827
0.0493037
0.0492289
0.0491399
0.0490119
0.0488122
0.0485046
0.048073
0.0476001
0.0475476
0.0502326
0.0796537
0.0528119
0.0515058
0.0507057
0.0502001
0.049878
0.0496693
0.0495297
0.0494306
0.0493523
0.0492783
0.0491905
0.0490642
0.0488664
0.048561
0.0481319
0.0476624
0.0476168
0.0503232
0.0798817
0.0528582
0.051553
0.0507517
0.0502448
0.0499214
0.049712
0.0495718
0.0494723
0.0493937
0.0493196
0.0492318
0.0491057
0.0489082
0.0486031
0.0481744
0.0477059
0.0476635
0.0503828
0.0800321
0.0529046
0.0515986
0.050795
0.0502857
0.0499604
0.0497494
0.049608
0.0495075
0.049428
0.0493532
0.0492647
0.0491379
0.0489398
0.0486339
0.0482046
0.0477358
0.0476946
0.0504216
0.0801302
0.0529479
0.0516405
0.0508341
0.0503219
0.0499943
0.0497813
0.0496383
0.0495364
0.0494557
0.0493797
0.0492902
0.0491623
0.0489631
0.0486562
0.0482258
0.0477561
0.0477151
0.0504466
0.0801935
0.0529862
0.0516774
0.0508682
0.0503532
0.050023
0.0498078
0.049663
0.0495596
0.0494775
0.0494003
0.0493096
0.0491806
0.0489802
0.048672
0.0482404
0.0477698
0.0477285
0.0504626
0.080234
0.0530187
0.0517091
0.0508974
0.0503797
0.0500469
0.0498296
0.049683
0.0495779
0.0494945
0.049416
0.0493241
0.0491939
0.0489924
0.0486832
0.0482505
0.0477789
0.0477372
0.0504728
0.0802597
0.0530455
0.0517359
0.0509222
0.0504019
0.0500667
0.0498473
0.0496989
0.0495924
0.0495076
0.0494279
0.0493349
0.0492037
0.0490012
0.048691
0.0482574
0.047785
0.0477429
0.0504792
0.0802761
0.0530675
0.0517588
0.0509435
0.0504209
0.0500834
0.049862
0.0497119
0.0496039
0.0495179
0.0494371
0.0493431
0.049211
0.0490076
0.0486966
0.0482622
0.0477891
0.0477466
0.0504833
0.0802867
0.0530856
0.0517786
0.0509622
0.0504375
0.0500979
0.0498745
0.0497228
0.0496134
0.0495263
0.0494445
0.0493497
0.0492167
0.0490126
0.0487008
0.0482657
0.0477921
0.0477492
0.0504862
0.0802939
0.0531014
0.0517969
0.0509795
0.0504529
0.0501112
0.049886
0.0497327
0.0496221
0.0495338
0.0494512
0.0493554
0.0492217
0.0490168
0.0487044
0.0482687
0.0477946
0.0477513
0.0504884
0.0802996
0.0531166
0.0518149
0.0509968
0.0504683
0.0501247
0.0498977
0.0497429
0.049631
0.0495416
0.049458
0.0493615
0.0492269
0.0490213
0.0487081
0.0482718
0.0477971
0.0477534
0.0504906
0.0803053
0.0531332
0.0518343
0.0510156
0.0504853
0.0501397
0.0499109
0.0497546
0.0496414
0.049551
0.0494664
0.0493689
0.0492334
0.0490269
0.0487128
0.0482757
0.0478002
0.0477561
0.0504934
0.0803125
0.0531535
0.0518573
0.0510378
0.0505057
0.0501582
0.0499276
0.0497698
0.0496552
0.0495636
0.0494779
0.0493792
0.0492427
0.049035
0.0487197
0.0482815
0.047805
0.0477602
0.0504977
0.0803235
0.0531801
0.0518866
0.0510663
0.0505324
0.0501828
0.0499505
0.049791
0.0496751
0.0495821
0.049495
0.0493949
0.0492569
0.0490476
0.0487306
0.0482907
0.0478127
0.0477668
0.0505047
0.0803415
0.0532169
0.0519258
0.0511048
0.0505691
0.0502177
0.0499835
0.0498223
0.0497048
0.0496102
0.0495214
0.0494195
0.0492794
0.0490677
0.0487484
0.0483059
0.0478256
0.0477781
0.0505168
0.080372
0.0532687
0.0519806
0.0511591
0.0506219
0.0502686
0.0500326
0.0498696
0.0497503
0.0496538
0.0495628
0.0494584
0.0493154
0.0491005
0.0487775
0.0483313
0.0478475
0.0477974
0.0505377
0.0804242
0.0533432
0.0520591
0.051238
0.0506996
0.0503446
0.0501068
0.049942
0.0498206
0.0497217
0.0496281
0.0495204
0.0493735
0.049154
0.0488257
0.0483738
0.0478846
0.0478308
0.0505739
0.0805137
0.0534518
0.0521738
0.0513541
0.0508154
0.0504592
0.0502198
0.050053
0.0499293
0.0498277
0.0497307
0.0496189
0.0494668
0.0492409
0.0489053
0.0484452
0.0479479
0.0478885
0.050637
0.0806676
0.0536115
0.052343
0.0515269
0.0509891
0.0506324
0.0503917
0.050223
0.0500969
0.0499923
0.0498914
0.0497745
0.0496158
0.0493818
0.0490362
0.0485648
0.048056
0.0479886
0.0507471
0.080932
0.0538476
0.0525938
0.0517845
0.0512495
0.0508935
0.0506522
0.0504821
0.0503537
0.050246
0.0501409
0.0500184
0.0498524
0.0496087
0.0492509
0.0487649
0.0482407
0.048163
0.0509399
0.0813868
0.054197
0.0529654
0.0521675
0.0516382
0.0512848
0.0510441
0.0508734
0.0507435
0.0506333
0.0505245
0.050397
0.050224
0.0499708
0.0496003
0.0490984
0.0485564
0.0484676
0.0512794
0.0821699
0.054713
0.0535137
0.0527336
0.0522142
0.0518661
0.051628
0.0514582
0.0513282
0.0512172
0.0511069
0.0509768
0.0508001
0.0505415
0.050163
0.0496496
0.0490941
0.0490004
0.0518792
0.0835195
0.0554703
0.0543167
0.0535627
0.0530587
0.0527197
0.0524872
0.0523209
0.0521936
0.0520849
0.0519771
0.0518505
0.0516783
0.0514257
0.0510545
0.0505489
0.0500018
0.0499303
0.0529417
0.085844
0.0565723
0.0554806
0.0547631
0.0542816
0.0539568
0.0537337
0.0535747
0.053454
0.0533528
0.0532547
0.0531416
0.0529894
0.0527659
0.0524362
0.0519862
0.0515094
0.0515374
0.0548189
0.0898332
0.058158
0.057147
0.0564783
0.0560278
0.0557233
0.0555148
0.0553679
0.0552591
0.0551721
0.0550934
0.0550086
0.0548996
0.0547432
0.0545159
0.054216
0.0539472
0.0542611
0.0581036
0.096622
0.0604109
0.0595011
0.058895
0.058485
0.0582081
0.05802
0.0578905
0.0577997
0.0577345
0.057686
0.0576465
0.0576095
0.0575703
0.0575347
0.0575415
0.0577407
0.0587385
0.0637524
0.108031
0.0635693
0.0627817
0.0622528
0.0618939
0.0616521
0.0614904
0.0613837
0.0613162
0.0612793
0.0612696
0.0612896
0.0613497
0.0614774
0.0617355
0.0622596
0.0633461
0.0657969
0.073276
0.127016
0.0679393
0.0672946
0.0668576
0.0665604
0.0663615
0.0662318
0.066152
0.0661109
0.0661045
0.0661358
0.0662178
0.0663818
0.0666978
0.0673165
0.0685548
0.0710676
0.0763065
0.0891137
0.159043
0.073913
0.0734301
0.0730996
0.0728746
0.0727259
0.0726326
0.0725813
0.0725654
0.0725848
0.0726473
0.0727738
0.0730118
0.0734694
0.0743927
0.0763475
0.0806544
0.0905336
0.115307
0.218601
0.081991
0.0816871
0.0814773
0.0813349
0.0812425
0.0811877
0.081163
0.0811655
0.0811971
0.0812665
0.0813945
0.0816287
0.0820809
0.0830283
0.085195
0.0906302
0.105887
0.156735
0.382212
0.0928117
0.092704
0.092629
0.0925786
0.092547
0.0925301
0.0925257
0.0925332
0.0925541
0.0925929
0.092659
0.0927746
0.0929929
0.0934569
0.0946035
0.0980329
0.111353
0.193011
1.44615
)
;

boundaryField
{
    leftWall
    {
        type            epsilonWallFunction;
        blending        stepwise;
        value           nonuniform List<scalar> 
50
(
3.11056
1.99652
1.99652
1.99652
1.99652
1.99652
1.99652
1.99652
1.99652
1.99652
1.99652
1.99652
1.99652
1.99652
1.99652
1.99652
1.99652
1.99652
1.99652
1.99652
1.99652
1.99652
1.99652
1.99652
1.99652
1.99652
1.99652
1.99652
0.164502
0.0433363
0.0471071
0.0564096
0.0639188
0.0696838
0.0740743
0.0774081
0.0799617
0.0819915
0.0837552
0.0855407
0.0877109
0.0907748
0.0954983
0.103076
0.115408
0.135636
0.169585
0.231174
0.370396
0.815186
)
;
    }
    rightWall
    {
        type            epsilonWallFunction;
        blending        stepwise;
        value           nonuniform List<scalar> 
50
(
0.00977641
0.014499
0.0217214
0.0281052
0.0337435
0.0388338
0.0435421
0.0479837
0.0546249
0.0615913
0.0667887
0.070642
0.0734777
0.0755421
0.0770254
0.0780759
0.0788088
0.0793125
0.0796537
0.0798817
0.0800321
0.0801302
0.0801935
0.080234
0.0802597
0.0802761
0.0802867
0.0802939
0.0802996
0.0803053
0.0803125
0.0803235
0.0803415
0.080372
0.0804242
0.0805137
0.0806676
0.080932
0.0813868
0.0821699
0.0835195
0.085844
0.0898332
0.096622
0.108031
0.127016
0.159043
0.218601
0.382212
1.44615
)
;
    }
    lowerWall
    {
        type            epsilonWallFunction;
        blending        stepwise;
        value           nonuniform List<scalar> 
62
(
3.11056
4.22461
4.22461
4.22461
4.22461
4.22461
4.22461
4.22461
4.22461
4.22461
4.22461
4.22461
4.22461
0.0873632
0.0345823
0.0515287
0.0628587
0.0689211
0.0700008
0.0656513
0.0547916
0.0358702
0.00849571
0.00849571
0.0153144
0.0245663
0.0332998
0.0423143
0.0534826
0.0726953
0.123727
0.154123
0.122066
0.124255
0.163119
0.00967612
0.0160722
0.0259176
0.0355095
0.0456671
0.0584553
0.080167
0.133997
0.00967612
0.0432463
0.0676805
0.0839713
0.094605
0.101435
0.105632
0.107898
0.108634
0.108031
0.10612
0.102805
0.0978838
0.0910711
0.0819985
0.070187
0.0549455
0.0351355
0.00977641
)
;
    }
    atmosphere
    {
        type            inletOutlet;
        inletValue      uniform 0.1;
        value           uniform 0.1;
    }
    defaultFaces
    {
        type            empty;
    }
}


// ************************************************************************* //
