/*--------------------------------*- C++ -*----------------------------------*\
| =========                 |                                                 |
| \\      /  F ield         | OpenFOAM: The Open Source CFD Toolbox           |
|  \\    /   O peration     | Version:  2406                                  |
|   \\  /    A nd           | Website:  www.openfoam.com                      |
|    \\/     M anipulation  |                                                 |
\*---------------------------------------------------------------------------*/
FoamFile
{
    version     2.0;
    format      ascii;
    arch        "LSB;label=32;scalar=64";
    class       volScalarField;
    location    "0.6";
    object      k;
}
// * * * * * * * * * * * * * * * * * * * * * * * * * * * * * * * * * * * * * //

dimensions      [0 2 -2 0 0 0 0];

internalField   nonuniform List<scalar> 
2268
(
0.00196943
0.00408518
0.00565406
0.00675767
0.00757862
0.00820451
0.00868583
0.00905524
0.00933534
0.00954232
0.00968767
0.00977901
0.00982033
0.00981178
0.00974901
0.00962179
0.00941144
0.00908601
0.00859137
0.00783512
0.00665864
0.00478328
0.00163556
0.00379633
0.00939963
0.0127042
0.0150552
0.0168107
0.0181497
0.0191789
0.0199682
0.0205663
0.0210083
0.0213189
0.0215145
0.0216037
0.021587
0.0214551
0.0211864
0.0207416
0.020054
0.0190115
0.0174254
0.0149753
0.011108
0.00419889
0.00514247
0.0123604
0.0164099
0.0192959
0.0214627
0.023122
0.024401
0.0253844
0.0261317
0.0266855
0.0270764
0.0273245
0.0274405
0.027425
0.0272673
0.026942
0.0264026
0.0255711
0.0243166
0.0224187
0.019496
0.0148311
0.00595993
0.00621986
0.0145716
0.0190893
0.0222966
0.0247136
0.0265716
0.0280086
0.029117
0.0299619
0.0305906
0.0310365
0.0313221
0.0314595
0.03145
0.0312826
0.0309309
0.0303468
0.0294493
0.0281039
0.0260806
0.0229627
0.0178659
0.00747297
0.00709669
0.0163767
0.0212531
0.0246913
0.0272866
0.0292882
0.0308415
0.0320436
0.0329632
0.0336503
0.0341405
0.0344578
0.0346154
0.0346156
0.0344481
0.0340872
0.0334862
0.0325667
0.0311986
0.0291559
0.0260027
0.0206807
0.00889649
0.00782818
0.0179009
0.023079
0.026701
0.0294356
0.0315499
0.0331957
0.0344736
0.0354548
0.0361911
0.0367197
0.0370658
0.0372438
0.037257
0.0370965
0.0367387
0.0361402
0.0352289
0.0338852
0.0318991
0.0288401
0.0235127
0.0104731
0.00845016
0.0192102
0.0246529
0.028431
0.0312812
0.0334888
0.0352119
0.0365541
0.0375885
0.0383682
0.0389316
0.039305
0.0395038
0.0395328
0.039385
0.0390397
0.0384584
0.0375775
0.0362926
0.0344211
0.0315763
0.0265592
0.0128445
0.00898609
0.0203466
0.026026
0.0299417
0.032892
0.03518
0.03697
0.0383686
0.0394502
0.0402692
0.0408649
0.0412647
0.0414852
0.0415326
0.0414021
0.0410766
0.0405235
0.039689
0.038487
0.0367706
0.034238
0.0299565
0.0182519
0.00173731
0.0050693
0.00697272
0.00811261
0.00880886
0.00923549
0.00948742
0.00961605
0.00964833
0.00959638
0.00946226
0.00924011
0.00891656
0.00846969
0.00786569
0.00705092
0.00593181
0.00431401
0.00214313
0.00443353
0.0116934
0.0156265
0.0180037
0.0194655
0.0203648
0.0208965
0.0211675
0.0212342
0.0211221
0.0208354
0.0203612
0.0196705
0.0187159
0.0174245
0.0156823
0.0132954
0.00987662
0.00404345
0.00622557
0.0155358
0.0202686
0.0231033
0.024853
0.0259346
0.0265753
0.0268997
0.0269741
0.0268281
0.0264662
0.0258723
0.0250106
0.0238232
0.0222214
0.020068
0.0171325
0.0129383
0.00540181
0.00777763
0.0186395
0.0237829
0.0268006
0.0286656
0.0298247
0.0305127
0.0308579
0.0309283
0.0307544
0.0303396
0.0296655
0.0286925
0.0273566
0.0255606
0.0231551
0.0198885
0.0152097
0.0064971
0.00925387
0.0214995
0.0268281
0.0298705
0.0317526
0.0329297
0.0336299
0.0339765
0.0340349
0.0338338
0.033375
0.0326379
0.0315802
0.0301337
0.0281962
0.0256101
0.0221059
0.0170595
0.00739214
0.0109216
0.02435
0.0296352
0.0325783
0.0344082
0.0355623
0.0362501
0.0365842
0.0366241
0.036395
0.0358964
0.0351057
0.033978
0.0324426
0.0303933
0.0276657
0.0239733
0.0186204
0.00814005
0.0134613
0.0273666
0.0323053
0.0350415
0.0367674
0.0378685
0.0385257
0.0388365
0.0388524
0.038594
0.0380579
0.0372192
0.0360311
0.0344205
0.032278
0.0294331
0.0255819
0.0199613
0.00877634
0.0189978
0.0306486
0.0348692
0.0373155
0.0389017
0.0399285
0.0405415
0.0408207
0.0408081
0.040519
0.0399466
0.0390638
0.0378217
0.0361453
0.0339221
0.0309758
0.026985
0.0211254
0.00932466
0.00971558
0.0218998
0.0279127
0.0320222
0.0351117
0.0375107
0.0393936
0.0408708
0.0420193
0.0428949
0.0435384
0.0439786
0.044234
0.0443133
0.0442157
0.0439302
0.0434337
0.0426892
0.0416402
0.0401984
0.0382093
0.0353354
0.0305952
0.0104622
0.0235034
0.0298814
0.0342086
0.0374545
0.0399778
0.0419647
0.0435313
0.0447574
0.0457007
0.0464038
0.0468974
0.0472029
0.0473326
0.0472914
0.0470764
0.0466775
0.0460778
0.045254
0.0441768
0.0428107
0.0411124
0.0390393
0.011032
0.024734
0.0314073
0.0359174
0.0392972
0.0419277
0.044005
0.0456499
0.0469451
0.0479501
0.0487092
0.0492553
0.0496121
0.0497958
0.0498162
0.0496777
0.0493806
0.048923
0.0483035
0.0475258
0.046607
0.045593
0.0445924
0.0114684
0.0256818
0.0325938
0.0372576
0.040753
0.0434776
0.045635
0.0473501
0.0487078
0.0497698
0.0505819
0.0511788
0.0515867
0.051825
0.0519077
0.051845
0.0516446
0.0513144
0.0508652
0.0503154
0.0496979
0.0490687
0.0485186
0.0118019
0.0264108
0.0335153
0.0383079
0.0419031
0.0447105
0.0469393
0.0487176
0.0501326
0.0512472
0.0521091
0.0527546
0.0532121
0.0535034
0.0536462
0.0536545
0.0535413
0.05332
0.0530072
0.052626
0.0522096
0.0518046
0.0514714
0.0120552
0.026969
0.0342282
0.0391283
0.0428092
0.0456891
0.0479814
0.0498168
0.0512838
0.052447
0.0533553
0.0540466
0.0545509
0.0548924
0.0550909
0.0551637
0.0551266
0.0549961
0.0547908
0.054534
0.0542545
0.0539878
0.0537734
0.0122458
0.0273933
0.0347761
0.0397654
0.0435194
0.0464625
0.0488111
0.0506974
0.0522115
0.0534192
0.0543703
0.0551041
0.0556519
0.0560396
0.0562888
0.0564186
0.0564467
0.0563909
0.0562702
0.0561058
0.0559222
0.0557459
0.0556036
0.0123879
0.0277129
0.035194
0.0402567
0.0440726
0.0470702
0.049468
0.0513995
0.0529559
0.0542037
0.0551938
0.0559664
0.0565539
0.0569834
0.0572778
0.0574574
0.0575408
0.0575462
0.0574919
0.0573973
0.0572826
0.0571683
0.0570732
0.0124925
0.0279513
0.0355098
0.0406325
0.0445001
0.0475442
0.0499847
0.051956
0.0535498
0.0548335
0.0558585
0.056666
0.0572892
0.057756
0.0580901
0.0583125
0.0584423
0.0584977
0.058496
0.0584547
0.0583909
0.0583207
0.0582581
0.0125685
0.0281271
0.0357461
0.0409171
0.0448276
0.047911
0.0503881
0.0523937
0.0540203
0.0553355
0.0563916
0.05723
0.0578848
0.0583842
0.0587528
0.0590118
0.0591804
0.0592764
0.0593165
0.0593164
0.0592908
0.059253
0.0592137
0.0126231
0.0282553
0.0359209
0.0411306
0.0450762
0.0481923
0.0507002
0.0527353
0.0543901
0.0557328
0.0568159
0.0576814
0.0583636
0.0588914
0.0592895
0.0595793
0.0597802
0.0599093
0.0599827
0.0600146
0.0600182
0.0600046
0.0599824
0.0126618
0.0283477
0.0360489
0.0412891
0.0452629
0.0484059
0.0509396
0.0529994
0.0546782
0.0560445
0.0571509
0.0580397
0.0587455
0.0592975
0.0597206
0.0600363
0.0602637
0.0604197
0.0605196
0.0605767
0.0606027
0.0606074
0.060598
0.0126889
0.0284134
0.0361416
0.0414055
0.0454018
0.0485666
0.0511213
0.0532017
0.0549007
0.0562868
0.0574129
0.0583214
0.0590473
0.0596198
0.0600638
0.0604009
0.06065
0.0608278
0.0609488
0.0610257
0.0610691
0.0610878
0.0610881
0.0127076
0.0284597
0.0362079
0.04149
0.045504
0.0486861
0.0512579
0.0533551
0.0550707
0.0564733
0.0576159
0.058541
0.0592836
0.0598731
0.0603344
0.0606891
0.0609559
0.0611512
0.0612889
0.0613813
0.0614383
0.0614678
0.0614754
0.0127204
0.0284919
0.0362549
0.0415508
0.0455784
0.0487742
0.0513596
0.0534703
0.0551994
0.0566155
0.0577716
0.0587103
0.0594667
0.0600702
0.0605456
0.0609146
0.0611957
0.0614049
0.0615559
0.0616604
0.0617279
0.0617657
0.061779
0.012729
0.0285141
0.0362877
0.041594
0.045632
0.0488383
0.0514344
0.0535559
0.0552958
0.0567227
0.0578898
0.0588396
0.0596072
0.0602219
0.0607089
0.0610893
0.0613818
0.061602
0.0617634
0.0618774
0.061953
0.0619972
0.0620148
0.0127348
0.0285292
0.0363105
0.0416244
0.0456702
0.0488846
0.0514889
0.0536188
0.0553673
0.0568028
0.0579786
0.0589372
0.0597138
0.0603376
0.0608336
0.0612232
0.0615246
0.0617535
0.0619231
0.0620444
0.0621263
0.0621754
0.0621962
0.0127386
0.0285394
0.0363262
0.0416455
0.0456972
0.0489176
0.0515282
0.0536646
0.0554197
0.056862
0.0580446
0.0590102
0.0597938
0.0604248
0.060928
0.0613247
0.0616331
0.0618687
0.0620446
0.0621715
0.0622582
0.062311
0.0623343
0.0127411
0.0285462
0.0363368
0.0416601
0.045716
0.0489409
0.0515563
0.0536976
0.0554577
0.0569052
0.0580932
0.0590642
0.0598533
0.0604898
0.0609986
0.0614008
0.0617146
0.0619554
0.0621361
0.0622673
0.0623576
0.0624132
0.0624384
0.0127428
0.0285507
0.036344
0.0416701
0.0457291
0.0489573
0.0515761
0.0537211
0.055485
0.0569365
0.0581285
0.0591037
0.059897
0.0605377
0.0610508
0.0614572
0.0617752
0.0620199
0.0622042
0.0623387
0.0624317
0.0624894
0.062516
0.0127438
0.0285537
0.0363488
0.0416769
0.045738
0.0489686
0.05159
0.0537377
0.0555045
0.0569589
0.0581539
0.0591322
0.0599287
0.0605727
0.061089
0.0614987
0.0618197
0.0620673
0.0622544
0.0623913
0.0624864
0.0625457
0.0625732
0.0127445
0.0285556
0.0363519
0.0416814
0.0457441
0.0489764
0.0515996
0.0537493
0.0555182
0.0569747
0.0581721
0.0591527
0.0599516
0.060598
0.0611167
0.0615287
0.0618521
0.0621019
0.062291
0.0624297
0.0625262
0.0625867
0.062615
0.0127449
0.0285568
0.036354
0.0416844
0.0457482
0.0489816
0.0516062
0.0537573
0.0555277
0.0569859
0.0581849
0.0591672
0.0599679
0.0606161
0.0611365
0.0615503
0.0618754
0.0621268
0.0623174
0.0624574
0.062555
0.0626163
0.0626452
0.0127452
0.0285576
0.0363554
0.0416864
0.0457509
0.0489852
0.0516107
0.0537628
0.0555343
0.0569936
0.0581938
0.0591774
0.0599793
0.0606288
0.0611506
0.0615657
0.0618919
0.0621446
0.0623362
0.0624772
0.0625756
0.0626375
0.0626668
0.0127454
0.0285582
0.0363562
0.0416877
0.0457527
0.0489876
0.0516138
0.0537666
0.0555388
0.056999
0.0582
0.0591845
0.0599874
0.0606378
0.0611605
0.0615765
0.0619036
0.0621571
0.0623495
0.0624912
0.0625901
0.0626524
0.062682
0.0127455
0.0285585
0.0363568
0.0416886
0.0457539
0.0489892
0.0516158
0.0537691
0.0555419
0.0570026
0.0582043
0.0591894
0.0599929
0.060644
0.0611673
0.061584
0.0619118
0.0621659
0.0623588
0.0625009
0.0626003
0.0626629
0.0626927
0.0127455
0.0285587
0.0363572
0.0416891
0.0457547
0.0489902
0.0516171
0.0537708
0.0555439
0.0570051
0.0582072
0.0591927
0.0599967
0.0606482
0.0611721
0.0615892
0.0619174
0.0621719
0.0623653
0.0625077
0.0626074
0.0626702
0.0627001
0.0127456
0.0285588
0.0363574
0.0416895
0.0457552
0.0489909
0.051618
0.0537719
0.0555453
0.0570067
0.0582091
0.059195
0.0599993
0.0606511
0.0611753
0.0615927
0.0619213
0.0621761
0.0623697
0.0625124
0.0626122
0.0626752
0.0627052
0.0127456
0.0285589
0.0363575
0.0416897
0.0457555
0.0489914
0.0516186
0.0537726
0.0555462
0.0570078
0.0582104
0.0591965
0.060001
0.0606531
0.0611775
0.0615951
0.0619239
0.0621789
0.0623727
0.0625155
0.0626155
0.0626786
0.0627086
0.0127456
0.0285589
0.0363576
0.0416898
0.0457557
0.0489916
0.051619
0.0537731
0.0555468
0.0570085
0.0582113
0.0591975
0.0600022
0.0606544
0.0611789
0.0615967
0.0619256
0.0621808
0.0623747
0.0625176
0.0626177
0.0626809
0.0627109
0.0127456
0.028559
0.0363577
0.0416899
0.0457558
0.0489918
0.0516192
0.0537734
0.0555472
0.057009
0.0582118
0.0591982
0.0600029
0.0606553
0.0611799
0.0615978
0.0619268
0.062182
0.062376
0.0625191
0.0626192
0.0626824
0.0627125
0.0127456
0.028559
0.0363577
0.04169
0.0457559
0.0489919
0.0516194
0.0537736
0.0555475
0.0570093
0.0582122
0.0591986
0.0600034
0.0606558
0.0611805
0.0615985
0.0619276
0.0621829
0.0623769
0.06252
0.0626202
0.0626834
0.0627135
0.0127456
0.028559
0.0363577
0.04169
0.045756
0.048992
0.0516195
0.0537738
0.0555476
0.0570095
0.0582124
0.0591989
0.0600037
0.0606562
0.061181
0.061599
0.0619281
0.0621834
0.0623775
0.0625206
0.0626208
0.0626841
0.0627142
0.0127456
0.028559
0.0363577
0.04169
0.045756
0.0489921
0.0516195
0.0537738
0.0555477
0.0570097
0.0582126
0.0591991
0.060004
0.0606565
0.0611812
0.0615993
0.0619284
0.0621838
0.0623779
0.062521
0.0626212
0.0626845
0.0627146
0.0127456
0.028559
0.0363577
0.04169
0.045756
0.0489921
0.0516196
0.0537739
0.0555478
0.0570097
0.0582127
0.0591992
0.0600041
0.0606566
0.0611814
0.0615995
0.0619286
0.062184
0.0623781
0.0625213
0.0626215
0.0626848
0.0627149
0.0127456
0.028559
0.0363577
0.04169
0.045756
0.0489921
0.0516196
0.0537739
0.0555478
0.0570098
0.0582128
0.0591993
0.0600042
0.0606567
0.0611815
0.0615996
0.0619288
0.0621842
0.0623783
0.0625214
0.0626217
0.0626849
0.0627151
0.0127456
0.028559
0.0363578
0.04169
0.045756
0.0489921
0.0516196
0.0537739
0.0555479
0.0570098
0.0582128
0.0591993
0.0600042
0.0606568
0.0611816
0.0615997
0.0619289
0.0621842
0.0623784
0.0625215
0.0626218
0.062685
0.0627152
0.0127456
0.028559
0.0363578
0.0416901
0.0457561
0.0489921
0.0516196
0.0537739
0.0555479
0.0570098
0.0582128
0.0591993
0.0600043
0.0606568
0.0611816
0.0615997
0.0619289
0.0621843
0.0623784
0.0625216
0.0626218
0.0626851
0.0627153
0.0127456
0.028559
0.0363578
0.0416901
0.0457561
0.0489921
0.0516196
0.053774
0.0555479
0.0570098
0.0582128
0.0591993
0.0600043
0.0606568
0.0611817
0.0615997
0.0619289
0.0621843
0.0623785
0.0625216
0.0626219
0.0626851
0.0627153
0.0127456
0.028559
0.0363578
0.0416901
0.0457561
0.0489921
0.0516196
0.053774
0.0555479
0.0570099
0.0582128
0.0591994
0.0600043
0.0606568
0.0611817
0.0615998
0.061929
0.0621843
0.0623785
0.0625217
0.0626219
0.0626851
0.0627153
0.0127456
0.028559
0.0363578
0.0416901
0.0457561
0.0489921
0.0516196
0.053774
0.0555479
0.0570099
0.0582129
0.0591994
0.0600043
0.0606569
0.0611817
0.0615998
0.061929
0.0621844
0.0623785
0.0625217
0.0626219
0.0626851
0.0627153
0.0127456
0.028559
0.0363578
0.0416901
0.0457561
0.0489921
0.0516196
0.053774
0.0555479
0.0570099
0.0582129
0.0591994
0.0600043
0.0606569
0.0611817
0.0615998
0.061929
0.0621844
0.0623785
0.0625217
0.0626219
0.0626851
0.0627153
0.0208541
0.0176468
0.0176195
0.0207136
0.0373104
0.0366114
0.036598
0.0372706
0.0440494
0.0438426
0.043833
0.0440211
0.048268
0.0481773
0.0481678
0.0482396
0.0513282
0.0512757
0.0512658
0.0512984
0.0536813
0.053646
0.0536356
0.0536501
0.0555404
0.0555144
0.0555035
0.0555076
0.057028
0.0570077
0.0569964
0.0569938
0.058225
0.0582084
0.0581966
0.0581894
0.059189
0.059175
0.0591628
0.0591522
0.0599638
0.0599516
0.059939
0.0599258
0.060584
0.060573
0.0605601
0.0605449
0.0610774
0.0610674
0.0610542
0.0610375
0.0614673
0.061458
0.0614444
0.0614265
0.0617728
0.0617639
0.0617502
0.0617313
0.06201
0.0620015
0.0619876
0.061968
0.0621925
0.0621843
0.0621702
0.06215
0.0623314
0.0623234
0.0623092
0.0622885
0.0624361
0.0624282
0.0624139
0.0623929
0.0625141
0.0625064
0.062492
0.0624707
0.0625717
0.062564
0.0625496
0.0625281
0.0626137
0.0626061
0.0625916
0.06257
0.0626441
0.0626365
0.0626219
0.0626002
0.0626657
0.0626582
0.0626436
0.0626218
0.0626811
0.0626735
0.0626589
0.0626371
0.0626918
0.0626843
0.0626697
0.0626478
0.0626992
0.0626917
0.0626771
0.0626552
0.0627043
0.0626968
0.0626822
0.0626603
0.0627078
0.0627003
0.0626857
0.0626637
0.0627102
0.0627027
0.062688
0.0626661
0.0627117
0.0627042
0.0626896
0.0626676
0.0627128
0.0627053
0.0626906
0.0626686
0.0627134
0.0627059
0.0626913
0.0626693
0.0627139
0.0627064
0.0626917
0.0626698
0.0627142
0.0627067
0.062692
0.06267
0.0627143
0.0627068
0.0626922
0.0626702
0.0627144
0.0627069
0.0626923
0.0626703
0.0627145
0.062707
0.0626923
0.0626704
0.0627145
0.062707
0.0626924
0.0626704
0.0627145
0.062707
0.0626924
0.0626704
0.0627145
0.062707
0.0626923
0.0626704
0.0627145
0.062707
0.0626923
0.0626703
0.0309094
0.0357678
0.0386668
0.0406118
0.0419496
0.0428388
0.0433676
0.0435874
0.0435247
0.0431856
0.0425577
0.0416101
0.0402911
0.0385225
0.0361874
0.0331
0.0289134
0.0227167
0.0100709
0.0391014
0.041308
0.0430633
0.0444161
0.045414
0.0460949
0.0464872
0.0466093
0.0464677
0.0460562
0.0453547
0.0443269
0.042917
0.0410427
0.0385813
0.035335
0.0309278
0.0243601
0.010834
0.0445767
0.0456535
0.0467117
0.0476209
0.0483282
0.0488131
0.0490679
0.0490875
0.0488629
0.0483775
0.047604
0.0465009
0.0450085
0.0430406
0.0404689
0.0370855
0.0324916
0.0256216
0.0114157
0.0484773
0.0490559
0.0497024
0.0502992
0.0507757
0.0510905
0.0512179
0.0511382
0.0508315
0.0502732
0.04943
0.048256
0.0466877
0.0446351
0.0419653
0.0384622
0.0337097
0.0265937
0.0118608
0.0514185
0.0517492
0.0521461
0.0525253
0.052824
0.0529972
0.0530118
0.0528403
0.0524559
0.0518279
0.0509184
0.0496779
0.0480394
0.04591
0.0431526
0.0395449
0.034658
0.0273421
0.0122007
0.0537133
0.0539049
0.0541429
0.0543688
0.0545316
0.0545891
0.0545066
0.0542528
0.0537966
0.0531035
0.0521321
0.0508298
0.049127
0.046928
0.0440927
0.040394
0.0353937
0.0279158
0.0124587
0.0555381
0.0556435
0.055775
0.0558905
0.055949
0.0559129
0.055748
0.0554218
0.0549009
0.0541483
0.0531199
0.0517608
0.0499995
0.0477382
0.044834
0.0410566
0.0359611
0.0283527
0.0126529
0.0570032
0.0570511
0.0571081
0.0571423
0.0571202
0.0570083
0.0567742
0.0563852
0.0558069
0.0550006
0.0539206
0.0525103
0.0506964
0.0483796
0.0454152
0.0415704
0.0363958
0.0286828
0.0127977
0.0581842
0.0581918
0.0581947
0.0581678
0.0580826
0.0579094
0.0576176
0.0571748
0.0565463
0.0556924
0.0545663
0.0531103
0.0512498
0.0488842
0.0458678
0.0419658
0.0367258
0.0289298
0.0129044
0.0591364
0.0591146
0.0590773
0.0590035
0.0588687
0.0586459
0.0583061
0.0578176
0.0571457
0.0562502
0.0550836
0.0535873
0.051686
0.0492783
0.0462174
0.0422675
0.0369742
0.0291126
0.0129821
0.0599022
0.0598583
0.0597905
0.0596805
0.0595065
0.0592435
0.058864
0.058337
0.057628
0.0566966
0.0554949
0.0539637
0.0520273
0.0495835
0.0464851
0.0424956
0.0371592
0.0292466
0.013038
0.0605152
0.0604547
0.0603634
0.0602251
0.0600199
0.0597245
0.0593123
0.0587532
0.0580128
0.0570509
0.0558192
0.0542582
0.0522919
0.0498178
0.0466882
0.0426664
0.0372956
0.0293436
0.0130778
0.0610031
0.0609297
0.0608202
0.0606598
0.0604298
0.0601082
0.0596693
0.0590837
0.0583171
0.0573295
0.0560725
0.0544865
0.0524952
0.0499959
0.0468408
0.042793
0.0373951
0.0294131
0.0131057
0.0613886
0.0613052
0.0611816
0.0610038
0.0607541
0.0604115
0.059951
0.0593436
0.0585555
0.0575465
0.0562685
0.0546618
0.0526498
0.0501299
0.0469543
0.0428858
0.037467
0.0294624
0.0131251
0.0616906
0.0615995
0.0614649
0.0612734
0.0610083
0.0606489
0.060171
0.059546
0.0587402
0.0577139
0.0564187
0.054795
0.0527663
0.0502299
0.0470379
0.0429532
0.0375183
0.0294969
0.0131385
0.0619251
0.061828
0.0616848
0.0614828
0.0612054
0.0608328
0.0603411
0.0597019
0.058882
0.0578416
0.0565325
0.0548952
0.0528531
0.0503036
0.0470988
0.0430016
0.0375546
0.0295209
0.0131475
0.0621054
0.0620037
0.0618539
0.0616436
0.0613568
0.0609738
0.0604711
0.0598208
0.0589896
0.057938
0.0566179
0.0549698
0.0529172
0.0503574
0.0471427
0.0430361
0.03758
0.0295374
0.0131536
0.0622427
0.0621374
0.0619826
0.0617659
0.0614718
0.0610807
0.0605695
0.0599104
0.0590704
0.05801
0.0566813
0.0550248
0.052964
0.0503963
0.0471741
0.0430604
0.0375976
0.0295486
0.0131577
0.0623461
0.0622382
0.0620795
0.0618579
0.0615582
0.0611609
0.0606432
0.0599773
0.0591304
0.0580633
0.0567279
0.0550648
0.0529977
0.0504241
0.0471963
0.0430773
0.0376097
0.0295562
0.0131604
0.0624231
0.0623132
0.0621516
0.0619264
0.0616224
0.0612204
0.0606977
0.0600266
0.0591745
0.0581022
0.0567617
0.0550937
0.0530219
0.0504438
0.0472118
0.043089
0.037618
0.0295612
0.0131622
0.0624799
0.0623685
0.0622047
0.0619768
0.0616696
0.0612641
0.0607376
0.0600626
0.0592066
0.0581303
0.056786
0.0551144
0.053039
0.0504576
0.0472226
0.043097
0.0376235
0.0295646
0.0131633
0.0625214
0.0624088
0.0622434
0.0620135
0.0617039
0.0612958
0.0607664
0.0600886
0.0592297
0.0581505
0.0568034
0.055129
0.0530511
0.0504672
0.04723
0.0431025
0.0376273
0.0295668
0.0131641
0.0625513
0.0624379
0.0622714
0.0620399
0.0617286
0.0613186
0.0607872
0.0601072
0.0592461
0.0581648
0.0568156
0.0551392
0.0530594
0.0504738
0.0472351
0.0431061
0.0376297
0.0295682
0.0131646
0.0625727
0.0624587
0.0622913
0.0620588
0.0617462
0.0613347
0.0608018
0.0601203
0.0592577
0.0581748
0.0568241
0.0551462
0.0530651
0.0504784
0.0472385
0.0431086
0.0376314
0.0295692
0.0131649
0.0625878
0.0624734
0.0623054
0.0620721
0.0617586
0.0613461
0.0608122
0.0601295
0.0592657
0.0581817
0.05683
0.0551511
0.0530691
0.0504814
0.0472407
0.0431102
0.0376324
0.0295698
0.0131651
0.0625984
0.0624837
0.0623152
0.0620814
0.0617672
0.0613541
0.0608193
0.0601359
0.0592713
0.0581865
0.056834
0.0551544
0.0530717
0.0504835
0.0472423
0.0431113
0.0376331
0.0295701
0.0131652
0.0626057
0.0624908
0.062322
0.0620878
0.0617732
0.0613595
0.0608243
0.0601403
0.0592751
0.0581898
0.0568367
0.0551567
0.0530735
0.0504848
0.0472433
0.043112
0.0376336
0.0295704
0.0131652
0.0626107
0.0624957
0.0623267
0.0620922
0.0617773
0.0613633
0.0608276
0.0601432
0.0592777
0.058192
0.0568386
0.0551581
0.0530746
0.0504857
0.0472439
0.0431124
0.0376338
0.0295705
0.0131653
0.0626142
0.062499
0.0623299
0.0620952
0.06178
0.0613658
0.0608299
0.0601453
0.0592794
0.0581935
0.0568398
0.0551591
0.0530754
0.0504863
0.0472443
0.0431127
0.037634
0.0295706
0.0131653
0.0626165
0.0625012
0.062332
0.0620972
0.0617819
0.0613675
0.0608314
0.0601466
0.0592806
0.0581945
0.0568406
0.0551598
0.0530759
0.0504867
0.0472446
0.0431129
0.0376341
0.0295707
0.0131653
0.062618
0.0625027
0.0623334
0.0620985
0.0617831
0.0613686
0.0608324
0.0601475
0.0592814
0.0581951
0.0568411
0.0551602
0.0530763
0.0504869
0.0472448
0.043113
0.0376342
0.0295707
0.0131654
0.062619
0.0625037
0.0623344
0.0620994
0.061784
0.0613694
0.0608331
0.0601481
0.0592819
0.0581955
0.0568415
0.0551605
0.0530765
0.0504871
0.0472449
0.0431131
0.0376342
0.0295708
0.0131654
0.0626197
0.0625043
0.062335
0.0621
0.0617845
0.0613699
0.0608335
0.0601484
0.0592822
0.0581958
0.0568417
0.0551607
0.0530766
0.0504872
0.047245
0.0431131
0.0376343
0.0295708
0.0131654
0.0626201
0.0625048
0.0623354
0.0621004
0.0617848
0.0613702
0.0608338
0.0601487
0.0592824
0.058196
0.0568418
0.0551608
0.0530767
0.0504873
0.047245
0.0431132
0.0376343
0.0295708
0.0131654
0.0626204
0.062505
0.0623356
0.0621006
0.0617851
0.0613704
0.060834
0.0601488
0.0592825
0.0581961
0.0568419
0.0551608
0.0530768
0.0504873
0.047245
0.0431132
0.0376343
0.0295708
0.0131654
0.0626206
0.0625052
0.0623358
0.0621008
0.0617852
0.0613705
0.0608341
0.0601489
0.0592826
0.0581962
0.056842
0.0551609
0.0530768
0.0504873
0.0472451
0.0431132
0.0376343
0.0295708
0.0131654
0.0626207
0.0625053
0.0623359
0.0621009
0.0617853
0.0613706
0.0608342
0.060149
0.0592827
0.0581962
0.056842
0.0551609
0.0530768
0.0504873
0.0472451
0.0431132
0.0376343
0.0295708
0.0131654
0.0626207
0.0625053
0.0623359
0.0621009
0.0617853
0.0613706
0.0608342
0.060149
0.0592827
0.0581962
0.056842
0.0551609
0.0530768
0.0504873
0.0472451
0.0431132
0.0376343
0.0295708
0.0131654
0.0626207
0.0625054
0.062336
0.0621009
0.0617854
0.0613707
0.0608342
0.0601491
0.0592827
0.0581962
0.0568421
0.055161
0.0530768
0.0504873
0.0472451
0.0431132
0.0376343
0.0295708
0.0131654
0.0626207
0.0625054
0.062336
0.062101
0.0617854
0.0613707
0.0608343
0.0601491
0.0592827
0.0581963
0.0568421
0.055161
0.0530768
0.0504873
0.0472451
0.0431132
0.0376343
0.0295708
0.0131654
0.0626207
0.0625054
0.062336
0.062101
0.0617854
0.0613707
0.0608343
0.0601491
0.0592828
0.0581963
0.0568421
0.055161
0.0530768
0.0504874
0.0472451
0.0431132
0.0376343
0.0295708
0.0131654
0.0626207
0.0625054
0.062336
0.062101
0.0617854
0.0613707
0.0608343
0.0601491
0.0592828
0.0581963
0.0568421
0.055161
0.0530768
0.0504874
0.0472451
0.0431132
0.0376343
0.0295708
0.0131654
)
;

boundaryField
{
    leftWall
    {
        type            kqRWallFunction;
        value           nonuniform List<scalar> 
50
(
0.00196943
0.00379633
0.00514247
0.00621986
0.00709669
0.00782818
0.00845016
0.00898609
0.00971558
0.0104622
0.011032
0.0114684
0.0118019
0.0120552
0.0122458
0.0123879
0.0124925
0.0125685
0.0126231
0.0126618
0.0126889
0.0127076
0.0127204
0.012729
0.0127348
0.0127386
0.0127411
0.0127428
0.0127438
0.0127445
0.0127449
0.0127452
0.0127454
0.0127455
0.0127455
0.0127456
0.0127456
0.0127456
0.0127456
0.0127456
0.0127456
0.0127456
0.0127456
0.0127456
0.0127456
0.0127456
0.0127456
0.0127456
0.0127456
0.0127456
)
;
    }
    rightWall
    {
        type            kqRWallFunction;
        value           nonuniform List<scalar> 
50
(
0.00214313
0.00404345
0.00540181
0.0064971
0.00739214
0.00814005
0.00877634
0.00932466
0.0100709
0.010834
0.0114157
0.0118608
0.0122007
0.0124587
0.0126529
0.0127977
0.0129044
0.0129821
0.013038
0.0130778
0.0131057
0.0131251
0.0131385
0.0131475
0.0131536
0.0131577
0.0131604
0.0131622
0.0131633
0.0131641
0.0131646
0.0131649
0.0131651
0.0131652
0.0131652
0.0131653
0.0131653
0.0131653
0.0131654
0.0131654
0.0131654
0.0131654
0.0131654
0.0131654
0.0131654
0.0131654
0.0131654
0.0131654
0.0131654
0.0131654
)
;
    }
    lowerWall
    {
        type            kqRWallFunction;
        value           nonuniform List<scalar> 
62
(
0.00196943
0.00408518
0.00565406
0.00675767
0.00757862
0.00820451
0.00868583
0.00905524
0.00933534
0.00954232
0.00968767
0.00977901
0.00982033
0.00981178
0.00974901
0.00962179
0.00941144
0.00908601
0.00859137
0.00783512
0.00665864
0.00478328
0.00163556
0.00163556
0.00419889
0.00595993
0.00747297
0.00889649
0.0104731
0.0128445
0.0182519
0.0208541
0.0176468
0.0176195
0.0207136
0.00173731
0.00443353
0.00622557
0.00777763
0.00925387
0.0109216
0.0134613
0.0189978
0.00173731
0.0050693
0.00697272
0.00811261
0.00880886
0.00923549
0.00948742
0.00961605
0.00964833
0.00959638
0.00946226
0.00924011
0.00891656
0.00846969
0.00786569
0.00705092
0.00593181
0.00431401
0.00214313
)
;
    }
    atmosphere
    {
        type            inletOutlet;
        inletValue      uniform 0.1;
        value           nonuniform List<scalar> 
46
(
0.0127456
0.028559
0.0363578
0.0416901
0.0457561
0.0489921
0.0516196
0.053774
0.0555479
0.0570099
0.0582129
0.0591994
0.0600043
0.0606569
0.0611817
0.0615998
0.061929
0.0621844
0.0623785
0.0625217
0.0626219
0.0626851
0.0627153
0.0627145
0.062707
0.0626923
0.0626703
0.0626207
0.0625054
0.062336
0.062101
0.0617854
0.0613707
0.0608343
0.0601491
0.0592828
0.0581963
0.0568421
0.055161
0.0530768
0.0504874
0.0472451
0.0431132
0.0376343
0.0295708
0.0131654
)
;
    }
    defaultFaces
    {
        type            empty;
    }
}


// ************************************************************************* //
