/*--------------------------------*- C++ -*----------------------------------*\
| =========                 |                                                 |
| \\      /  F ield         | OpenFOAM: The Open Source CFD Toolbox           |
|  \\    /   O peration     | Version:  2406                                  |
|   \\  /    A nd           | Website:  www.openfoam.com                      |
|    \\/     M anipulation  |                                                 |
\*---------------------------------------------------------------------------*/
FoamFile
{
    version     2.0;
    format      ascii;
    arch        "LSB;label=32;scalar=64";
    class       volScalarField;
    location    "0.6";
    object      k;
}
// * * * * * * * * * * * * * * * * * * * * * * * * * * * * * * * * * * * * * //

dimensions      [0 2 -2 0 0 0 0];

internalField   nonuniform List<scalar> 
2268
(
0.1
0.1
0.1
0.1
0.1
0.1
0.1
0.1
0.1
0.1
0.1
0.1
0.1
0.00748008
0.00382827
0.00501927
0.00574686
0.00612075
0.00619164
0.00593735
0.0052654
0.0039689
0.00151309
0.1
0.1
0.1
0.1
0.1
0.1
0.1
0.1
0.1
0.1
0.1
0.1
0.1
0.00737451
0.00886672
0.0114102
0.0129528
0.0137615
0.0139175
0.01337
0.0119271
0.00917603
0.00369665
0.1
0.1
0.1
0.1
0.1
0.1
0.1
0.1
0.1
0.1
0.1
0.1
0.1
0.00877681
0.0117548
0.0148433
0.0167385
0.0177527
0.0179684
0.0173204
0.0155738
0.0121962
0.00507688
0.1
0.1
0.1
0.1
0.1
0.1
0.1
0.1
0.1
0.1
0.1
0.1
0.1
0.0101766
0.0139622
0.0173978
0.0195191
0.0206778
0.0209588
0.0202904
0.0184082
0.0146535
0.00622901
0.1
0.1
0.1
0.1
0.1
0.1
0.1
0.1
0.1
0.1
0.1
0.1
0.1
0.0114519
0.0157963
0.019514
0.0218171
0.0231013
0.0234626
0.0228317
0.0209249
0.0169471
0.007319
0.1
0.1
0.1
0.1
0.1
0.1
0.1
0.1
0.1
0.1
0.1
0.1
0.1
0.012626
0.0173857
0.0213489
0.0238132
0.0252175
0.0256769
0.0251349
0.0233079
0.0192888
0.00856977
0.1
0.1
0.1
0.1
0.1
0.1
0.1
0.1
0.1
0.1
0.1
0.1
0.1
0.013727
0.0188022
0.0229799
0.025591
0.0271141
0.0276886
0.0272815
0.0256424
0.0218548
0.0105352
0.1
0.1
0.1
0.1
0.1
0.1
0.1
0.1
0.1
0.1
0.1
0.1
0.1
0.0147759
0.0200877
0.0244487
0.0271931
0.0288339
0.0295365
0.0293012
0.0279471
0.0247638
0.0150459
0.00165494
0.00452654
0.00611043
0.00705959
0.00764623
0.00801179
0.00823238
0.00834968
0.00838604
0.00835159
0.00824757
0.008068
0.00780037
0.00742535
0.00691471
0.0062249
0.00527908
0.00391013
0.0020726
0.00411235
0.0104753
0.013845
0.0158854
0.0171517
0.0179414
0.0184173
0.0186693
0.018746
0.018669
0.018441
0.0180488
0.0174647
0.0166458
0.0155287
0.0140168
0.0119445
0.00897122
0.00381152
0.00567303
0.0139552
0.0181034
0.0205995
0.0221522
0.023123
0.0237082
0.0240163
0.0241055
0.0240018
0.023708
0.0232073
0.0224653
0.021428
0.0200159
0.0181081
0.0155019
0.0117759
0.00500357
0.00701501
0.0168075
0.0214182
0.0241456
0.0258429
0.0269076
0.0275499
0.0278853
0.0279755
0.0278479
0.0275043
0.0269256
0.0260725
0.0248842
0.0232704
0.0210947
0.0181292
0.0138855
0.00595312
0.00831195
0.0194709
0.0243498
0.0271711
0.0289281
0.0300354
0.0307042
0.0310497
0.0311331
0.030981
0.0305938
0.02995
0.0290069
0.0276983
0.025926
0.0235414
0.0202949
0.0156322
0.00673535
0.00981543
0.022152
0.0270892
0.0298885
0.0316406
0.0327528
0.0334257
0.0337684
0.0338387
0.0336608
0.033233
0.0325317
0.0315112
0.030101
0.0281967
0.0256395
0.0221595
0.0171378
0.00740651
0.0121341
0.0249996
0.0297133
0.032384
0.0340797
0.0351675
0.0358271
0.0361568
0.0362088
0.0360036
0.0355372
0.0347836
0.0336947
0.0321965
0.0301793
0.0274758
0.0237976
0.0184638
0.0080029
0.0171086
0.0280865
0.0322331
0.0346896
0.0362908
0.0373324
0.0379653
0.038274
0.0383033
0.0380697
0.0375661
0.0367644
0.0356141
0.0340383
0.0319233
0.0290946
0.0252475
0.0196443
0.00854691
0.1
0.1
0.1
0.1
0.1
0.1
0.1
0.1
0.1
0.1
0.1
0.1
0.1
0.0163519
0.0219228
0.0265212
0.0294534
0.0312743
0.0321894
0.032256
0.0314238
0.0294754
0.0256862
0.1
0.1
0.1
0.1
0.1
0.1
0.1
0.1
0.1
0.1
0.1
0.1
0.1
0.0181938
0.0239164
0.0287655
0.0319251
0.0339854
0.0351975
0.0356819
0.0355048
0.0347159
0.0333987
0.1
0.1
0.1
0.1
0.1
0.1
0.1
0.1
0.1
0.1
0.1
0.1
0.1
0.0197933
0.0255285
0.0305817
0.0339498
0.036236
0.0377227
0.0385697
0.0388975
0.0388373
0.0385875
0.1
0.1
0.1
0.1
0.1
0.1
0.1
0.1
0.1
0.1
0.1
0.1
0.1
0.0212036
0.026857
0.0320712
0.0356231
0.0381107
0.0398335
0.0409704
0.04166
0.0420421
0.0422884
0.1
0.1
0.1
0.1
0.1
0.1
0.1
0.1
0.1
0.1
0.1
0.1
0.1
0.0224553
0.0279643
0.0332999
0.0370069
0.0396658
0.0415824
0.0429426
0.043887
0.0445454
0.0450556
0.1
0.1
0.1
0.1
0.1
0.1
0.1
0.1
0.1
0.1
0.1
0.1
0.1
0.0235665
0.0288912
0.0343138
0.0381473
0.040947
0.0430183
0.0445478
0.0456728
0.0465115
0.0471789
0.1
0.1
0.1
0.1
0.1
0.1
0.1
0.1
0.1
0.1
0.1
0.1
0.1
0.0245499
0.0296669
0.0351479
0.0390818
0.0419945
0.0441873
0.0458447
0.0470993
0.0480608
0.0488296
0.1
0.1
0.1
0.1
0.1
0.1
0.1
0.1
0.1
0.1
0.1
0.1
0.1
0.0254164
0.030315
0.0358316
0.0398433
0.0428452
0.0451324
0.0468862
0.0482352
0.0492827
0.0501205
0.1
0.1
0.1
0.1
0.1
0.1
0.1
0.1
0.1
0.1
0.1
0.1
0.1
0.0261765
0.0308565
0.0363914
0.0404624
0.0435336
0.0458934
0.0477197
0.0491376
0.0502463
0.0511323
0.1
0.1
0.1
0.1
0.1
0.1
0.1
0.1
0.1
0.1
0.1
0.1
0.1
0.0268416
0.0313115
0.0368528
0.0409683
0.0440925
0.0465071
0.0483869
0.0498547
0.0510067
0.0519263
0.1
0.1
0.1
0.1
0.1
0.1
0.1
0.1
0.1
0.1
0.1
0.1
0.1
0.0274239
0.0317007
0.0372413
0.0413896
0.0445532
0.0470078
0.0489257
0.0504281
0.0516094
0.0525511
0.1
0.1
0.1
0.1
0.1
0.1
0.1
0.1
0.1
0.1
0.1
0.1
0.1
0.0279378
0.0320466
0.0375837
0.0417558
0.0449469
0.047428
0.0493702
0.0508939
0.0520925
0.0530466
0.1
0.1
0.1
0.1
0.1
0.1
0.1
0.1
0.1
0.1
0.1
0.1
0.1
0.0284013
0.0323762
0.0379108
0.0420986
0.0453053
0.0477994
0.0497522
0.0512842
0.0524888
0.053446
0.1
0.1
0.1
0.1
0.1
0.1
0.1
0.1
0.1
0.1
0.1
0.1
0.1
0.0288402
0.0327255
0.0382603
0.042454
0.0456615
0.0481527
0.050101
0.0516277
0.0528266
0.0537774
0.1
0.1
0.1
0.1
0.1
0.1
0.1
0.1
0.1
0.1
0.1
0.1
0.1
0.0292966
0.0331481
0.0386822
0.0428644
0.0460512
0.0485187
0.0504438
0.0519497
0.05313
0.0540643
0.1
0.1
0.1
0.1
0.1
0.1
0.1
0.1
0.1
0.1
0.1
0.1
0.1
0.0298492
0.0337315
0.039246
0.0433809
0.046512
0.0489264
0.0508051
0.0522716
0.0534191
0.0543258
0.1
0.1
0.1
0.1
0.1
0.1
0.1
0.1
0.1
0.1
0.1
0.1
0.1
0.0306672
0.0346257
0.0400462
0.0440602
0.04708
0.0494012
0.0512045
0.0526106
0.0537095
0.0545767
0.1
0.1
0.1
0.1
0.1
0.1
0.1
0.1
0.1
0.1
0.1
0.1
0.1
0.0321529
0.0360753
0.0411908
0.0449511
0.0477805
0.0499595
0.0516549
0.0529779
0.0540119
0.0548279
0.1
0.1
0.1
0.1
0.1
0.1
0.1
0.1
0.1
0.1
0.1
0.1
0.1
0.035059
0.0383174
0.0427262
0.0460608
0.0486152
0.0506033
0.0521596
0.0533782
0.0543322
0.0550858
0.1
0.1
0.1
0.1
0.1
0.1
0.1
0.1
0.1
0.1
0.1
0.1
0.0374223
0.0363967
0.0408217
0.0444801
0.0473233
0.0495552
0.0513189
0.0527126
0.0538097
0.0546712
0.0553532
0.018843
0.0215244
0.0238554
0.0255146
0.0266989
0.0275667
0.0282367
0.0288159
0.0294317
0.0302917
0.0318308
0.0348278
0.0363
0.0399888
0.0434528
0.0463291
0.0486675
0.0505594
0.0520827
0.0533003
0.0542654
0.0550261
0.05563
0.00747669
0.0163795
0.0210607
0.0242641
0.026611
0.0284046
0.0298398
0.0310733
0.0322648
0.0336181
0.0354172
0.0379225
0.0406152
0.0433699
0.0459128
0.0481323
0.050014
0.0515806
0.052866
0.0539056
0.0547353
0.0553916
0.0559142
0.00785097
0.0183488
0.0237487
0.0275065
0.0303239
0.0325189
0.034295
0.0358114
0.0372144
0.038655
0.0402821
0.0421706
0.0441707
0.0461801
0.0480819
0.0497996
0.0512999
0.0525774
0.0536419
0.0545114
0.055209
0.0557621
0.0562037
0.00887717
0.0203637
0.0261942
0.0302637
0.0333539
0.0357894
0.03777
0.0394462
0.0409456
0.0423815
0.0438453
0.0453768
0.046937
0.0484794
0.0499472
0.0512934
0.0524889
0.0535212
0.0543903
0.0551044
0.0556786
0.0561336
0.0564972
0.00967048
0.021983
0.028156
0.0324514
0.0357303
0.0383299
0.0404472
0.0422237
0.0437722
0.0451848
0.0465306
0.0478457
0.0491306
0.0503698
0.0515383
0.0526106
0.0535676
0.0543984
0.0551003
0.0556775
0.0561402
0.0565051
0.0567962
0.0102621
0.0232364
0.0296971
0.0341777
0.0376038
0.0403271
0.0425442
0.0443905
0.045969
0.0473608
0.048626
0.0498025
0.0509066
0.0519408
0.0528982
0.0537679
0.0545403
0.0552086
0.0557711
0.0562308
0.0565959
0.0568803
0.0571057
0.0107053
0.0241985
0.0309012
0.0355413
0.039092
0.0419173
0.0442147
0.0461158
0.0477183
0.0490974
0.0503096
0.0513946
0.0523767
0.0532687
0.0540747
0.054794
0.0554242
0.0559633
0.0564117
0.0567728
0.0570541
0.0572685
0.0574359
0.0110395
0.0249399
0.0318474
0.0366289
0.0402913
0.0432071
0.0455752
0.0475252
0.0491517
0.050527
0.0517063
0.0527308
0.0536295
0.0544214
0.0551179
0.0557251
0.0562464
0.0566838
0.0570401
0.05732
0.0575311
0.0576858
0.0578032
0.0112958
0.0255225
0.0326081
0.0375198
0.0412874
0.044289
0.0467243
0.048722
0.0503751
0.0517547
0.0529159
0.0539013
0.0547428
0.0554639
0.0560808
0.0566045
0.0570426
0.0574006
0.0576836
0.0578976
0.0580508
0.0581556
0.0582309
0.0115012
0.0260038
0.0332536
0.0382918
0.0421639
0.0452514
0.0477543
0.0498009
0.0514839
0.0528742
0.0540278
0.0549886
0.0557911
0.0564618
0.0570205
0.0574819
0.0578567
0.0581532
0.0583785
0.0585399
0.0586463
0.0587104
0.0587508
0.011682
0.0264421
0.0338571
0.0390273
0.0430095
0.0461868
0.0487595
0.0508567
0.0525718
0.0539769
0.0551292
0.0560747
0.05685
0.0574842
0.0579998
0.0584143
0.0587409
0.05899
0.0591704
0.0592905
0.0593599
0.0593915
0.059404
0.011867
0.0269033
0.0345035
0.0398221
0.0439256
0.0471988
0.0498437
0.0519915
0.053738
0.0551579
0.0563109
0.0572451
0.0579996
0.0586057
0.0590882
0.0594665
0.059756
0.0599686
0.0601143
0.0602026
0.0602435
0.0602502
0.0602411
0.0120917
0.0274707
0.0352991
0.0407944
0.0450349
0.0484098
0.0511257
0.0533191
0.0550909
0.05652
0.0576697
0.0585913
0.059326
0.0599074
0.060362
0.0607109
0.0609709
0.061155
0.0612743
0.0613387
0.0613586
0.0613471
0.0613225
0.0124048
0.0282564
0.0363846
0.0420959
0.0464895
0.0499658
0.0527429
0.0549675
0.0567493
0.0581739
0.0593095
0.0602107
0.0609213
0.0614766
0.0619044
0.0622271
0.0624621
0.0626235
0.0627225
0.0627695
0.062775
0.0627518
0.0627174
0.0128759
0.0294175
0.0379494
0.0439222
0.0484762
0.0520387
0.0548505
0.0570768
0.0588407
0.0602369
0.0613391
0.0622056
0.0628822
0.0634053
0.0638038
0.0641001
0.0643123
0.0644543
0.0645377
0.0645728
0.0645697
0.0645406
0.0645018
0.0136054
0.0311743
0.0402464
0.046519
0.0512164
0.0548212
0.0576155
0.0597934
0.0614957
0.0628277
0.0638688
0.0646798
0.0653076
0.0657889
0.0661521
0.0664195
0.0666086
0.066733
0.0668041
0.0668314
0.0668247
0.066795
0.066757
0.0147383
0.0338355
0.0436076
0.0501843
0.0549573
0.0585142
0.0612039
0.0632586
0.0648395
0.066061
0.0670061
0.0677362
0.0682972
0.0687243
0.0690444
0.0692785
0.0694428
0.06955
0.0696105
0.0696333
0.069627
0.0696013
0.0695685
0.0164876
0.0378489
0.0484683
0.0552617
0.0599518
0.0633055
0.0657627
0.0675966
0.0689838
0.0700424
0.0708538
0.071476
0.0719513
0.0723113
0.0725799
0.0727756
0.0729126
0.073002
0.0730529
0.0730731
0.0730699
0.0730514
0.0730271
0.0192076
0.0439292
0.055405
0.0621176
0.0664203
0.0693378
0.0714001
0.0729032
0.0740225
0.0748676
0.0755107
0.0760012
0.0763745
0.0766563
0.0768662
0.077019
0.0771261
0.0771966
0.0772379
0.0772562
0.0772574
0.0772476
0.0772336
0.0236804
0.0533885
0.0651484
0.0710532
0.0744766
0.0766668
0.0781664
0.0792405
0.0800325
0.0806273
0.0810783
0.0814217
0.0816826
0.0818796
0.0820264
0.0821334
0.082209
0.0822596
0.0822905
0.0823064
0.0823115
0.08231
0.0823059
0.0328734
0.0688059
0.0783005
0.0820394
0.0840006
0.0852176
0.0860473
0.0866437
0.0870855
0.0874186
0.0876721
0.0878655
0.0880129
0.0881245
0.0882079
0.0882691
0.0883128
0.0883427
0.0883622
0.088374
0.0883806
0.0883845
0.0883876
0.0807053
0.0924691
0.0936783
0.094176
0.0945231
0.0947881
0.0949921
0.0951492
0.0952702
0.0953637
0.0954359
0.0954917
0.0955345
0.0955672
0.0955918
0.0956101
0.0956235
0.0956331
0.0956399
0.0956449
0.095649
0.0956531
0.0956575
0.0175339
0.0150336
0.0152259
0.01826
0.0322591
0.0319256
0.0322331
0.0331886
0.0385294
0.0386348
0.0389429
0.0394503
0.0425372
0.0427607
0.0430667
0.0434533
0.0454359
0.0457069
0.0460146
0.0463583
0.047631
0.0479283
0.0482396
0.0485647
0.049327
0.0496414
0.0499568
0.0502733
0.0506487
0.0509752
0.0512946
0.051607
0.0516821
0.0520175
0.0523402
0.0526506
0.0524911
0.0528326
0.0531578
0.0534671
0.0531254
0.0534707
0.0537971
0.0541053
0.0536254
0.0539721
0.0542983
0.0546047
0.0540245
0.0543701
0.0546942
0.0549976
0.0543504
0.054692
0.0550119
0.0553106
0.054626
0.0549607
0.0552737
0.0555658
0.0548702
0.0551944
0.0554977
0.0557809
0.0550973
0.0554076
0.0556982
0.0559698
0.0553182
0.0556109
0.0558857
0.0561432
0.0555398
0.0558115
0.0560677
0.0563088
0.0557658
0.0560139
0.056249
0.0564715
0.0559976
0.0562199
0.0564322
0.0566346
0.0562349
0.0564303
0.0566188
0.0568003
0.0564773
0.0566457
0.0568102
0.0569707
0.0567252
0.0568673
0.0570084
0.0571484
0.0569812
0.0570986
0.0572177
0.0573383
0.0572515
0.0573462
0.0574451
0.0575478
0.0575468
0.0576213
0.0577021
0.0577888
0.0578837
0.0579405
0.0580054
0.0580781
0.0582856
0.0583272
0.0583786
0.0584393
0.058784
0.0588131
0.0588531
0.0589037
0.0594197
0.0594385
0.0594692
0.0595113
0.0602432
0.0602538
0.0602769
0.0603121
0.0613146
0.061319
0.061336
0.0613653
0.0627027
0.0627027
0.0627149
0.0627392
0.0644836
0.0644807
0.0644892
0.0645089
0.0667383
0.0667339
0.0667395
0.066755
0.0695518
0.0695472
0.0695506
0.0695618
0.0730144
0.0730106
0.0730123
0.0730195
0.0772262
0.0772237
0.0772243
0.0772278
0.0823037
0.0823029
0.0823028
0.0823032
0.0883895
0.0883901
0.0883897
0.0883882
0.0956604
0.0956614
0.0956612
0.0956596
0.0279418
0.0328906
0.0359397
0.0380022
0.0394206
0.0403668
0.0409427
0.0412091
0.0411982
0.0409188
0.0403591
0.0394875
0.0382501
0.0365666
0.0343181
0.0313212
0.0272495
0.0212867
0.00933084
0.0354297
0.0380806
0.0401553
0.0417286
0.0428773
0.0436646
0.0441383
0.0443299
0.0442542
0.0439096
0.0432775
0.0423213
0.0409835
0.0391799
0.0367869
0.0336121
0.0293061
0.022969
0.0101255
0.0405226
0.0421606
0.0436226
0.0448166
0.0457245
0.0463542
0.0467191
0.0468287
0.0466837
0.0462727
0.045571
0.0445374
0.0431109
0.0412039
0.0386887
0.0353654
0.0308656
0.0242261
0.0107038
0.0442021
0.0453636
0.0464485
0.0473661
0.0480763
0.0485643
0.0488246
0.0488523
0.0486374
0.0481612
0.0473932
0.0462882
0.0447821
0.0427841
0.040163
0.0367124
0.0320492
0.0251642
0.0111266
0.0469789
0.047891
0.0487393
0.0494595
0.050014
0.0503811
0.0505466
0.0504969
0.050215
0.0496764
0.0488461
0.0476755
0.0460976
0.044019
0.0413052
0.037745
0.0329443
0.025862
0.0114357
0.0491238
0.0498937
0.0505891
0.0511685
0.0516024
0.0518695
0.0519521
0.0518323
0.0514882
0.0508914
0.0500036
0.0487732
0.0471308
0.0449809
0.0421863
0.0385322
0.033617
0.0263777
0.0116604
0.0507994
0.0514829
0.0520767
0.052555
0.0528963
0.053082
0.053094
0.0529122
0.052512
0.0518623
0.0509221
0.0496379
0.0479381
0.0457256
0.0428613
0.0391277
0.0341184
0.0267556
0.0118223
0.0521143
0.0527429
0.0532673
0.0536721
0.0539424
0.0540627
0.0540155
0.0537801
0.0533304
0.0526334
0.0516465
0.0503145
0.0485645
0.0462977
0.043374
0.039574
0.0344884
0.0270296
0.0119376
0.0531466
0.0537388
0.0542146
0.0545655
0.0547813
0.0548493
0.0547531
0.054472
0.0539794
0.0532411
0.0522133
0.0508396
0.0490461
0.0467331
0.0437595
0.039905
0.0347584
0.0272259
0.0120187
0.0539556
0.0545226
0.0549636
0.0552743
0.0554481
0.0554743
0.055338
0.0550187
0.0544895
0.0537156
0.0526526
0.0512432
0.0494128
0.047061
0.0440462
0.0401476
0.0349532
0.0273649
0.012075
0.0545881
0.0551366
0.0555518
0.0558321
0.0559732
0.0559662
0.0557973
0.0554463
0.0548864
0.0540825
0.0529897
0.0515502
0.0496889
0.0473052
0.0442569
0.0403234
0.0350919
0.027462
0.0121135
0.0550819
0.0556157
0.0560108
0.0562675
0.056383
0.0563496
0.0561542
0.0557773
0.055192
0.0543631
0.0532456
0.0517812
0.0498946
0.0474849
0.0444101
0.0404493
0.0351895
0.027529
0.0121395
0.0554684
0.055989
0.0563676
0.0566053
0.0567002
0.0566456
0.0564289
0.0560308
0.0554247
0.0545754
0.0534376
0.051953
0.050046
0.0476158
0.0445201
0.0405383
0.0352574
0.0275746
0.0121569
0.0557732
0.0562806
0.0566444
0.0568661
0.0569441
0.0568722
0.0566382
0.0562231
0.0556002
0.0547344
0.0535802
0.0520794
0.0501563
0.0477099
0.0445982
0.0406005
0.035304
0.0276054
0.0121683
0.0560176
0.0565105
0.0568601
0.0570674
0.0571311
0.0570449
0.0567967
0.0563677
0.0557313
0.0548522
0.0536851
0.0521715
0.0502358
0.047777
0.0446531
0.0406436
0.0353357
0.027626
0.0121758
0.0562188
0.0566952
0.05703
0.0572238
0.0572746
0.0571762
0.0569163
0.056476
0.0558286
0.054939
0.0537617
0.0522381
0.0502926
0.0478243
0.0446913
0.0406731
0.0353571
0.0276395
0.0121807
0.0563904
0.0568475
0.0571666
0.0573469
0.0573858
0.0572766
0.0570067
0.0565571
0.0559009
0.0550029
0.0538174
0.0522861
0.0503331
0.0478577
0.0447179
0.0406933
0.0353715
0.0276484
0.0121838
0.0565429
0.056978
0.0572798
0.0574463
0.0574737
0.0573546
0.057076
0.0566184
0.0559549
0.0550501
0.0538583
0.0523208
0.0503621
0.0478812
0.0447363
0.0407072
0.0353811
0.0276543
0.0121858
0.0566842
0.0570943
0.0573774
0.0575295
0.0575455
0.0574171
0.0571305
0.0566661
0.0559965
0.0550861
0.053889
0.0523467
0.0503834
0.0478983
0.0447496
0.0407169
0.0353878
0.0276583
0.0121871
0.0568198
0.0572024
0.0574655
0.0576026
0.0576071
0.0574697
0.0571758
0.0567052
0.0560302
0.055115
0.0539135
0.0523672
0.0504001
0.0479115
0.0447596
0.0407242
0.0353927
0.0276611
0.0121881
0.0569537
0.057307
0.057549
0.0576706
0.0576636
0.0575173
0.0572165
0.0567401
0.0560602
0.0551406
0.0539352
0.0523853
0.0504148
0.0479231
0.0447684
0.0407304
0.0353968
0.0276635
0.0121888
0.057089
0.057412
0.0576323
0.0577382
0.0577197
0.0575647
0.057257
0.0567751
0.0560905
0.0551668
0.0539575
0.052404
0.0504301
0.0479352
0.0447775
0.0407369
0.0354011
0.0276659
0.0121895
0.0572287
0.0575213
0.0577198
0.0578101
0.0577802
0.0576166
0.0573023
0.0568149
0.0561256
0.0551975
0.0539841
0.0524266
0.0504489
0.0479502
0.044789
0.0407452
0.0354065
0.0276689
0.0121905
0.0573766
0.0576394
0.0578168
0.0578919
0.0578508
0.0576788
0.0573578
0.0568649
0.0561705
0.0552377
0.0540196
0.0524573
0.0504748
0.0479713
0.0448053
0.0407571
0.0354145
0.0276735
0.0121919
0.0575382
0.0577728
0.0579301
0.0579907
0.0579389
0.0577586
0.057431
0.0569322
0.0562323
0.055294
0.0540703
0.0525019
0.050513
0.0480029
0.0448303
0.0407757
0.0354271
0.0276808
0.0121942
0.0577217
0.0579302
0.0580689
0.0581159
0.058054
0.0578658
0.0575314
0.0570264
0.0563204
0.0553756
0.0541447
0.0525685
0.0505709
0.0480515
0.0448694
0.0408052
0.0354475
0.0276928
0.0121981
0.0579393
0.0581243
0.0582461
0.0582808
0.0582094
0.0580136
0.0576724
0.0571607
0.0564478
0.0554951
0.0542553
0.0526688
0.0506595
0.0481272
0.0449311
0.0408526
0.0354809
0.0277129
0.0122047
0.0582081
0.0583725
0.0584794
0.0585029
0.0584229
0.0582197
0.0578717
0.0573531
0.0566323
0.0556704
0.0544196
0.0528198
0.050795
0.0482446
0.0450286
0.0409289
0.0355357
0.0277464
0.0122159
0.0585516
0.0586983
0.0587921
0.0588059
0.0587181
0.0585081
0.0581534
0.0576276
0.0568983
0.055926
0.054662
0.0530458
0.0510007
0.0484261
0.045182
0.0410513
0.0356253
0.0278024
0.012235
0.0590011
0.0591325
0.0592151
0.0592204
0.0591257
0.0589096
0.0585489
0.0580162
0.0572784
0.0562951
0.0550164
0.0533808
0.0513106
0.0487044
0.045422
0.0412467
0.0357715
0.0278957
0.0122672
0.0595962
0.0597145
0.0597875
0.0597855
0.059685
0.059464
0.0590984
0.0585601
0.057815
0.0568214
0.055528
0.0538715
0.0517723
0.049127
0.0457942
0.0415568
0.0360091
0.028051
0.012322
0.0603863
0.0604932
0.0605575
0.0605492
0.0604442
0.0602199
0.0598517
0.0593106
0.0585614
0.0575609
0.0562558
0.0545801
0.0524507
0.0497609
0.0463654
0.0420449
0.0363931
0.0283087
0.0124149
0.0614302
0.0615263
0.0615825
0.0615687
0.0614607
0.0612357
0.0608685
0.0603296
0.0595826
0.0585825
0.0572735
0.0555858
0.0534314
0.0506971
0.0472302
0.0428045
0.0370084
0.028734
0.0125721
0.0627954
0.0628805
0.0629285
0.0629098
0.0628007
0.0625784
0.0622177
0.0616886
0.0609538
0.0599667
0.0586687
0.0569854
0.0548216
0.052054
0.0485168
0.0439683
0.0379817
0.0294294
0.0128368
0.0645565
0.0646297
0.0646686
0.0646455
0.0645375
0.0643224
0.0639755
0.0634668
0.0627587
0.0618037
0.0605403
0.0588894
0.0567472
0.0539761
0.0503892
0.0457159
0.0394942
0.0305497
0.0132775
0.0667935
0.066853
0.066882
0.0668549
0.0667506
0.0665482
0.066224
0.0657489
0.0650863
0.0641883
0.0629926
0.0614158
0.0593455
0.0566269
0.053043
0.048275
0.0417919
0.0323182
0.0139986
0.0695907
0.069635
0.069653
0.0696227
0.0695252
0.0693416
0.06905
0.0686235
0.0680276
0.0672165
0.0661291
0.0646808
0.0627532
0.060175
0.0566929
0.0519174
0.0451948
0.035047
0.0151503
0.0730385
0.0730666
0.0730733
0.073041
0.0729537
0.072795
0.072546
0.0721831
0.0716755
0.0709824
0.0700471
0.0687897
0.0670922
0.0647748
0.0615513
0.0569461
0.0501123
0.0391831
0.016949
0.0772371
0.0772495
0.0772461
0.0772138
0.0771403
0.0770122
0.0768144
0.0765277
0.0761272
0.0755792
0.0748367
0.0738307
0.0724559
0.0705415
0.067793
0.0636655
0.0570655
0.0454323
0.0197567
0.0823043
0.0823037
0.082293
0.0822639
0.0822077
0.0821147
0.081974
0.0817718
0.0814904
0.0811057
0.0805839
0.0798747
0.0788991
0.077523
0.0754959
0.0722941
0.0666623
0.0550465
0.024485
0.088384
0.0883757
0.0883628
0.0883411
0.0883055
0.0882501
0.0881686
0.0880529
0.0878931
0.0876757
0.0873819
0.0869845
0.0864406
0.0856777
0.0845559
0.0827505
0.0792958
0.0703007
0.0356005
0.0956551
0.0956477
0.0956401
0.0956309
0.0956185
0.0956009
0.0955761
0.0955417
0.0954949
0.0954319
0.0953481
0.0952368
0.0950892
0.0948937
0.0946371
0.0943099
0.0939161
0.0932995
0.0865174
)
;

boundaryField
{
    leftWall
    {
        type            kqRWallFunction;
        value           nonuniform List<scalar> 
50
(
0.1
0.1
0.1
0.1
0.1
0.1
0.1
0.1
0.1
0.1
0.1
0.1
0.1
0.1
0.1
0.1
0.1
0.1
0.1
0.1
0.1
0.1
0.1
0.1
0.1
0.1
0.1
0.1
0.018843
0.00747669
0.00785097
0.00887717
0.00967048
0.0102621
0.0107053
0.0110395
0.0112958
0.0115012
0.011682
0.011867
0.0120917
0.0124048
0.0128759
0.0136054
0.0147383
0.0164876
0.0192076
0.0236804
0.0328734
0.0807053
)
;
    }
    rightWall
    {
        type            kqRWallFunction;
        value           nonuniform List<scalar> 
50
(
0.0020726
0.00381152
0.00500357
0.00595312
0.00673535
0.00740651
0.0080029
0.00854691
0.00933084
0.0101255
0.0107038
0.0111266
0.0114357
0.0116604
0.0118223
0.0119376
0.0120187
0.012075
0.0121135
0.0121395
0.0121569
0.0121683
0.0121758
0.0121807
0.0121838
0.0121858
0.0121871
0.0121881
0.0121888
0.0121895
0.0121905
0.0121919
0.0121942
0.0121981
0.0122047
0.0122159
0.012235
0.0122672
0.012322
0.0124149
0.0125721
0.0128368
0.0132775
0.0139986
0.0151503
0.016949
0.0197567
0.024485
0.0356005
0.0865174
)
;
    }
    lowerWall
    {
        type            kqRWallFunction;
        value           nonuniform List<scalar> 
62
(
0.1
0.1
0.1
0.1
0.1
0.1
0.1
0.1
0.1
0.1
0.1
0.1
0.1
0.00748008
0.00382827
0.00501927
0.00574686
0.00612075
0.00619164
0.00593735
0.0052654
0.0039689
0.00151309
0.00151309
0.00369665
0.00507688
0.00622901
0.007319
0.00856977
0.0105352
0.0150459
0.0175339
0.0150336
0.0152259
0.01826
0.00165494
0.00411235
0.00567303
0.00701501
0.00831195
0.00981543
0.0121341
0.0171086
0.00165494
0.00452654
0.00611043
0.00705959
0.00764623
0.00801179
0.00823238
0.00834968
0.00838604
0.00835159
0.00824757
0.008068
0.00780037
0.00742535
0.00691471
0.0062249
0.00527908
0.00391013
0.0020726
)
;
    }
    atmosphere
    {
        type            inletOutlet;
        inletValue      uniform 0.1;
        value           uniform 0.1;
    }
    defaultFaces
    {
        type            empty;
    }
}


// ************************************************************************* //
