/*--------------------------------*- C++ -*----------------------------------*\
| =========                 |                                                 |
| \\      /  F ield         | OpenFOAM: The Open Source CFD Toolbox           |
|  \\    /   O peration     | Version:  2406                                  |
|   \\  /    A nd           | Website:  www.openfoam.com                      |
|    \\/     M anipulation  |                                                 |
\*---------------------------------------------------------------------------*/
FoamFile
{
    version     2.0;
    format      ascii;
    arch        "LSB;label=32;scalar=64";
    class       volScalarField;
    location    "0.6";
    object      nut;
}
// * * * * * * * * * * * * * * * * * * * * * * * * * * * * * * * * * * * * * //

dimensions      [0 2 -1 0 0 0 0];

internalField   nonuniform List<scalar> 
2268
(
0.000289337
0.000213038
0.000213038
0.000213038
0.000213038
0.000213038
0.000213038
0.000213038
0.000213038
0.000213038
0.000213038
0.000213038
0.000213038
5.76402e-05
3.81412e-05
4.40023e-05
4.72866e-05
4.89215e-05
4.92891e-05
4.83264e-05
4.55399e-05
3.95228e-05
2.42534e-05
0.000450785
0.000254306
0.000232321
0.000225511
0.000222385
0.000220634
0.000219545
0.000218827
0.000218345
0.000218025
0.00021783
0.000217737
0.000217737
4.53504e-05
0.000227257
0.000340776
0.00038851
0.000411392
0.000417556
0.000406705
0.000372066
0.000292906
8.03081e-05
0.000450785
0.000288167
0.000251962
0.000238672
0.000232268
0.000228639
0.000226375
0.000224885
0.000223885
0.000223224
0.000222819
0.000222627
0.000222627
5.75263e-05
0.000342581
0.000566766
0.000672427
0.00072421
0.000739415
0.000717506
0.000643833
0.000476439
9.44271e-05
0.000450785
0.000314823
0.000270613
0.00025196
0.00024245
0.000236938
0.000233468
0.000231176
0.000229635
0.000228616
0.000227993
0.000227696
0.000227696
7.06674e-05
0.000420978
0.000724192
0.000880655
0.000960085
0.000985117
0.000954578
0.000846878
0.000604264
0.000104867
0.000450785
0.000335499
0.000287639
0.000264953
0.00025271
0.000245414
0.000240757
0.00023766
0.00023557
0.000234184
0.000233336
0.000232932
0.000232932
8.32847e-05
0.000482005
0.000844912
0.00104533
0.00115097
0.00118689
0.00115091
0.00101503
0.000707602
0.000113936
0.000450785
0.000351572
0.000302834
0.000277373
0.000262866
0.000253958
0.000248176
0.000244294
0.000241659
0.000239907
0.000238833
0.000238321
0.000238321
9.54325e-05
0.000533664
0.000946057
0.00118628
0.00131768
0.00136619
0.00132855
0.00117047
0.000804338
0.000123586
0.000450785
0.000364209
0.000316232
0.000289058
0.00027278
0.000262475
0.000255662
0.000251036
0.000247873
0.000245763
0.000244464
0.000243845
0.000243845
0.000107286
0.000580117
0.00103758
0.0013161
0.00147396
0.00153741
0.00150264
0.00132985
0.000909872
0.00013741
0.000450785
0.00037429
0.000327979
0.000299934
0.000282353
0.000270886
0.000263158
0.000257843
0.000254182
0.000251726
0.000250211
0.000249486
0.000249486
0.000119004
0.000624041
0.00112616
0.00144374
0.00162975
0.0017111
0.00168469
0.00150892
0.00105083
0.00016467
2.54746e-05
4.26408e-05
4.96503e-05
5.34159e-05
5.5619e-05
5.69525e-05
5.77428e-05
5.81526e-05
5.82628e-05
5.81077e-05
5.76896e-05
5.69852e-05
5.59451e-05
5.44873e-05
5.24788e-05
4.96879e-05
4.56485e-05
3.91632e-05
3.95453e-05
9.46997e-05
0.000335263
0.000428609
0.000476746
0.000504378
0.000521008
0.000530844
0.000535873
0.00053704
0.000534726
0.000528946
0.000519426
0.000505602
0.000486545
0.000460723
0.000425359
0.000374447
0.000290584
9.0178e-05
0.000111758
0.000562845
0.000767508
0.000874338
0.000935636
0.000972525
0.000994337
0.0010054
0.00100772
0.00100212
0.000988629
0.000966713
0.000935266
0.000892487
0.000835411
0.000758568
0.000649839
0.000474352
0.000103733
0.000124725
0.000727335
0.00103231
0.00119398
0.0012869
0.00134283
0.00137583
0.00139241
0.00139556
0.00138647
0.00136523
0.00133105
0.00128241
0.00121679
0.0011301
0.00101473
0.000853757
0.000599995
0.000113487
0.000136158
0.000862483
0.00125744
0.00146813
0.00158914
0.00166192
0.00170477
0.00172602
0.00172951
0.00171676
0.00168786
0.00164184
0.00157676
0.00148955
0.00137518
0.00122428
0.00101616
0.000695032
0.000120997
0.000148333
0.000988542
0.00146701
0.0017206
0.00186576
0.00195303
0.00200423
0.00202922
0.00203249
0.0020158
0.00197922
0.00192157
0.00184057
0.00173262
0.00159185
0.00140735
0.00115525
0.00077336
0.000127134
0.000165297
0.00112302
0.00167927
0.00196818
0.00213321
0.00223256
0.00229064
0.00231841
0.00232084
0.00229984
0.00225539
0.00218612
0.00208939
0.0019611
0.00179453
0.00157725
0.00128245
0.000842661
0.000132382
0.000196598
0.0012956
0.00191103
0.0022237
0.00240382
0.00251286
0.0025764
0.00260601
0.00260696
0.00258119
0.00252859
0.00244752
0.00233499
0.00218633
0.00199393
0.00174371
0.00140581
0.000907833
0.000137015
0.000450785
0.000387195
0.000344345
0.000315956
0.000296959
0.000284001
0.000275003
0.000268693
0.00026429
0.000261311
0.000259464
0.000258579
0.000258579
0.000137408
0.000691979
0.00126774
0.00165064
0.00188522
0.00200012
0.00199654
0.00184639
0.00148545
0.000854141
0.000450785
0.000399213
0.000361271
0.000333994
0.000314484
0.000300479
0.000290379
0.000283101
0.000277923
0.000274374
0.000272153
0.000271085
0.000271085
0.000160178
0.000763225
0.00141339
0.00186942
0.0021659
0.00233367
0.00238288
0.00230688
0.0020897
0.00173228
0.000450785
0.00040801
0.000374622
0.000349177
0.000330022
0.000315683
0.000304997
0.000297099
0.000291376
0.000287401
0.000284892
0.000283678
0.000283678
0.000181118
0.000819421
0.00152574
0.00204217
0.0023955
0.00261789
0.00272646
0.00272866
0.00263155
0.00245906
0.000450785
0.000414731
0.000385376
0.00036202
0.000343727
0.000329558
0.000318698
0.000310491
0.000304442
0.000300187
0.000297479
0.000296162
0.000296162
0.000200539
0.000865589
0.00161665
0.00218407
0.00258847
0.00286243
0.00302698
0.00309615
0.00308401
0.00301307
0.000450785
0.000420036
0.000394195
0.000372954
0.000355792
0.000342127
0.000331401
0.000323138
0.000316953
0.000312553
0.00030973
0.000308351
0.000308351
0.000218563
0.000904164
0.00169164
0.00230228
0.00275144
0.00307134
0.00328454
0.00340717
0.00345374
0.00344091
0.000450785
0.000424322
0.000401533
0.000382318
0.000366406
0.000353446
0.000343072
0.000334946
0.000328782
0.000324352
0.00032149
0.000320086
0.000320086
0.000235212
0.000936541
0.00175371
0.00240075
0.00288828
0.00324759
0.00350142
0.00366594
0.00375422
0.00377825
0.000450785
0.000427844
0.000407701
0.000390372
0.000375735
0.000363591
0.000353709
0.000345859
0.000339835
0.000335467
0.000332627
0.000331228
0.000331228
0.000250476
0.000963654
0.00180484
0.00248217
0.00300194
0.00339421
0.00368124
0.00387848
0.00399741
0.00404698
0.000450785
0.000430772
0.000412923
0.000397316
0.000383921
0.000372638
0.000363329
0.000355846
0.000350047
0.000345809
0.000343039
0.00034167
0.00034167
0.000264352
0.000986262
0.00184664
0.00254883
0.00309521
0.0035145
0.00382824
0.004051
0.00419293
0.00426112
0.000450785
0.000433225
0.000417362
0.000403306
0.000391083
0.000380659
0.00037196
0.000364897
0.000359377
0.000355317
0.00035265
0.000351329
0.000351329
0.000276864
0.00100507
0.00188062
0.00260299
0.00317101
0.0036121
0.00394702
0.00418954
0.0043488
0.00443076
0.000450785
0.000435286
0.000421137
0.000408463
0.000397323
0.000387723
0.000379637
0.000373015
0.000367805
0.000363951
0.000361409
0.000360146
0.000360146
0.000288072
0.00102079
0.00190831
0.00264696
0.00323241
0.00369085
0.00404231
0.00429992
0.00447212
0.00456415
0.000450785
0.000437019
0.000424342
0.000412885
0.000402725
0.000393895
0.000386398
0.000380217
0.000375324
0.000371688
0.000369281
0.000368083
0.000368084
0.000298077
0.00103418
0.00193132
0.00268318
0.00328262
0.00375473
0.00411892
0.00438782
0.00456941
0.00466855
0.000450785
0.000438471
0.000427049
0.000416651
0.000407361
0.000399232
0.000392285
0.000386524
0.000381941
0.000378522
0.000376253
0.000375121
0.000375121
0.000307031
0.00104609
0.00195136
0.00271423
0.00332504
0.00380786
0.00418162
0.00445864
0.0046467
0.00475049
0.000450785
0.000439678
0.000429315
0.000419823
0.000411293
0.000403785
0.000397335
0.000391962
0.000387669
0.000384457
0.000382319
0.000381252
0.000381252
0.000315158
0.00105752
0.00197039
0.00274296
0.00336325
0.00385442
0.00423509
0.00451753
0.00470951
0.00481579
0.000450785
0.000440668
0.000431184
0.000422454
0.000414571
0.000407601
0.000401587
0.000396557
0.000392526
0.000389501
0.000387485
0.000386477
0.000386477
0.000322815
0.00106981
0.00199081
0.00277272
0.00340126
0.00389881
0.00428401
0.00456933
0.00476284
0.00486957
0.000450785
0.000441464
0.000432692
0.000424586
0.000417239
0.000410719
0.000405074
0.000400338
0.000396533
0.000393672
0.000391761
0.000390805
0.000390805
0.000330613
0.00108492
0.00201599
0.00280787
0.00344382
0.00394585
0.00433304
0.00461859
0.00481115
0.00491621
0.000450785
0.000442082
0.000433867
0.000426253
0.000419332
0.000413172
0.000407826
0.00040333
0.00039971
0.000396983
0.000395161
0.000394248
0.000394248
0.000339726
0.00110628
0.00205139
0.00285475
0.00349709
0.00400097
0.00438696
0.00466955
0.00485832
0.0049594
0.000450785
0.000442535
0.00043473
0.000427481
0.000420878
0.000414988
0.000409867
0.000405553
0.000402074
0.000399451
0.000397696
0.000396817
0.000396817
0.000352764
0.00114115
0.0021075
0.00292365
0.00356937
0.00407046
0.00445054
0.00472603
0.00490764
0.00500207
0.000450785
0.000442832
0.000435297
0.00042829
0.000421897
0.000416188
0.000411217
0.000407025
0.000403642
0.000401089
0.00039938
0.000398523
0.000398523
0.000376977
0.00120915
0.00220696
0.00303166
0.00367164
0.00416115
0.0045282
0.00479117
0.00496156
0.00504638
0.000450785
0.000442979
0.000435579
0.000428691
0.000422403
0.000416784
0.000411889
0.000407758
0.000404423
0.000401905
0.000400219
0.000399374
0.000399374
0.000443883
0.0013773
0.00239918
0.00320428
0.00381588
0.00427876
0.00462296
0.00486686
0.00502155
0.00509366
0.000450785
0.000442979
0.000435579
0.000428691
0.000422403
0.000416784
0.000411889
0.000407759
0.000404424
0.000401906
0.00040022
0.000399374
0.000364301
0.000969885
0.00189832
0.00276284
0.00346231
0.00400722
0.00442437
0.00473496
0.00495316
0.00508785
0.00514434
0.000194254
0.000226021
0.000258033
0.000281109
0.000297608
0.00030968
0.000319012
0.000327172
0.000336056
0.000348852
0.000373315
0.000441516
0.000968325
0.00172386
0.00250021
0.0031926
0.0037688
0.00423103
0.00459112
0.00486061
0.00504814
0.00515949
0.00519812
0.000116094
0.000456496
0.000628952
0.000743981
0.000829105
0.000895702
0.000950443
0.000998537
0.00104561
0.00110055
0.00118427
0.00136448
0.00189099
0.00249711
0.00309152
0.00362894
0.00408952
0.0044687
0.00476884
0.00499417
0.00514854
0.0052347
0.00525413
0.000117761
0.000731806
0.00108684
0.00131638
0.00148425
0.00161612
0.00172539
0.00182138
0.00191325
0.00201405
0.0021482
0.00236607
0.00274583
0.00318621
0.00362853
0.00403952
0.00440109
0.00470484
0.00494783
0.00512968
0.00525079
0.00531145
0.00531138
0.00012573
0.000892545
0.00140532
0.00174679
0.00199804
0.00219592
0.00236001
0.00250326
0.00263715
0.00277536
0.00293746
0.00315068
0.00343716
0.00376273
0.0040944
0.00440854
0.00468979
0.00492889
0.00512067
0.00526225
0.00535187
0.00538803
0.00536905
0.000131677
0.000992631
0.00162054
0.00205481
0.00237993
0.0026381
0.00285255
0.00303838
0.00320786
0.00337341
0.00354911
0.00374945
0.00398183
0.00423399
0.00448882
0.00473112
0.00494925
0.00513503
0.00528282
0.00538875
0.00544983
0.00546343
0.00542685
0.000136015
0.0010617
0.00177329
0.00228045
0.00266702
0.00297706
0.00323534
0.00345774
0.00365634
0.00384195
0.00402491
0.00421401
0.00441308
0.00461772
0.0048194
0.005009
0.00517849
0.00532137
0.00543255
0.00550796
0.0055441
0.00553765
0.00548524
0.000139244
0.00111232
0.00188648
0.0024506
0.00288716
0.00324059
0.00353599
0.00378919
0.00401161
0.00421269
0.00440061
0.00458173
0.00475924
0.00493218
0.0050967
0.00524774
0.00538014
0.00548916
0.00557059
0.0056206
0.00563556
0.00561183
0.00554562
0.000141696
0.00115088
0.00197332
0.00258254
0.00305978
0.00344929
0.00377592
0.004055
0.00429722
0.00451097
0.00470319
0.00487928
0.00504254
0.00519387
0.00533214
0.00545496
0.00555935
0.00564205
0.00569978
0.00572913
0.00572657
0.00568833
0.0056104
0.000143614
0.00118144
0.00204254
0.00268851
0.00319952
0.00361942
0.00397256
0.00427368
0.00453275
0.00475741
0.00495391
0.00512729
0.00528119
0.00541767
0.00553732
0.00563954
0.00572294
0.00578548
0.00582466
0.00583757
0.00582084
0.00577072
0.00568311
0.000145199
0.00120717
0.00210107
0.00277852
0.00331874
0.00376507
0.00414133
0.00446165
0.00473545
0.00496986
0.00517077
0.00534318
0.00549109
0.0056174
0.00572384
0.0058111
0.00587892
0.00592621
0.00595114
0.00595121
0.0059233
0.00586372
0.00576839
0.000146645
0.00123103
0.00215535
0.00286198
0.00342916
0.0038997
0.0042969
0.00463447
0.00492144
0.00516471
0.00537006
0.00554263
0.00568679
0.00580612
0.0059032
0.00597963
0.00603598
0.00607188
0.00608605
0.00607635
0.00603987
0.00597305
0.00587187
0.000148166
0.00125623
0.00221228
0.0029488
0.00354296
0.00403706
0.00445408
0.00480751
0.00510635
0.0053575
0.00556696
0.00574012
0.00588184
0.00599622
0.00608654
0.00615504
0.00620296
0.00623046
0.00623668
0.00621978
0.00617706
0.00610507
0.00599993
0.000150025
0.00128657
0.00227977
0.00305008
0.00367344
0.0041918
0.00462815
0.00499621
0.00530537
0.00556299
0.00577555
0.00594895
0.00608854
0.00619898
0.00628406
0.00634656
0.0063882
0.00640955
0.00641007
0.00638817
0.00634133
0.00626625
0.00615916
0.000152567
0.00132666
0.00236714
0.00317851
0.00383532
0.00437954
0.00483477
0.00521573
0.00553289
0.00579463
0.00600832
0.00618056
0.00631733
0.00642381
0.00650423
0.0065618
0.00659857
0.00661541
0.00661204
0.00658709
0.00653819
0.00646218
0.00635544
0.000156242
0.00138195
0.002485
0.00334819
0.00404441
0.00461628
0.00508917
0.00548
0.00580137
0.00606344
0.00627493
0.00644344
0.00657562
0.00667716
0.00675266
0.0068056
0.00683828
0.00685178
0.00684602
0.0068198
0.00677091
0.00669637
0.0065927
0.000161624
0.00145822
0.00264462
0.00357396
0.00431671
0.00491725
0.00540468
0.00580009
0.0061197
0.00637641
0.00658082
0.00674173
0.00686651
0.00696126
0.00703083
0.00707884
0.00710773
0.00711869
0.00711177
0.00708595
0.00703922
0.00696878
0.00687136
0.000169394
0.00156113
0.00285757
0.00387122
0.00466787
0.00529569
0.00579107
0.00618235
0.00649138
0.00673489
0.00692574
0.00707403
0.00718773
0.00727317
0.00733526
0.00737761
0.00740262
0.00741154
0.00740451
0.00738066
0.00733823
0.00727467
0.00718699
0.000180377
0.00169733
0.00313902
0.00425914
0.00511464
0.0057626
0.00625328
0.00662687
0.00691315
0.00713344
0.00730298
0.00743286
0.00753133
0.00760464
0.00765746
0.00769318
0.00771403
0.0077212
0.00771488
0.00769439
0.00765822
0.00760422
0.00752974
0.000195794
0.001882
0.00352117
0.00477131
0.00567991
0.00632768
0.00679071
0.00712657
0.00737446
0.00755998
0.00769992
0.00780556
0.0078848
0.00794329
0.00798516
0.00801331
0.00802965
0.00803521
0.00803019
0.0080141
0.00798576
0.00794346
0.00788505
0.000218313
0.00216812
0.0040912
0.00547793
0.00639941
0.0069991
0.00739563
0.00766653
0.00785804
0.00799717
0.00810002
0.0081766
0.00823349
0.00827522
0.00830494
0.00832487
0.00833643
0.00834041
0.008337
0.00832588
0.00830623
0.00827684
0.00823617
0.000262582
0.00276859
0.00509491
0.00651977
0.00731961
0.0077747
0.00804791
0.00822277
0.00834129
0.00842514
0.0084861
0.00853103
0.00856418
0.00858839
0.00860559
0.00861713
0.00862386
0.00862625
0.00862445
0.00861827
0.00860728
0.00859078
0.00856785
0.000719101
0.00469925
0.00717591
0.00807828
0.00844031
0.00861143
0.00870472
0.00876157
0.00879914
0.00882538
0.00884433
0.00885825
0.0088685
0.00887599
0.00888131
0.0088849
0.00888701
0.0088878
0.00888731
0.00888551
0.00888226
0.00887734
0.00887039
0.000179527
0.000166639
0.000167918
0.000183967
0.00140861
0.00135572
0.00137077
0.00145365
0.00232811
0.00229121
0.00231929
0.00240892
0.00294752
0.00293055
0.0029669
0.00305099
0.00340492
0.00339977
0.0034423
0.00352601
0.00375974
0.00376249
0.0038101
0.00389563
0.00404069
0.00404936
0.00410119
0.00418905
0.00426391
0.00427719
0.00433251
0.00442262
0.00444035
0.00445717
0.0045153
0.00460742
0.0045787
0.00459815
0.00465846
0.00475227
0.00468652
0.00470779
0.0047697
0.00486482
0.00477055
0.00479293
0.00485587
0.00495189
0.00483674
0.00485958
0.00492298
0.00501943
0.00489025
0.00491288
0.00497617
0.00507256
0.00493542
0.00495716
0.00501971
0.00511551
0.0049758
0.00499591
0.00505707
0.00515169
0.0050142
0.00503186
0.00509093
0.00518377
0.00505267
0.00506702
0.00512327
0.0052137
0.00509249
0.00510268
0.00515541
0.00524286
0.00513426
0.00513952
0.00518811
0.00527207
0.00517798
0.00517772
0.00522168
0.00530177
0.00522325
0.00521712
0.00525617
0.00533216
0.00526957
0.00525746
0.00529153
0.00536336
0.00531659
0.00529866
0.00532788
0.00539566
0.00536441
0.00534101
0.00536567
0.00542965
0.00541376
0.0053854
0.00540592
0.00546644
0.00546618
0.00543346
0.00545033
0.0055078
0.00552419
0.00548773
0.00550146
0.00555631
0.00559131
0.00555176
0.00556286
0.00561549
0.00567217
0.00563015
0.00563911
0.00568986
0.00577242
0.00572857
0.0057358
0.00578494
0.00589853
0.0058535
0.00585937
0.00590702
0.00605727
0.00601178
0.00601658
0.0060627
0.00625485
0.00620974
0.00621372
0.00625804
0.00649561
0.00645191
0.00645524
0.00649723
0.00678046
0.0067394
0.00674221
0.00678106
0.00710534
0.00706833
0.00707067
0.00710535
0.00746045
0.00742893
0.00743083
0.0074602
0.00783079
0.00780599
0.00780746
0.00783051
0.00819853
0.00818124
0.00818226
0.00819837
0.00854685
0.00853713
0.00853772
0.00854688
0.00886411
0.00886129
0.00886152
0.00886438
0.000971501
0.00179405
0.00233309
0.00265504
0.00285161
0.00297284
0.00304318
0.00307442
0.00307201
0.00303784
0.00297156
0.00287109
0.00273277
0.00255091
0.00231619
0.00201159
0.00160211
0.00100767
0.000143448
0.0019049
0.00247014
0.00289292
0.00318227
0.00337419
0.00349704
0.00356801
0.00359642
0.00358666
0.00354
0.00345549
0.00333046
0.00316052
0.00293891
0.00265468
0.00228802
0.0017995
0.00110446
0.000149815
0.00267902
0.00307548
0.00340397
0.0036506
0.00382473
0.00393937
0.00400442
0.00402583
0.0040063
0.00394607
0.0038435
0.00369529
0.00349647
0.00323961
0.00291274
0.00249451
0.00194325
0.00117306
0.000154389
0.00327393
0.00358689
0.00385327
0.00406244
0.00421516
0.00431655
0.00437146
0.00438291
0.00435188
0.0042775
0.00415735
0.00398759
0.00376279
0.0034751
0.00311201
0.0026514
0.00205056
0.00122342
0.000157727
0.00373703
0.00401042
0.00423842
0.00441861
0.00455089
0.00463733
0.00467998
0.00467982
0.00463639
0.00454782
0.004411
0.00422159
0.00397383
0.00365964
0.00326629
0.0027713
0.00213152
0.00126098
0.000160182
0.00410454
0.00435859
0.00456289
0.00472154
0.00483604
0.00490781
0.00493766
0.00492535
0.00486941
0.00476718
0.00461496
0.004408
0.00414033
0.00380375
0.00338547
0.00286292
0.00219274
0.0012891
0.000161988
0.00439879
0.00464298
0.00483226
0.00497504
0.00507472
0.00513311
0.00515068
0.00512655
0.00505864
0.00494372
0.00477763
0.00455533
0.0042707
0.0039155
0.00347698
0.00293258
0.00223886
0.00131009
0.000163311
0.00463414
0.00487318
0.00505268
0.00518377
0.00527142
0.00531816
0.00532456
0.00528955
0.00521067
0.00508434
0.00490607
0.00467064
0.00437182
0.00400138
0.00354664
0.00298511
0.00227333
0.00132564
0.000164272
0.00482099
0.00505741
0.00523044
0.00535288
0.00543095
0.00546789
0.00546456
0.00541992
0.00533135
0.00519505
0.00500635
0.00475989
0.00444939
0.00406667
0.00359911
0.00302432
0.00229883
0.00133705
0.000164962
0.00496784
0.00520303
0.00537173
0.00548779
0.00555832
0.00558721
0.00557568
0.0055228
0.00542592
0.00528116
0.00508372
0.00482818
0.00450823
0.00411574
0.00363819
0.00305325
0.00231747
0.0013453
0.000165453
0.00508212
0.00531679
0.00548252
0.00559384
0.00565851
0.00568093
0.00566265
0.00560291
0.00549911
0.00534732
0.00514271
0.0048798
0.00455233
0.00415219
0.00366694
0.00307433
0.00233092
0.0013512
0.000165796
0.00517046
0.00540482
0.0055684
0.00567615
0.00573627
0.00575355
0.00572983
0.0056645
0.00555504
0.00539753
0.00518714
0.00491838
0.004585
0.00417895
0.00368785
0.00308949
0.0023405
0.00135536
0.000166034
0.00523867
0.0054726
0.00563443
0.00573939
0.00579594
0.00580916
0.0057811
0.00571129
0.00559729
0.00543522
0.00522024
0.00494689
0.00460893
0.00419837
0.00370287
0.00310028
0.00234723
0.00135825
0.000166197
0.00529176
0.00552486
0.00568506
0.00578768
0.00584136
0.00585134
0.00581983
0.00574646
0.00562888
0.00546321
0.00524464
0.00496774
0.00462628
0.00421231
0.00371355
0.00310786
0.00235191
0.00136024
0.000166306
0.00533387
0.00556559
0.00572404
0.00582454
0.0058758
0.00588315
0.00584888
0.0057727
0.00565229
0.00548381
0.00526247
0.00498284
0.00463874
0.00422223
0.00372106
0.00311313
0.00235513
0.00136159
0.00016638
0.00536837
0.00559802
0.00575443
0.00585286
0.00590198
0.00590712
0.0058706
0.00579219
0.00566955
0.00549889
0.00527542
0.00499372
0.00464762
0.00422923
0.0037263
0.00311677
0.00235732
0.00136249
0.000166428
0.00539788
0.0056247
0.00577872
0.00587499
0.00592209
0.00592529
0.00588691
0.00580668
0.00568229
0.00550992
0.0052848
0.00500153
0.00465394
0.00423415
0.00372995
0.00311927
0.0023588
0.0013631
0.00016646
0.00542437
0.0056476
0.0057988
0.00589277
0.00593789
0.00593933
0.00589933
0.00581759
0.00569178
0.00551806
0.00529167
0.00500719
0.00465847
0.00423764
0.0037325
0.00312099
0.00235981
0.0013635
0.000166481
0.00544926
0.00566818
0.00581616
0.00590763
0.00595075
0.00595052
0.00590907
0.00582604
0.00569905
0.00552424
0.00529683
0.0050114
0.00466181
0.00424018
0.00373433
0.00312221
0.00236051
0.00136378
0.000166495
0.00547349
0.00568749
0.00583188
0.0059207
0.00596178
0.00595993
0.00591714
0.00583295
0.00570494
0.00552921
0.00530095
0.00501474
0.00466443
0.00424216
0.00373574
0.00312313
0.00236104
0.00136399
0.000166506
0.00549769
0.0057063
0.00584686
0.00593288
0.00597189
0.00596844
0.00592437
0.00583912
0.00571018
0.00553362
0.0053046
0.00501769
0.00466674
0.0042439
0.00373697
0.00312393
0.00236148
0.00136416
0.000166514
0.00552226
0.00572524
0.00586181
0.00594498
0.0059819
0.00597688
0.00593157
0.00584529
0.00571546
0.0055381
0.00530834
0.00502074
0.00466915
0.00424571
0.00373826
0.00312477
0.00236195
0.00136433
0.000166523
0.00554759
0.00574489
0.00587746
0.0059578
0.00599265
0.00598608
0.00593954
0.00585225
0.00572152
0.00554333
0.00531278
0.00502441
0.00467209
0.00424795
0.00373987
0.00312583
0.00236254
0.00136456
0.000166534
0.00557417
0.00576596
0.00589466
0.00597224
0.0060051
0.005997
0.00594925
0.00586091
0.00572923
0.00555012
0.00531865
0.00502936
0.00467611
0.00425109
0.00374215
0.00312735
0.00236341
0.00136489
0.00016655
0.0056028
0.00578941
0.00591448
0.00598948
0.00602043
0.00601086
0.00596189
0.00587245
0.00573971
0.00555952
0.00532693
0.00503646
0.00468199
0.00425573
0.00374561
0.00312969
0.00236476
0.00136542
0.000166576
0.00563471
0.00581661
0.00593838
0.00601101
0.00604019
0.00602921
0.005979
0.00588839
0.00575445
0.00557296
0.00533895
0.00504694
0.00469081
0.00426282
0.00375096
0.00313337
0.00236693
0.00136628
0.000166619
0.00567174
0.00584948
0.00596834
0.00603886
0.00606642
0.00605409
0.00600263
0.00591075
0.00577542
0.00559237
0.00535657
0.00506251
0.00470412
0.0042737
0.00375931
0.00313923
0.00237043
0.0013677
0.000166691
0.00571649
0.00589064
0.00600698
0.00607566
0.00610177
0.00608816
0.00603544
0.0059422
0.00580529
0.00562036
0.00538231
0.0050856
0.00472416
0.00429034
0.00377232
0.00314852
0.0023761
0.00137003
0.000166812
0.00577242
0.00594348
0.00605766
0.00612476
0.00614958
0.00613478
0.00608083
0.00598615
0.00584749
0.00566038
0.0054196
0.00511954
0.0047541
0.00431566
0.00379248
0.0031632
0.00238522
0.00137385
0.000167012
0.00584392
0.00601224
0.00612454
0.00619025
0.00621394
0.00619807
0.00614295
0.00604686
0.00590638
0.00571686
0.00547293
0.00516884
0.00479833
0.00435374
0.00382343
0.0031862
0.00239982
0.00138008
0.000167346
0.00593627
0.00610195
0.00621246
0.00627689
0.00629957
0.00628279
0.00622668
0.00612935
0.00598717
0.00579527
0.00554801
0.00523932
0.00486272
0.00441031
0.00387039
0.00322191
0.00242301
0.00139021
0.0001679
0.00605542
0.00621817
0.00632672
0.0063898
0.00641155
0.00639407
0.00633731
0.00623918
0.00609579
0.00590195
0.00565162
0.00533825
0.00495483
0.00449297
0.0039406
0.0032766
0.00245941
0.0014065
0.000168818
0.00620749
0.00636647
0.00647247
0.00653391
0.00655472
0.00653682
0.00647998
0.00638185
0.00623828
0.00604364
0.00579131
0.00547401
0.0050838
0.00461132
0.00404358
0.00335886
0.00251561
0.00143232
0.000170323
0.0063979
0.0065515
0.00665387
0.00671308
0.00673284
0.00671488
0.00665878
0.00656198
0.00641996
0.0062266
0.00597452
0.00565537
0.00525976
0.00477658
0.00419097
0.00347966
0.00260032
0.00147233
0.00017276
0.00663008
0.00677587
0.00687293
0.00692894
0.00694738
0.0069298
0.00687559
0.00678195
0.00664407
0.00645525
0.00620722
0.00589018
0.00549259
0.00500051
0.00439572
0.00365166
0.00272387
0.00153223
0.00017662
0.006904
0.00703868
0.00712818
0.00717969
0.00719642
0.00717971
0.00712879
0.00704071
0.00691038
0.00673063
0.00649219
0.00618349
0.00579012
0.00529377
0.00467058
0.00388793
0.00289693
0.00161783
0.00018253
0.00721489
0.00733455
0.00741385
0.00745931
0.00747383
0.00745851
0.00741246
0.00733269
0.00721402
0.00704896
0.00682738
0.00653581
0.00615625
0.0056643
0.00502712
0.00420132
0.00312966
0.00173399
0.000191221
0.00755264
0.00765327
0.00771971
0.00775761
0.00776942
0.00775601
0.00771644
0.00764783
0.0075452
0.00740113
0.00720504
0.00694187
0.00658979
0.00611674
0.0054766
0.00460735
0.003435
0.00188572
0.000203549
0.00790266
0.00798094
0.00803239
0.00806152
0.00807027
0.00805926
0.00802759
0.00797273
0.00789027
0.0077734
0.00761196
0.00739038
0.00708399
0.00665288
0.00603356
0.00513309
0.00384085
0.00208462
0.00022088
0.00824835
0.00830247
0.00833784
0.00835766
0.0083633
0.00835513
0.0083324
0.00829317
0.00823398
0.00814941
0.0080309
0.00786444
0.00762571
0.00727065
0.00671885
0.00583203
0.00441767
0.00236508
0.000246826
0.0085748
0.00860507
0.00862472
0.00863558
0.00863843
0.00863342
0.0086201
0.00859724
0.00856272
0.00851313
0.00844288
0.00834225
0.00819286
0.00795705
0.00755294
0.00680003
0.0053444
0.0028379
0.000298435
0.00887269
0.00888164
0.00888742
0.00889055
0.00889128
0.00888962
0.00888544
0.00887832
0.00886761
0.00885223
0.00883036
0.00879878
0.00875094
0.00867173
0.00852037
0.00816555
0.00712885
0.004059
0.00046584
)
;

boundaryField
{
    leftWall
    {
        type            nutkWallFunction;
        blending        stepwise;
        value           nonuniform List<scalar> 
50
(
0
0
0
0
0
0
0
0
0
0
0
0
0
0
0
0
0
0
0
0
0
0
0
0
0
0
0
5.36008e-05
1.91967e-05
8.48459e-06
8.9507e-06
1.01669e-05
1.1053e-05
1.1687e-05
1.21485e-05
1.24892e-05
1.27466e-05
1.29505e-05
1.31282e-05
1.33083e-05
1.35252e-05
1.38235e-05
1.42642e-05
1.4929e-05
1.59223e-05
1.73742e-05
1.9467e-05
2.25697e-05
2.80331e-05
4.76646e-05
)
;
    }
    rightWall
    {
        type            nutkWallFunction;
        blending        stepwise;
        value           nonuniform List<scalar> 
50
(
3.55841e-07
4.51604e-06
6.75211e-06
8.32188e-06
9.51017e-06
1.04682e-05
1.12786e-05
1.19883e-05
1.29669e-05
1.39122e-05
1.45738e-05
1.50447e-05
1.53825e-05
1.56249e-05
1.57978e-05
1.59202e-05
1.60058e-05
1.60651e-05
1.61055e-05
1.61328e-05
1.6151e-05
1.6163e-05
1.61708e-05
1.61759e-05
1.61792e-05
1.61813e-05
1.61827e-05
1.61836e-05
1.61844e-05
1.61852e-05
1.61862e-05
1.61877e-05
1.61901e-05
1.61942e-05
1.62011e-05
1.62128e-05
1.62326e-05
1.62663e-05
1.63233e-05
1.64197e-05
1.65818e-05
1.68521e-05
1.72953e-05
1.80027e-05
1.90909e-05
2.07002e-05
2.30288e-05
2.65589e-05
3.35604e-05
5.55362e-05
)
;
    }
    lowerWall
    {
        type            nutkWallFunction;
        blending        stepwise;
        value           nonuniform List<scalar> 
62
(
0
0
0
0
0
0
0
0
0
0
0
0
2.16739e-05
0
0
0
0
0
0
0
0
0
0
0
2.73951e-06
5.11539e-06
6.82609e-06
8.28422e-06
9.81144e-06
1.19726e-05
1.61845e-05
1.8343e-05
1.63071e-05
1.64702e-05
1.89029e-05
0
5.11441e-06
7.87479e-06
9.91571e-06
1.1685e-05
1.35486e-05
1.61272e-05
2.08382e-05
0
0
0
0
0
0
0
0
0
0
0
0
0
0
0
0
0
0
0
)
;
    }
    atmosphere
    {
        type            calculated;
        value           uniform 0.009;
    }
    defaultFaces
    {
        type            empty;
    }
}


// ************************************************************************* //
