/*--------------------------------*- C++ -*----------------------------------*\
| =========                 |                                                 |
| \\      /  F ield         | OpenFOAM: The Open Source CFD Toolbox           |
|  \\    /   O peration     | Version:  2406                                  |
|   \\  /    A nd           | Website:  www.openfoam.com                      |
|    \\/     M anipulation  |                                                 |
\*---------------------------------------------------------------------------*/
FoamFile
{
    version     2.0;
    format      ascii;
    arch        "LSB;label=32;scalar=64";
    class       volScalarField;
    location    "0.6";
    object      nut;
}
// * * * * * * * * * * * * * * * * * * * * * * * * * * * * * * * * * * * * * //

dimensions      [0 2 -1 0 0 0 0];

internalField   nonuniform List<scalar> 
2268
(
3.75132e-05
4.03255e-05
4.76018e-05
5.21788e-05
5.53873e-05
5.77518e-05
5.95366e-05
6.08952e-05
6.19246e-05
6.26894e-05
6.3233e-05
6.35831e-05
6.37544e-05
6.37482e-05
6.35512e-05
6.31295e-05
6.24189e-05
6.13039e-05
5.95761e-05
5.68452e-05
5.23333e-05
4.42396e-05
2.5517e-05
8.16295e-05
0.000309143
0.000409841
0.000471252
0.000514052
0.000545714
0.000569802
0.000588311
0.000602482
0.000613126
0.000620789
0.000625819
0.000628403
0.000628568
0.000626153
0.000620737
0.000611489
0.000596865
0.000573969
0.000537163
0.000474757
0.000358572
8.69907e-05
9.54297e-05
0.000515487
0.000740915
0.000882936
0.000983449
0.0010587
0.00111657
0.00116148
0.00119617
0.00122244
0.00124152
0.00125417
0.00126083
0.00126155
0.00125595
0.00124302
0.00122074
0.00118529
0.00112947
0.00103932
0.000887049
0.000613669
0.000104166
0.000105255
0.000658962
0.000997645
0.00121889
0.00137812
0.00149861
0.00159203
0.00166502
0.00172173
0.00176492
0.00179645
0.00181753
0.00182881
0.00183038
0.00182159
0.00180081
0.00176472
0.00170707
0.00161607
0.00146925
0.00122378
0.000799687
0.000117038
0.000112666
0.000765879
0.00120265
0.00149727
0.00171269
0.00187731
0.00200584
0.00210683
0.00218568
0.00224601
0.00229027
0.00232007
0.0023363
0.00233904
0.00232742
0.00229918
0.00224978
0.00217066
0.00204576
0.00184473
0.00151118
0.000949557
0.000128034
0.000118531
0.0008499
0.00137122
0.0017326
0.00200069
0.00220743
0.0023699
0.00249821
0.00259884
0.00267617
0.00273318
0.00277186
0.0027933
0.00279761
0.00278374
0.00274887
0.0026874
0.00258882
0.00243351
0.00218443
0.0017725
0.0010847
0.000139249
0.000123332
0.000918426
0.00151303
0.00193477
0.00225178
0.00249832
0.00269324
0.00284794
0.00296978
0.00306379
0.00313347
0.00318113
0.00320805
0.00321442
0.00319902
0.00315864
0.00308689
0.00297183
0.00279135
0.00250374
0.00202874
0.00122568
0.000154601
0.000127353
0.000975776
0.00163441
0.00211067
0.00247287
0.00275678
0.00298256
0.00316257
0.00330495
0.00341529
0.00349749
0.0035542
0.0035869
0.00359585
0.00357978
0.00353525
0.00345537
0.00332747
0.00312842
0.0028151
0.00230263
0.00141249
0.000184779
2.62782e-05
4.5555e-05
5.35563e-05
5.78334e-05
6.03015e-05
6.1765e-05
6.26075e-05
6.30204e-05
6.30986e-05
6.28823e-05
6.23763e-05
6.1557e-05
6.03709e-05
5.87266e-05
5.64713e-05
5.33363e-05
4.87846e-05
4.14557e-05
4.04005e-05
9.91755e-05
0.000377587
0.000491592
0.000550288
0.000583263
0.000602455
0.000613318
0.000618466
0.000619144
0.000615864
0.00060868
0.000597292
0.000581029
0.000558732
0.000528436
0.000486574
0.000425643
0.000324907
9.34839e-05
0.000118142
0.000656437
0.000927592
0.00107121
0.00115184
0.00119841
0.00122451
0.00123663
0.00123784
0.00122939
0.00121145
0.00118336
0.00114366
0.00108978
0.00101739
0.000918612
0.000777005
0.0005495
0.000108551
0.000132537
0.000863384
0.00128827
0.0015208
0.0016522
0.00172795
0.00177015
0.00178947
0.00179093
0.00177663
0.00174688
0.00170072
0.00163591
0.00154858
0.00143219
0.00127503
0.00105325
0.000708443
0.000119424
0.000144981
0.00103121
0.00159781
0.0019147
0.00209473
0.00219854
0.00225614
0.00228211
0.00228337
0.00226281
0.00222091
0.00215641
0.0020664
0.00194582
0.00178626
0.0015728
0.00127597
0.000828028
0.000127677
0.00015791
0.00118231
0.00187852
0.00227026
0.00249337
0.00262226
0.00269357
0.00272517
0.00272559
0.00269839
0.00264419
0.00256147
0.00244668
0.00229379
0.00209275
0.00182612
0.00146038
0.000922488
0.000134226
0.000175778
0.00133816
0.00215018
0.00260159
0.0028593
0.00300884
0.00309144
0.00312728
0.00312605
0.00309181
0.00302524
0.00292455
0.00278567
0.00260166
0.0023612
0.00204486
0.00161627
0.000999744
0.000139592
0.00020938
0.00153813
0.00243281
0.00291983
0.003201
0.00336571
0.00345666
0.00349508
0.00349126
0.00344953
0.00337053
0.00325221
0.00309
0.00287623
0.00259851
0.00223593
0.0017502
0.0010645
0.000144088
0.000132672
0.00105217
0.0017994
0.00235364
0.00278212
0.00312186
0.00339438
0.0036132
0.00378736
0.00392321
0.00402525
0.00409658
0.00413899
0.00415295
0.00413723
0.00408825
0.00399897
0.00385663
0.00363906
0.0033083
0.0028026
0.00204395
0.00105064
0.000137999
0.00112943
0.00196998
0.00260905
0.00311166
0.00351536
0.00384255
0.00410762
0.00432043
0.00448798
0.0046154
0.00470631
0.00476303
0.00478647
0.00477591
0.00472851
0.00463847
0.0044958
0.0042846
0.0039815
0.00355725
0.00299009
0.00230673
0.000142008
0.00118869
0.00210328
0.00281153
0.00337613
0.00383455
0.00420952
0.00451584
0.00476381
0.00496089
0.00511267
0.00522328
0.00529554
0.00533102
0.00532986
0.00529049
0.00520927
0.00508009
0.00489427
0.00464161
0.00431479
0.00392111
0.00350633
0.000145067
0.00123486
0.00220873
0.00297353
0.00358982
0.00409478
0.00451116
0.00485394
0.00513361
0.00535795
0.00553289
0.00566299
0.00575167
0.0058012
0.00581274
0.00578622
0.00572034
0.00561271
0.0054605
0.00526229
0.00502204
0.00475657
0.00450649
0.000147414
0.00127107
0.00229249
0.00310343
0.00376266
0.00430695
0.00475897
0.00513369
0.00544169
0.00569093
0.00588762
0.00603672
0.00614218
0.00620702
0.00623341
0.00622271
0.00617568
0.00609284
0.00597531
0.00582643
0.00565445
0.00547629
0.00532104
0.000149215
0.00129948
0.00235892
0.00320735
0.00390202
0.00447933
0.00496176
0.00536422
0.00569729
0.00596904
0.0061859
0.00635316
0.00647526
0.00655589
0.00659813
0.00660456
0.00657752
0.00651952
0.00643398
0.00632633
0.00620554
0.0060856
0.00598595
0.000150591
0.00132167
0.00241132
0.00329
0.00401371
0.00461851
0.00512668
0.00555301
0.00590805
0.00619991
0.00643518
0.00661946
0.00675757
0.00685379
0.00691192
0.0069355
0.00692797
0.00689307
0.00683535
0.00676086
0.00667782
0.00659706
0.00653144
0.000151635
0.00133887
0.00245233
0.00335519
0.00410249
0.00472997
0.00525972
0.00570637
0.00608044
0.00639004
0.00664189
0.00684178
0.00699489
0.00710594
0.00717931
0.00721917
0.00722971
0.00721534
0.00718104
0.00713276
0.00707758
0.00702376
0.00697999
0.000152421
0.00135207
0.00248409
0.0034061
0.00417237
0.00481837
0.00536602
0.00582981
0.00622016
0.00654521
0.00681172
0.00702568
0.0071925
0.00731723
0.00740466
0.00745942
0.0074861
0.00748944
0.0074745
0.0074468
0.00741237
0.00737755
0.00734843
0.000153005
0.0013621
0.00250841
0.00344541
0.00422676
0.00488773
0.00545007
0.00592813
0.00633226
0.00667056
0.00694985
0.00717623
0.00735529
0.00749231
0.00759236
0.00766034
0.00770108
0.00771941
0.00772027
0.00770871
0.00768989
0.00766879
0.00764987
0.000153435
0.00136961
0.00252681
0.00347539
0.00426862
0.00494155
0.00551578
0.00600559
0.00642121
0.00677073
0.00706098
0.00729812
0.00748788
0.00763569
0.00774679
0.00782624
0.00787896
0.00790977
0.00792342
0.00792453
0.00791756
0.00790657
0.00789495
0.000153747
0.00137517
0.00254055
0.00349798
0.00430043
0.0049828
0.00556658
0.00606592
0.006491
0.00684987
0.00714936
0.00739568
0.00759461
0.00775169
0.00787226
0.00796144
0.0080242
0.00806527
0.0080892
0.00810026
0.00810236
0.00809891
0.00809264
0.000153971
0.00137923
0.00255067
0.00351479
0.00432431
0.00501404
0.00560537
0.00611235
0.00654513
0.00691167
0.00721884
0.00747282
0.00767947
0.00784436
0.00797289
0.00807021
0.00814125
0.00819066
0.00822279
0.00824163
0.00825069
0.00825294
0.00825063
0.000154129
0.00138216
0.00255804
0.00352714
0.00434202
0.00503742
0.00563464
0.00614768
0.0065866
0.00695937
0.00727279
0.00753309
0.00774612
0.00791748
0.00805258
0.00815657
0.00823434
0.00829045
0.00832908
0.00835399
0.00836841
0.00837497
0.00837562
0.00015424
0.00138424
0.00256333
0.0035361
0.004355
0.0050547
0.00565647
0.00617423
0.00661801
0.00699574
0.0073142
0.00757961
0.00779782
0.00797444
0.00811488
0.00822427
0.00830744
0.00836886
0.0084126
0.00844222
0.00846074
0.00847057
0.00847344
0.000154317
0.0013857
0.00256708
0.00354252
0.00436439
0.00506733
0.00567255
0.00619396
0.00664152
0.00702314
0.0073456
0.00761507
0.00783743
0.00801827
0.00816297
0.00827665
0.0083641
0.0084297
0.00847741
0.00851065
0.00853231
0.00854462
0.00854915
0.00015437
0.00138671
0.00256971
0.00354707
0.00437111
0.00507646
0.00568428
0.00620844
0.00665892
0.00704355
0.00736912
0.00764179
0.00786741
0.00805157
0.00819964
0.00831669
0.00840746
0.00847631
0.00852707
0.00856309
0.00858713
0.0086013
0.00860708
0.000154406
0.00138741
0.00257154
0.00355026
0.00437587
0.00508297
0.00569272
0.00621897
0.00667164
0.00705858
0.00738655
0.00766169
0.00788984
0.00807657
0.00822724
0.0083469
0.00844025
0.00851157
0.00856467
0.00860279
0.00862861
0.00864418
0.00865089
0.000154429
0.00138788
0.00257279
0.00355247
0.0043792
0.00508758
0.00569874
0.00622652
0.00668084
0.00706953
0.0073993
0.00767633
0.00790641
0.00809512
0.00824778
0.00836943
0.00846473
0.00853794
0.00859279
0.00863249
0.00865965
0.00867625
0.00868365
0.000154445
0.0013882
0.00257364
0.00355398
0.00438151
0.0050908
0.00570299
0.0062319
0.00668743
0.00707741
0.00740854
0.00768698
0.00791852
0.00810872
0.00826288
0.00838603
0.0084828
0.00855741
0.00861358
0.00865445
0.00868259
0.00869996
0.00870785
0.000154456
0.00138841
0.00257422
0.00355502
0.0043831
0.00509303
0.00570595
0.00623568
0.0066921
0.00708302
0.00741516
0.00769465
0.00792727
0.00811858
0.00827386
0.00839812
0.00849598
0.00857163
0.00862876
0.00867049
0.00869936
0.00871728
0.00872554
0.000154463
0.00138855
0.0025746
0.00355571
0.00438417
0.00509456
0.005708
0.00623831
0.00669537
0.00708698
0.00741986
0.00770011
0.00793353
0.00812565
0.00828175
0.00840683
0.00850549
0.0085819
0.00863974
0.00868209
0.00871148
0.00872981
0.00873833
0.000154467
0.00138864
0.00257485
0.00355617
0.0043849
0.0050956
0.00570941
0.00624013
0.00669764
0.00708975
0.00742315
0.00770396
0.00793795
0.00813066
0.00828736
0.00841303
0.00851227
0.00858924
0.00864758
0.00869038
0.00872015
0.00873876
0.00874747
0.00015447
0.0013887
0.00257501
0.00355648
0.00438539
0.0050963
0.00571036
0.00624137
0.0066992
0.00709166
0.00742544
0.00770664
0.00794105
0.00813418
0.00829132
0.00841741
0.00851706
0.00859442
0.00865312
0.00869625
0.00872628
0.0087451
0.00875394
0.000154472
0.00138874
0.00257512
0.00355668
0.00438571
0.00509677
0.005711
0.00624221
0.00670027
0.00709297
0.00742701
0.0077085
0.0079432
0.00813663
0.00829407
0.00842047
0.00852041
0.00859805
0.00865701
0.00870035
0.00873057
0.00874953
0.00875847
0.000154473
0.00138877
0.00257519
0.00355681
0.00438592
0.00509708
0.00571143
0.00624277
0.00670099
0.00709386
0.00742809
0.00770977
0.00794467
0.00813832
0.00829597
0.00842258
0.00852273
0.00860056
0.0086597
0.0087032
0.00873355
0.00875261
0.00876161
0.000154474
0.00138878
0.00257524
0.0035569
0.00438606
0.00509729
0.00571172
0.00624315
0.00670147
0.00709446
0.00742881
0.00771063
0.00794568
0.00813947
0.00829727
0.00842402
0.00852432
0.00860228
0.00866154
0.00870516
0.0087356
0.00875472
0.00876376
0.000154474
0.00138879
0.00257526
0.00355695
0.00438615
0.00509742
0.0057119
0.0062434
0.00670179
0.00709486
0.0074293
0.00771121
0.00794636
0.00814025
0.00829815
0.008425
0.0085254
0.00860345
0.0086628
0.00870649
0.00873699
0.00875616
0.00876523
0.000154474
0.0013888
0.00257528
0.00355699
0.0043862
0.00509751
0.00571203
0.00624356
0.006702
0.00709513
0.00742962
0.0077116
0.00794681
0.00814077
0.00829874
0.00842566
0.00852612
0.00860424
0.00866364
0.00870738
0.00873793
0.00875713
0.00876622
0.000154474
0.0013888
0.00257529
0.00355701
0.00438624
0.00509756
0.0057121
0.00624367
0.00670214
0.0070953
0.00742984
0.00771185
0.00794711
0.00814112
0.00829913
0.0084261
0.00852661
0.00860477
0.00866421
0.00870798
0.00873856
0.00875778
0.00876688
0.000154475
0.0013888
0.0025753
0.00355702
0.00438627
0.0050976
0.00571215
0.00624374
0.00670223
0.00709541
0.00742998
0.00771202
0.00794731
0.00814135
0.00829939
0.0084264
0.00852693
0.00860512
0.00866459
0.00870838
0.00873897
0.00875821
0.00876732
0.000154475
0.00138881
0.00257531
0.00355703
0.00438628
0.00509762
0.00571219
0.00624378
0.00670229
0.00709549
0.00743007
0.00771213
0.00794744
0.0081415
0.00829956
0.00842659
0.00852714
0.00860535
0.00866483
0.00870864
0.00873925
0.00875849
0.00876761
0.000154475
0.00138881
0.00257531
0.00355704
0.00438629
0.00509763
0.00571221
0.00624381
0.00670232
0.00709553
0.00743013
0.0077122
0.00794752
0.00814159
0.00829967
0.00842671
0.00852728
0.0086055
0.008665
0.00870882
0.00873943
0.00875868
0.0087678
0.000154475
0.00138881
0.00257531
0.00355704
0.00438629
0.00509764
0.00571222
0.00624383
0.00670235
0.00709557
0.00743017
0.00771225
0.00794758
0.00814166
0.00829975
0.00842679
0.00852737
0.0086056
0.0086651
0.00870893
0.00873954
0.0087588
0.00876792
0.000154475
0.00138881
0.00257531
0.00355704
0.0043863
0.00509765
0.00571223
0.00624384
0.00670236
0.00709558
0.00743019
0.00771228
0.00794761
0.0081417
0.00829979
0.00842684
0.00852743
0.00860566
0.00866517
0.008709
0.00873962
0.00875888
0.008768
0.000154475
0.00138881
0.00257531
0.00355705
0.0043863
0.00509765
0.00571223
0.00624385
0.00670237
0.0070956
0.0074302
0.0077123
0.00794763
0.00814172
0.00829982
0.00842688
0.00852746
0.0086057
0.00866521
0.00870905
0.00873967
0.00875893
0.00876806
0.000154475
0.00138881
0.00257531
0.00355705
0.0043863
0.00509765
0.00571224
0.00624385
0.00670238
0.0070956
0.00743021
0.00771231
0.00794765
0.00814174
0.00829984
0.0084269
0.00852749
0.00860573
0.00866524
0.00870908
0.0087397
0.00875896
0.00876809
0.000154475
0.00138881
0.00257531
0.00355705
0.0043863
0.00509766
0.00571224
0.00624386
0.00670238
0.00709561
0.00743022
0.00771232
0.00794766
0.00814175
0.00829985
0.00842691
0.0085275
0.00860575
0.00866526
0.0087091
0.00873972
0.00875898
0.00876811
0.000154475
0.00138881
0.00257531
0.00355705
0.0043863
0.00509766
0.00571224
0.00624386
0.00670239
0.00709561
0.00743022
0.00771232
0.00794766
0.00814176
0.00829986
0.00842692
0.00852751
0.00860576
0.00866527
0.00870911
0.00873973
0.00875899
0.00876812
0.000154475
0.00138881
0.00257531
0.00355705
0.0043863
0.00509766
0.00571224
0.00624386
0.00670239
0.00709561
0.00743023
0.00771232
0.00794767
0.00814176
0.00829987
0.00842693
0.00852752
0.00860576
0.00866528
0.00870912
0.00873974
0.008759
0.00876813
0.000154475
0.00138881
0.00257531
0.00355705
0.0043863
0.00509766
0.00571224
0.00624386
0.00670239
0.00709562
0.00743023
0.00771232
0.00794767
0.00814176
0.00829987
0.00842693
0.00852752
0.00860577
0.00866528
0.00870912
0.00873974
0.00875901
0.00876813
0.000154475
0.00138881
0.00257531
0.00355705
0.0043863
0.00509766
0.00571224
0.00624386
0.00670239
0.00709562
0.00743023
0.00771233
0.00794767
0.00814176
0.00829987
0.00842693
0.00852752
0.00860577
0.00866528
0.00870912
0.00873975
0.00875901
0.00876814
0.000199126
0.000183336
0.000183188
0.000198432
0.00178703
0.00170406
0.00170364
0.00178515
0.00327306
0.00320266
0.00320157
0.00326962
0.0043874
0.00434702
0.0043454
0.00438245
0.00525289
0.00522914
0.00522708
0.00524666
0.00594356
0.00592835
0.00592595
0.00593631
0.00650344
0.00649292
0.00649023
0.00649532
0.0069607
0.00695294
0.00694999
0.00695181
0.00733474
0.00732871
0.00732553
0.00732514
0.00763995
0.00763505
0.00763166
0.00762972
0.00788767
0.00788353
0.00787994
0.00787686
0.00808723
0.00808362
0.00807987
0.00807592
0.00824658
0.00824335
0.00823945
0.00823485
0.00837258
0.00836961
0.00836559
0.00836047
0.00847115
0.00846836
0.00846425
0.00845873
0.00854741
0.00854476
0.00854056
0.00853474
0.00860574
0.00860319
0.00859892
0.00859287
0.00864985
0.00864737
0.00864304
0.00863681
0.00868282
0.00868039
0.00867602
0.00866966
0.00870718
0.00870479
0.00870039
0.00869392
0.00872499
0.00872261
0.00871819
0.00871165
0.00873785
0.0087355
0.00873105
0.00872446
0.00874705
0.0087447
0.00874025
0.00873361
0.00875356
0.00875122
0.00874675
0.00874008
0.00875811
0.00875578
0.0087513
0.00874462
0.00876127
0.00875894
0.00875446
0.00874776
0.00876344
0.00876111
0.00875663
0.00874992
0.00876492
0.00876259
0.0087581
0.00875139
0.00876591
0.00876359
0.0087591
0.00875238
0.00876658
0.00876425
0.00875976
0.00875304
0.00876702
0.0087647
0.0087602
0.00875348
0.00876731
0.00876499
0.00876049
0.00875377
0.0087675
0.00876518
0.00876068
0.00875396
0.00876763
0.0087653
0.00876081
0.00875408
0.00876771
0.00876538
0.00876089
0.00875416
0.00876776
0.00876543
0.00876094
0.00875421
0.00876779
0.00876547
0.00876097
0.00875424
0.00876781
0.00876549
0.00876099
0.00875426
0.00876783
0.0087655
0.00876101
0.00875428
0.00876783
0.00876551
0.00876101
0.00875428
0.00876784
0.00876551
0.00876102
0.00875429
0.00876784
0.00876551
0.00876102
0.00875429
0.00110151
0.00215601
0.00292798
0.00341441
0.00371318
0.00389293
0.00399237
0.00403216
0.00402267
0.00396822
0.00386922
0.0037232
0.00352488
0.00326566
0.00293187
0.00250097
0.00193288
0.00115088
0.000150036
0.00233846
0.00306988
0.00365433
0.00406855
0.00434458
0.00451772
0.00461302
0.00464563
0.00462355
0.00454988
0.00442419
0.00424322
0.00400089
0.00368768
0.00328889
0.0027808
0.00212234
0.00123831
0.000155989
0.00351666
0.00396684
0.00437781
0.00470012
0.00493026
0.00507913
0.00515839
0.00517628
0.00513723
0.00504233
0.00488991
0.00467581
0.00439324
0.00403202
0.00357687
0.00300356
0.00227084
0.00130544
0.000160466
0.00450472
0.00477625
0.00505424
0.00529082
0.00546848
0.00558424
0.00563998
0.00563785
0.00557861
0.00546114
0.00528234
0.00503711
0.00471801
0.0043144
0.00381068
0.00318245
0.00238861
0.00135781
0.000163881
0.00531264
0.0054778
0.00566169
0.00582749
0.00595519
0.00603547
0.00606422
0.00603915
0.00595792
0.00581734
0.00561298
0.00533882
0.00498684
0.00454606
0.00400072
0.00332644
0.0024824
0.00139894
0.0001665
0.00597346
0.00607445
0.00619329
0.00630375
0.00638778
0.00643403
0.00643529
0.00638638
0.00628268
0.00611932
0.00589068
0.00558997
0.00520867
0.00473555
0.00415478
0.0034421
0.00255699
0.00143125
0.000168509
0.00651604
0.00657675
0.00665039
0.00671847
0.00676595
0.00678151
0.00675665
0.00668451
0.00655893
0.00637382
0.0061226
0.00579786
0.00539068
0.00488967
0.00427898
0.0035345
0.00261602
0.00145654
0.000170045
0.00696229
0.00699651
0.00703817
0.00707392
0.00709149
0.00708038
0.00703177
0.00693798
0.00679191
0.00658661
0.00631483
0.00596866
0.00553892
0.00501408
0.00437835
0.00360775
0.00266239
0.0014762
0.000171212
0.00732882
0.00734485
0.00736336
0.00737435
0.00736771
0.00733396
0.00726443
0.00715112
0.00698643
0.00676287
0.00647273
0.00610776
0.00565858
0.00511362
0.00445712
0.00366528
0.00269846
0.00149134
0.00017209
0.00762862
0.00763168
0.0076331
0.00762501
0.00759889
0.00754621
0.00745867
0.00732823
0.00714706
0.00690735
0.00660112
0.00621992
0.00575422
0.00519245
0.00451893
0.00370999
0.00272621
0.00150287
0.000172744
0.0078723
0.00786586
0.00785443
0.00783154
0.00778982
0.00772152
0.00761874
0.00747358
0.00727813
0.00702445
0.00670439
0.00630938
0.00582984
0.00525421
0.00456688
0.00374433
0.00274732
0.00151154
0.000173227
0.00806877
0.00805524
0.00803404
0.00799962
0.00794546
0.00786441
0.00774896
0.00759138
0.0073838
0.00711825
0.00678651
0.00637994
0.00588897
0.00530204
0.00460367
0.0037704
0.00276318
0.00151799
0.000173579
0.00822574
0.00820684
0.00817815
0.00813475
0.00807071
0.00797935
0.0078535
0.00768562
0.00746794
0.00719248
0.00685103
0.00643495
0.00593466
0.00533867
0.00463155
0.00378996
0.00277495
0.00152273
0.000173832
0.00834987
0.00832688
0.00829244
0.00824206
0.00817021
0.0080706
0.00793634
0.00776005
0.00753408
0.0072505
0.00690112
0.00647732
0.00596956
0.00536638
0.00465243
0.00380445
0.00278357
0.00152616
0.000174013
0.00844698
0.00842087
0.00838202
0.00832622
0.00824826
0.00814213
0.00800114
0.0078181
0.00758544
0.0072953
0.00693955
0.00650958
0.0059959
0.00538711
0.00466789
0.00381507
0.00278981
0.00152862
0.00017414
0.00852212
0.00849362
0.00845139
0.00839142
0.00830872
0.00819748
0.00805118
0.00786279
0.00762481
0.00732947
0.00696866
0.00653385
0.00601555
0.00540243
0.00467921
0.00382275
0.00279428
0.00153036
0.000174228
0.00857958
0.00854928
0.00850448
0.00844132
0.00835497
0.00823977
0.00808935
0.00789676
0.00765463
0.00735521
0.00699047
0.00655189
0.00603005
0.00541362
0.0046874
0.00382825
0.00279744
0.00153157
0.000174289
0.00862302
0.00859136
0.00854462
0.00847904
0.00838991
0.00827168
0.00811809
0.00792228
0.00767693
0.00737438
0.00700661
0.00656515
0.00604062
0.00542172
0.00469325
0.00383214
0.00279965
0.00153241
0.00017433
0.00865548
0.0086228
0.00857462
0.00850722
0.008416
0.00829548
0.00813948
0.00794122
0.00769342
0.00738848
0.00701841
0.00657479
0.00604824
0.0054275
0.0046974
0.00383487
0.00280118
0.00153299
0.000174358
0.00867947
0.00864603
0.00859677
0.00852802
0.00843524
0.00831301
0.00815521
0.0079551
0.00770547
0.00739874
0.00702696
0.00658172
0.00605368
0.0054316
0.00470031
0.00383676
0.00280224
0.00153338
0.000174377
0.00869699
0.008663
0.00861294
0.00854321
0.00844927
0.00832578
0.00816664
0.00796517
0.00771418
0.00740612
0.00703307
0.00658665
0.00605752
0.00543446
0.00470233
0.00383806
0.00280295
0.00153364
0.00017439
0.00870964
0.00867525
0.00862462
0.00855417
0.00845939
0.00833497
0.00817486
0.00797239
0.0077204
0.00741137
0.0070374
0.00659012
0.00606021
0.00543645
0.00470371
0.00383894
0.00280343
0.00153382
0.000174398
0.00871869
0.00868401
0.00863297
0.00856199
0.00846661
0.00834152
0.00818071
0.00797751
0.0077248
0.00741507
0.00704044
0.00659253
0.00606207
0.00543782
0.00470466
0.00383954
0.00280375
0.00153393
0.000174403
0.00872508
0.0086902
0.00863886
0.00856751
0.0084717
0.00834614
0.00818482
0.0079811
0.00772788
0.00741765
0.00704254
0.0065942
0.00606334
0.00543875
0.0047053
0.00383994
0.00280396
0.00153401
0.000174407
0.00872956
0.00869453
0.00864299
0.00857138
0.00847526
0.00834936
0.00818768
0.0079836
0.00773002
0.00741943
0.00704399
0.00659534
0.00606421
0.00543938
0.00470572
0.0038402
0.0028041
0.00153405
0.000174409
0.00873267
0.00869753
0.00864584
0.00857405
0.00847772
0.00835159
0.00818966
0.00798532
0.00773148
0.00742065
0.00704498
0.00659612
0.00606479
0.0054398
0.00470601
0.00384037
0.00280419
0.00153409
0.00017441
0.0087348
0.00869959
0.0086478
0.00857588
0.0084794
0.00835311
0.00819101
0.00798649
0.00773248
0.00742148
0.00704564
0.00659664
0.00606518
0.00544008
0.00470619
0.00384049
0.00280425
0.00153411
0.000174411
0.00873625
0.008701
0.00864914
0.00857713
0.00848055
0.00835414
0.00819192
0.00798729
0.00773315
0.00742203
0.00704609
0.00659698
0.00606544
0.00544026
0.00470631
0.00384056
0.00280429
0.00153412
0.000174412
0.00873722
0.00870194
0.00865003
0.00857797
0.00848132
0.00835484
0.00819253
0.00798782
0.0077336
0.0074224
0.00704639
0.00659721
0.00606561
0.00544038
0.00470639
0.00384061
0.00280431
0.00153413
0.000174412
0.00873788
0.00870257
0.00865063
0.00857853
0.00848183
0.0083553
0.00819294
0.00798817
0.00773389
0.00742264
0.00704658
0.00659736
0.00606572
0.00544046
0.00470644
0.00384064
0.00280433
0.00153413
0.000174412
0.00873831
0.00870299
0.00865103
0.0085789
0.00848217
0.0083556
0.00819321
0.0079884
0.00773409
0.0074228
0.00704671
0.00659746
0.00606579
0.00544051
0.00470648
0.00384066
0.00280434
0.00153414
0.000174412
0.0087386
0.00870327
0.00865129
0.00857914
0.0084824
0.00835581
0.00819339
0.00798855
0.00773422
0.00742291
0.00704679
0.00659752
0.00606584
0.00544054
0.0047065
0.00384067
0.00280434
0.00153414
0.000174413
0.00873878
0.00870345
0.00865146
0.0085793
0.00848254
0.00835594
0.0081935
0.00798865
0.0077343
0.00742298
0.00704684
0.00659757
0.00606587
0.00544056
0.00470651
0.00384068
0.00280435
0.00153414
0.000174413
0.00873891
0.00870356
0.00865158
0.00857941
0.00848264
0.00835602
0.00819358
0.00798872
0.00773435
0.00742302
0.00704688
0.00659759
0.00606589
0.00544057
0.00470652
0.00384068
0.00280435
0.00153414
0.000174413
0.00873898
0.00870364
0.00865165
0.00857948
0.0084827
0.00835608
0.00819363
0.00798876
0.00773439
0.00742305
0.0070469
0.00659761
0.0060659
0.00544058
0.00470652
0.00384069
0.00280435
0.00153414
0.000174413
0.00873903
0.00870369
0.00865169
0.00857952
0.00848274
0.00835611
0.00819366
0.00798878
0.00773441
0.00742307
0.00704691
0.00659762
0.00606591
0.00544059
0.00470653
0.00384069
0.00280435
0.00153414
0.000174413
0.00873907
0.00870372
0.00865172
0.00857955
0.00848276
0.00835613
0.00819368
0.0079888
0.00773442
0.00742308
0.00704692
0.00659762
0.00606591
0.00544059
0.00470653
0.00384069
0.00280435
0.00153414
0.000174413
0.00873909
0.00870374
0.00865174
0.00857956
0.00848278
0.00835615
0.00819369
0.00798881
0.00773443
0.00742308
0.00704693
0.00659763
0.00606591
0.00544059
0.00470653
0.00384069
0.00280435
0.00153414
0.000174413
0.0087391
0.00870375
0.00865176
0.00857958
0.00848279
0.00835616
0.0081937
0.00798882
0.00773444
0.00742309
0.00704693
0.00659763
0.00606592
0.00544059
0.00470653
0.00384069
0.00280435
0.00153414
0.000174413
0.00873911
0.00870376
0.00865176
0.00857958
0.0084828
0.00835616
0.0081937
0.00798882
0.00773444
0.00742309
0.00704693
0.00659763
0.00606592
0.00544059
0.00470653
0.00384069
0.00280435
0.00153414
0.000174413
0.00873911
0.00870377
0.00865177
0.00857959
0.0084828
0.00835617
0.0081937
0.00798882
0.00773444
0.00742309
0.00704693
0.00659763
0.00606592
0.00544059
0.00470653
0.00384069
0.00280435
0.00153414
0.000174413
0.00873911
0.00870377
0.00865177
0.00857959
0.0084828
0.00835617
0.00819371
0.00798883
0.00773444
0.00742309
0.00704693
0.00659763
0.00606592
0.00544059
0.00470653
0.00384069
0.00280435
0.00153414
0.000174413
)
;

boundaryField
{
    leftWall
    {
        type            nutkWallFunction;
        blending        stepwise;
        value           nonuniform List<scalar> 
50
(
0
2.92668e-06
5.21842e-06
6.81325e-06
7.99748e-06
8.9227e-06
9.67116e-06
1.02912e-05
1.11021e-05
1.18967e-05
1.24816e-05
1.2918e-05
1.32451e-05
1.34901e-05
1.36726e-05
1.38074e-05
1.39062e-05
1.39777e-05
1.40289e-05
1.40651e-05
1.40903e-05
1.41078e-05
1.41197e-05
1.41278e-05
1.41332e-05
1.41368e-05
1.41391e-05
1.41406e-05
1.41416e-05
1.41422e-05
1.41426e-05
1.41429e-05
1.4143e-05
1.41431e-05
1.41432e-05
1.41432e-05
1.41433e-05
1.41433e-05
1.41433e-05
1.41433e-05
1.41433e-05
1.41433e-05
1.41433e-05
1.41433e-05
1.41433e-05
1.41433e-05
1.41433e-05
1.41433e-05
1.41433e-05
1.41433e-05
)
;
    }
    rightWall
    {
        type            nutkWallFunction;
        blending        stepwise;
        value           nonuniform List<scalar> 
50
(
5.57555e-07
4.97964e-06
7.42962e-06
9.15702e-06
1.04482e-05
1.14601e-05
1.22798e-05
1.29594e-05
1.38486e-05
1.47199e-05
1.53608e-05
1.58387e-05
1.61968e-05
1.64649e-05
1.66646e-05
1.68123e-05
1.69206e-05
1.69991e-05
1.70555e-05
1.70955e-05
1.71236e-05
1.7143e-05
1.71564e-05
1.71655e-05
1.71716e-05
1.71757e-05
1.71784e-05
1.71801e-05
1.71813e-05
1.7182e-05
1.71825e-05
1.71828e-05
1.7183e-05
1.71831e-05
1.71832e-05
1.71833e-05
1.71833e-05
1.71833e-05
1.71833e-05
1.71833e-05
1.71833e-05
1.71833e-05
1.71833e-05
1.71833e-05
1.71833e-05
1.71833e-05
1.71833e-05
1.71833e-05
1.71833e-05
1.71833e-05
)
;
    }
    lowerWall
    {
        type            nutkWallFunction;
        blending        stepwise;
        value           nonuniform List<scalar> 
62
(
0
0
0
0
0
0
0
0
0
0
0
0
0
0
0
0
0
0
0
0
0
0
0
0
3.65516e-06
6.44399e-06
8.47989e-06
1.0189e-05
1.19081e-05
1.42351e-05
1.87521e-05
2.08058e-05
1.8431e-05
1.84097e-05
2.07063e-05
0
5.72614e-06
8.74539e-06
1.09767e-05
1.2873e-05
1.48177e-05
1.74777e-05
2.2419e-05
0
0
0
0
0
0
0
0
0
0
0
0
0
0
0
0
0
0
0
)
;
    }
    atmosphere
    {
        type            calculated;
        value           nonuniform List<scalar> 
46
(
0.000154475
0.00138881
0.00257531
0.00355705
0.0043863
0.00509766
0.00571224
0.00624386
0.00670239
0.00709562
0.00743023
0.00771233
0.00794767
0.00814176
0.00829987
0.00842693
0.00852752
0.00860577
0.00866528
0.00870912
0.00873975
0.00875901
0.00876814
0.00876784
0.00876551
0.00876102
0.00875429
0.00873911
0.00870377
0.00865177
0.00857959
0.0084828
0.00835617
0.00819371
0.00798883
0.00773444
0.00742309
0.00704693
0.00659763
0.00606592
0.00544059
0.00470653
0.00384069
0.00280435
0.00153414
0.000174413
)
;
    }
    defaultFaces
    {
        type            empty;
    }
}


// ************************************************************************* //
