/*--------------------------------*- C++ -*----------------------------------*\
| =========                 |                                                 |
| \\      /  F ield         | OpenFOAM: The Open Source CFD Toolbox           |
|  \\    /   O peration     | Version:  2406                                  |
|   \\  /    A nd           | Website:  www.openfoam.com                      |
|    \\/     M anipulation  |                                                 |
\*---------------------------------------------------------------------------*/
FoamFile
{
    version     2.0;
    format      ascii;
    arch        "LSB;label=32;scalar=64";
    class       surfaceScalarField;
    location    "0.6";
    object      phi;
}
// * * * * * * * * * * * * * * * * * * * * * * * * * * * * * * * * * * * * * //

dimensions      [0 3 -1 0 0 0 0];

oriented        oriented;

internalField   nonuniform List<scalar> 
4432
(
-2.99904e-304
-1.49019e-304
-5.97215e-304
-7.02119e-304
-9.11357e-304
-9.33177e-304
-1.24977e-303
-9.25636e-304
-1.6202e-303
-6.37885e-304
-2.02321e-303
3.59843e-305
-2.44816e-303
1.26737e-303
-2.86274e-303
3.3202e-303
-3.1817e-303
6.60572e-303
-3.13286e-303
1.18078e-302
-1.60649e-303
2.01596e-302
7.21751e-303
3.36468e-302
1.03212e-302
5.53396e-302
-3.47764e-303
2.03556e-302
-6.29638e-303
3.66722e-303
-3.9632e-303
-1.06389e-303
-2.31986e-303
-1.59264e-303
-1.3424e-303
-1.19637e-303
-7.72555e-304
-6.98801e-304
-4.34345e-304
-3.13923e-304
-2.26082e-304
-6.25321e-305
-8.70989e-305
7.17949e-305
8.169e-305
-9.29401e-304
-2.72674e-304
-1.83311e-303
-1.25886e-303
-2.77683e-303
-1.70127e-303
-3.79306e-303
-1.67134e-303
-4.90126e-303
-1.07637e-303
-6.1006e-303
2.90606e-304
-7.35695e-303
2.76254e-303
-8.57335e-303
6.84383e-303
-9.51691e-303
1.33077e-302
-9.61142e-303
2.33876e-302
-7.117e-303
3.92089e-302
-1.91234e-303
6.49228e-302
5.91394e-303
1.0392e-301
-7.58489e-303
3.41921e-302
-8.48439e-303
5.35814e-303
-5.55383e-303
-3.30958e-304
-3.48217e-303
-1.31376e-303
-2.14081e-303
-1.10829e-303
-1.30272e-303
-6.69664e-304
-7.78027e-304
-2.84527e-304
-4.40205e-304
-8.77045e-306
-1.9849e-304
1.58374e-304
1.8112e-304
-1.57215e-303
-4.20147e-304
-3.11514e-303
-1.79339e-303
-4.72774e-303
-2.43924e-303
-6.46593e-303
-2.38464e-303
-8.36549e-303
-1.47889e-303
-1.04315e-302
5.84779e-304
-1.262e-302
4.29045e-303
-1.4799e-302
1.03653e-302
-1.66656e-302
1.9905e-302
-1.75651e-302
3.46231e-302
-1.57883e-302
5.73887e-302
-1.52501e-302
9.36464e-302
-9.63067e-304
1.46384e-301
-1.16657e-302
4.43508e-302
-1.00586e-302
7.04337e-303
-6.7393e-303
4.78079e-304
-4.39086e-303
-9.03145e-304
-2.80411e-303
-9.09931e-304
-1.76913e-303
-5.68305e-304
-1.0982e-303
-2.15572e-304
-6.53591e-304
6.28438e-305
-3.22849e-304
2.53935e-304
2.98125e-304
-2.25401e-303
-5.7921e-304
-4.48483e-303
-2.33592e-303
-6.81963e-303
-3.1894e-303
-9.33882e-303
-3.11504e-303
-1.20985e-302
-1.89877e-303
-1.51173e-302
8.6263e-304
-1.83555e-302
5.79594e-303
-2.16751e-302
1.38296e-302
-2.47654e-302
2.63449e-302
-2.70164e-302
4.5459e-302
-2.69358e-302
7.46079e-302
-3.15754e-302
1.19842e-301
-9.34927e-303
1.82607e-301
-1.58193e-302
5.25489e-302
-1.18004e-302
8.81437e-303
-7.98032e-303
1.26773e-303
-5.32056e-303
-4.84374e-304
-3.4917e-303
-6.90012e-304
-2.26666e-303
-4.49408e-304
-1.45329e-303
-1.38001e-304
-9.03224e-304
1.35774e-304
-4.80833e-304
3.50103e-304
4.3066e-304
-2.99794e-303
-7.5254e-304
-5.98176e-303
-2.91704e-303
-9.1075e-303
-3.99717e-303
-1.24816e-302
-3.91712e-303
-1.6184e-302
-2.39745e-303
-2.02543e-302
1.05982e-303
-2.46699e-302
7.2135e-303
-2.93097e-302
1.71742e-302
-3.38945e-302
3.25684e-302
-3.7907e-302
5.58426e-302
-4.00412e-302
9.08334e-302
-4.99968e-302
1.43807e-301
-1.89302e-302
2.14659e-301
-2.03295e-302
6.00035e-302
-1.38724e-302
1.06076e-302
-9.39633e-303
2.02072e-303
-6.35613e-303
-8.90499e-305
-4.25716e-303
-4.77949e-304
-2.82888e-303
-3.34415e-304
-1.86539e-303
-6.741e-305
-1.20579e-303
1.95738e-304
-6.85915e-304
4.29068e-304
5.55082e-304
-3.82516e-303
-9.47124e-304
-7.64472e-303
-3.56479e-303
-1.16463e-302
-4.9062e-303
-1.59639e-302
-4.84648e-303
-2.07051e-302
-3.03832e-303
-2.5936e-302
1.10791e-303
-3.16616e-302
8.47458e-303
-3.77943e-302
2.03329e-302
-4.4108e-302
3.85167e-302
-5.01867e-302
6.57254e-302
-5.48302e-302
1.0606e-301
-7.01068e-302
1.65873e-301
-2.9603e-302
2.44239e-301
-2.53094e-302
6.7141e-302
-1.62998e-302
1.24062e-302
-1.10287e-302
2.7472e-303
-7.53528e-303
2.80898e-304
-5.12744e-303
-2.81924e-304
-3.4735e-303
-2.32243e-304
-2.34637e-303
-1.30491e-305
-1.57185e-303
2.29493e-304
-9.53572e-304
4.64867e-304
6.12262e-304
-4.75605e-303
-1.17401e-303
-9.51232e-303
-4.30653e-303
-1.44915e-302
-5.96189e-303
-1.98563e-302
-5.96253e-303
-2.57448e-302
-3.89146e-303
-3.22545e-302
9.31388e-304
-3.94254e-302
9.50229e-303
-4.72138e-302
2.32343e-302
-5.54583e-302
4.41292e-302
-6.38423e-302
7.50694e-302
-7.12214e-302
1.20309e-301
-9.1841e-302
1.86247e-301
-4.14013e-302
2.71951e-301
-3.07933e-302
7.39835e-302
-1.90696e-302
1.42114e-302
-1.2891e-302
3.46804e-303
-8.8774e-303
6.35949e-304
-6.11882e-303
-1.00187e-304
-4.21143e-303
-1.45293e-304
-2.90203e-303
2.00605e-305
-2.00497e-303
2.26218e-304
-1.30167e-303
4.22778e-304
4.8112e-304
-5.8105e-303
-1.44445e-303
-1.16236e-302
-5.16085e-303
-1.76996e-302
-7.19897e-303
-2.42309e-302
-7.31654e-303
-3.13879e-302
-5.02358e-303
-3.93032e-302
4.49473e-304
-4.80562e-302
1.02034e-302
-5.76538e-302
2.57754e-302
-6.80042e-302
4.92974e-302
-7.88916e-302
8.37724e-302
-8.91189e-302
1.33503e-301
-1.15477e-301
2.04757e-301
-5.40353e-302
2.96035e-301
-3.67591e-302
8.02472e-302
-2.2136e-302
1.603e-302
-1.49675e-302
4.21296e-303
-1.03793e-302
9.98189e-304
-7.23114e-303
8.03543e-305
-5.04076e-303
-6.63252e-305
-3.52507e-303
3.55271e-305
-2.48818e-303
1.8659e-304
-1.74542e-303
2.99645e-304
2.11696e-304
-9.84705e-308
-5.37763e-307
-1.29248e-307
-2.44719e-306
-9.06732e-308
-2.0383e-306
-9.43892e-308
-1.08074e-306
-9.03824e-308
-4.50367e-307
-7.02689e-308
-1.54832e-307
-4.63019e-308
-4.10807e-308
-2.70415e-308
-4.54813e-309
-1.44156e-308
4.12918e-309
-7.14024e-309
4.42648e-309
-3.31899e-309
2.99906e-309
-1.45436e-309
1.7164e-309
-6.00732e-310
8.9051e-310
-2.32728e-310
4.29221e-310
-8.3532e-311
1.93445e-310
-2.70609e-311
8.11276e-311
-7.43621e-312
3.10192e-311
-1.42351e-312
9.96097e-312
1.5685e-312
-2.09482e-307
-1.60593e-306
-3.80031e-307
-4.97058e-306
-3.64048e-307
-3.73122e-306
-3.40017e-307
-1.90042e-306
-2.75915e-307
-7.7138e-307
-1.94119e-307
-2.53887e-307
-1.21664e-307
-5.81922e-308
-6.96509e-308
1.9595e-309
-3.70706e-308
1.37949e-308
-1.85511e-308
1.17667e-308
-8.78543e-309
7.54808e-309
-3.94813e-309
4.24541e-309
-1.68246e-309
2.1961e-309
-6.76675e-310
1.06427e-309
-2.54123e-310
4.85944e-310
-8.71213e-311
2.08499e-310
-2.58352e-311
8.29105e-311
-5.48407e-312
2.87537e-311
5.52623e-312
-4.25745e-307
-4.03071e-306
-8.38734e-307
-9.01771e-306
-8.55154e-307
-6.07376e-306
-7.50842e-307
-2.93142e-306
-5.64837e-307
-1.14822e-306
-3.76252e-307
-3.60976e-307
-2.28133e-307
-7.07991e-308
-1.28401e-307
1.46501e-308
-6.79587e-308
2.83929e-308
-3.40976e-308
2.24079e-308
-1.62908e-308
1.41029e-308
-7.42309e-309
7.91443e-309
-3.22199e-309
4.11648e-309
-1.32612e-309
2.01633e-309
-5.12541e-310
9.3538e-310
-1.82306e-310
4.10672e-310
-5.68637e-311
1.69168e-310
-1.30195e-311
6.24056e-311
1.39199e-311
-9.7205e-307
-9.63047e-306
-1.77737e-306
-1.57925e-305
-1.78327e-306
-9.50445e-306
-1.4713e-306
-4.32262e-306
-1.04514e-306
-1.62987e-306
-6.67962e-307
-4.90429e-307
-3.94492e-307
-8.15106e-308
-2.1885e-307
3.43745e-308
-1.15191e-307
4.93744e-308
-5.78635e-308
3.75531e-308
-2.78234e-308
2.34782e-308
-1.28151e-308
1.32208e-308
-5.64472e-309
6.93506e-309
-2.36708e-309
3.43868e-309
-9.3649e-310
1.62121e-309
-3.43213e-310
7.274e-310
-1.11511e-310
3.09175e-310
-2.71501e-311
1.20105e-310
3.0207e-311
-2.39378e-306
-2.25426e-305
-3.6988e-306
-2.67893e-305
-3.51025e-306
-1.43734e-305
-2.71365e-306
-6.16401e-306
-1.83455e-306
-2.2449e-306
-1.13366e-306
-6.51411e-307
-6.55684e-307
-9.22413e-308
-3.59703e-307
6.17318e-308
-1.88591e-307
7.79161e-308
-9.48928e-308
5.82578e-308
-4.59068e-308
3.64365e-308
-2.13517e-308
2.06563e-308
-9.52908e-309
1.09464e-308
-4.06253e-309
5.49816e-309
-1.64054e-309
2.63382e-309
-6.17079e-310
1.20603e-309
-2.07668e-310
5.27184e-310
-5.33032e-311
2.14072e-310
5.97765e-311
-6.11596e-306
-5.16842e-305
-7.56995e-306
-4.35702e-305
-6.61476e-306
-2.08836e-305
-4.78125e-306
-8.49748e-306
-3.09155e-306
-3.01256e-306
-1.85758e-306
-8.52515e-307
-1.05695e-306
-1.05512e-307
-5.75204e-307
9.69123e-308
-3.01003e-307
1.15046e-307
-1.51868e-307
8.55703e-308
-7.3941e-308
5.3784e-308
-3.47186e-308
3.0763e-308
-1.56866e-308
1.64852e-308
-6.79004e-309
8.38911e-309
-2.79338e-309
4.08082e-309
-1.07553e-309
1.90393e-309
-3.73477e-310
8.52945e-310
-1.00522e-310
3.59188e-310
1.09467e-310
-1.57757e-305
-1.19537e-304
-1.52327e-305
-6.6495e-305
-1.19829e-305
-2.88362e-305
-8.09506e-306
-1.12907e-305
-5.03043e-306
-3.94287e-306
-2.95415e-306
-1.10368e-306
-1.66058e-306
-1.26094e-307
-8.99268e-307
1.38485e-307
-4.70686e-307
1.60823e-307
-2.38445e-307
1.20008e-307
-1.16922e-307
7.60527e-308
-5.54343e-308
4.39476e-308
-2.53499e-308
2.38215e-308
-1.11329e-308
1.22756e-308
-4.66019e-309
6.05548e-309
-1.83313e-309
2.8713e-309
-6.54756e-310
1.31191e-309
-1.83958e-310
5.66948e-310
1.83871e-310
-3.94575e-305
-1.96505e-304
-2.98708e-305
-8.97799e-305
-2.06343e-305
-3.70733e-305
-1.30882e-305
-1.42858e-305
-7.86728e-306
-4.96668e-306
-4.53976e-306
-1.38398e-306
-2.53085e-306
-1.4727e-307
-1.36739e-306
1.88676e-307
-7.17029e-307
2.16025e-307
-3.65029e-307
1.61878e-307
-1.80309e-307
1.03387e-307
-8.6291e-308
6.02873e-308
-3.9906e-308
3.29983e-308
-1.77572e-308
1.71804e-308
-7.54846e-309
8.56845e-309
-3.02514e-309
4.11158e-309
-1.10702e-309
1.9032e-309
-3.23596e-310
8.3359e-310
2.76942e-310
-1.62459e-302
-2.14927e-303
-3.24991e-302
-7.30886e-303
-4.94409e-302
-1.04038e-302
-6.75833e-302
-1.10322e-302
-8.74022e-302
-8.54374e-303
-1.09304e-301
-1.99552e-303
-1.336e-301
9.90429e-303
-1.60482e-301
2.88865e-302
-1.89996e-301
5.72534e-302
-2.22015e-301
9.80767e-302
-2.51595e-301
1.55487e-301
-3.32414e-301
2.3493e-301
-1.58172e-301
3.32303e-301
-9.91322e-302
9.068e-302
-5.78914e-302
1.95636e-302
-3.91844e-302
5.75961e-303
-2.74047e-302
1.77373e-303
-1.93284e-302
4.70925e-304
-1.36556e-302
9.77243e-305
-9.66573e-303
4.84396e-305
-6.87608e-303
7.14479e-305
-4.90951e-303
3.48707e-305
-1.68613e-304
-3.10806e-303
-2.18218e-302
-3.05417e-303
-4.3651e-302
-1.00289e-302
-6.63699e-302
-1.46008e-302
-9.06516e-302
-1.62067e-302
-1.17148e-301
-1.40426e-302
-1.46458e-301
-7.0143e-303
-1.79106e-301
6.31559e-303
-2.15532e-301
2.77954e-302
-2.56078e-301
5.97767e-302
-3.00987e-301
1.05226e-301
-3.44139e-301
1.67869e-301
-4.542e-301
2.52129e-301
-2.25555e-301
3.52086e-301
-1.29331e-301
9.71841e-302
-7.32204e-302
2.21766e-302
-4.93128e-302
6.98152e-303
-3.45738e-302
2.411e-303
-2.45227e-302
7.96645e-304
-1.74166e-302
2.29873e-304
-1.23286e-302
4.94292e-305
-8.65024e-303
-2.00978e-305
-5.91528e-303
-1.0647e-304
-2.611e-304
-3.69226e-303
-2.76642e-302
-4.25873e-303
-5.52924e-302
-1.36534e-302
-8.40153e-302
-2.03219e-302
-1.14684e-301
-2.35462e-302
-1.48141e-301
-2.23762e-302
-1.85182e-301
-1.55807e-302
-2.26541e-301
-1.60732e-303
-2.72877e-301
2.14649e-302
-3.24769e-301
5.59742e-302
-3.82702e-301
1.04716e-301
-4.39635e-301
1.70973e-301
-5.77189e-301
2.58264e-301
-2.94848e-301
3.59464e-301
-1.60884e-301
1.00391e-301
-8.92488e-302
2.3664e-302
-5.96587e-302
7.67382e-303
-4.17311e-302
2.76751e-303
-2.95955e-302
9.71551e-304
-2.10104e-302
2.8972e-304
-1.48188e-302
3.42626e-305
-1.02895e-302
-7.57334e-305
-6.90161e-303
-1.58435e-304
-2.43341e-304
-4.27593e-303
-3.3802e-302
-5.88218e-303
-6.74585e-302
-1.85432e-302
-1.02399e-301
-2.815e-302
-1.39667e-301
-3.38305e-302
-1.80304e-301
-3.4488e-302
-2.25304e-301
-2.87604e-302
-2.75595e-301
-1.49907e-302
-3.32025e-301
8.79844e-303
-3.95347e-301
4.49218e-302
-4.66207e-301
9.60185e-302
-5.3651e-301
1.65015e-301
-7.00852e-301
2.54779e-301
-3.65138e-301
3.57466e-301
-1.93685e-301
1.00976e-301
-1.06033e-301
2.4045e-302
-7.03404e-302
7.7678e-303
-4.90028e-302
2.77392e-303
-3.46683e-302
9.44203e-304
-2.45566e-302
2.44466e-304
-1.72608e-302
-1.79639e-305
-1.19179e-302
-1.19552e-304
-7.93905e-303
-1.71179e-304
-2.00925e-304
-4.91775e-303
-4.02537e-302
-8.05995e-303
-8.01714e-302
-2.50996e-302
-1.21537e-301
-3.87382e-302
-1.65598e-301
-4.7938e-302
-2.13609e-301
-5.1447e-302
-2.66763e-301
-4.77645e-302
-3.26171e-301
-3.51249e-302
-3.92846e-301
-1.14833e-302
-4.67684e-301
2.54775e-302
-5.51439e-301
7.83076e-302
-6.34912e-301
1.49719e-301
-8.25729e-301
2.42206e-301
-4.36843e-301
3.47512e-301
-2.27768e-301
9.92015e-302
-1.23576e-301
2.32927e-302
-8.14121e-302
7.19648e-303
-5.64629e-302
2.36489e-303
-3.98203e-302
6.60583e-304
-2.81315e-302
5.13165e-305
-1.97203e-302
-1.4374e-304
-1.35765e-302
-1.89183e-304
-9.02425e-303
-1.8783e-304
-1.68485e-304
-5.59959e-303
-4.70301e-302
-1.0948e-302
-9.34398e-302
-3.37824e-302
-1.41433e-301
-5.28351e-302
-1.92482e-301
-6.68796e-302
-2.48068e-301
-7.44865e-302
-3.09593e-301
-7.40005e-302
-3.78352e-301
-6.35274e-302
-4.55514e-301
-4.09295e-302
-5.42097e-301
-3.83541e-303
-6.3895e-301
5.03068e-302
-7.35748e-301
1.24157e-301
-9.5319e-301
2.2009e-301
-5.10913e-301
3.29651e-301
-2.63305e-301
9.48976e-302
-1.41896e-301
2.12475e-302
-9.29004e-302
5.83523e-303
-6.41495e-302
1.44476e-303
-4.50938e-302
4.74195e-305
-3.17743e-302
-3.46805e-304
-2.22254e-302
-3.89715e-304
-1.5275e-302
-3.2507e-304
-1.01463e-302
-2.4225e-304
-1.64825e-304
-6.30625e-303
-5.41257e-302
-1.47296e-302
-1.07241e-301
-4.51268e-302
-1.62053e-301
-7.13133e-302
-2.20288e-301
-9.18333e-302
-2.8368e-301
-1.05048e-301
-3.53859e-301
-1.0912e-301
-4.32316e-301
-1.02004e-301
-5.20374e-301
-8.14333e-302
-6.19172e-301
-4.49255e-302
-7.29649e-301
1.01759e-302
-8.40353e-301
8.66371e-302
-1.08507e-300
1.86951e-301
-5.88624e-301
3.02632e-301
-3.00576e-301
8.74374e-302
-1.61034e-301
1.75704e-302
-1.04822e-301
3.46801e-303
-7.20785e-302
-1.33283e-304
-5.05057e-302
-9.98407e-304
-3.54995e-302
-1.02439e-303
-2.47841e-302
-8.1137e-304
-1.70121e-302
-5.69138e-304
-1.12962e-302
-3.64091e-304
-2.05423e-304
-7.0291e-303
-6.15024e-302
-1.9623e-302
-1.21487e-301
-5.97652e-302
-1.83273e-301
-9.52009e-302
-2.48882e-301
-1.24186e-301
-3.20345e-301
-1.44824e-301
-3.99549e-301
-1.55069e-301
-4.88198e-301
-1.52698e-301
-5.87783e-301
-1.35289e-301
-6.99567e-301
-1.00194e-301
-8.24579e-301
-4.45596e-302
-9.50241e-301
3.46404e-302
-1.22342e-300
1.40238e-301
-6.71418e-301
2.63881e-301
-3.3993e-301
7.56879e-302
-1.81045e-301
1.1711e-302
-1.17185e-301
-2.31412e-304
-8.02477e-302
-2.57739e-303
-5.6054e-302
-2.61402e-303
-3.9305e-302
-2.07385e-303
-2.73925e-302
-1.47221e-303
-1.87813e-302
-9.65108e-304
-1.24662e-302
-5.81852e-304
-3.05788e-304
-7.76238e-303
-6.9061e-302
-2.58934e-302
-1.35966e-301
-7.84556e-302
-2.04794e-301
-1.25725e-301
-2.77925e-301
-1.65578e-301
-3.57741e-301
-1.95808e-301
-4.46429e-301
-2.14125e-301
-5.45932e-301
-2.18126e-301
-6.57925e-301
-2.05221e-301
-7.838e-301
-1.72566e-301
-9.24678e-301
-1.17034e-301
-1.06686e-300
-3.52092e-302
-1.37025e-300
7.62913e-302
-7.60742e-301
2.09427e-301
-3.8172e-301
5.79428e-302
-2.01967e-301
2.8832e-303
-1.29973e-301
-5.70715e-303
-8.86348e-302
-6.15714e-303
-6.17189e-302
-4.96761e-303
-4.3175e-302
-3.60191e-303
-3.00378e-302
-2.44095e-303
-2.05717e-302
-1.55733e-303
-1.36478e-302
-9.23224e-304
-4.81543e-304
-8.50056e-303
-7.66037e-302
-3.38696e-302
-1.50269e-301
-1.02125e-301
-2.26037e-301
-1.64369e-301
-3.06732e-301
-2.17973e-301
-3.95164e-301
-2.60344e-301
-4.93866e-301
-2.88942e-301
-6.05053e-301
-3.01201e-301
-7.30592e-301
-2.94392e-301
-8.72009e-301
-2.65477e-301
-1.03052e-300
-2.11021e-301
-1.1913e-300
-1.2712e-301
-1.52723e-300
-9.65737e-303
-8.57831e-301
1.33847e-301
-4.26221e-301
3.18552e-302
-2.23787e-301
-9.9479e-303
-1.43137e-301
-1.35132e-302
-9.71909e-302
-1.11902e-302
-6.74617e-302
-8.24571e-303
-4.70807e-302
-5.71978e-303
-3.26987e-302
-3.78489e-303
-2.23679e-302
-2.38698e-303
-1.483e-302
-1.41313e-303
-7.46986e-304
-9.23687e-303
-8.37766e-302
-4.39732e-302
-1.63676e-301
-1.31932e-301
-2.45987e-301
-2.1296e-301
-3.34099e-301
-2.83733e-301
-4.31337e-301
-3.41199e-301
-5.40631e-301
-3.82584e-301
-6.6448e-301
-4.05235e-301
-8.0495e-301
-4.06367e-301
-9.63697e-301
-3.82816e-301
-1.14202e-300
-3.30852e-301
-1.32398e-300
-2.46044e-301
-1.69534e-300
-1.23402e-301
-9.6345e-301
3.02815e-302
-4.73524e-301
-5.59532e-303
-2.46395e-301
-2.80433e-302
-1.56569e-301
-2.42763e-302
-1.05833e-301
-1.80078e-302
-7.32227e-302
-1.26267e-302
-5.09795e-302
-8.52491e-303
-3.53448e-302
-5.55855e-303
-2.41483e-302
-3.4854e-303
-1.59983e-302
-2.06992e-303
-1.11278e-303
-9.96207e-303
-8.99869e-302
-5.67685e-302
-1.74998e-301
-1.69381e-301
-2.62988e-301
-2.73802e-301
-3.58073e-301
-3.6575e-301
-4.64182e-301
-4.41641e-301
-5.84663e-301
-4.98556e-301
-7.2229e-301
-5.33917e-301
-8.79297e-301
-5.45056e-301
-1.05746e-300
-5.28819e-301
-1.25814e-300
-4.8127e-301
-1.4643e-300
-3.97486e-301
-1.87442e-300
-2.71565e-301
-1.07755e-300
-1.09384e-301
-5.23395e-301
-5.80383e-302
-2.69536e-301
-5.27947e-302
-1.70087e-301
-3.86067e-302
-1.14437e-301
-2.68869e-302
-7.89162e-302
-1.82353e-302
-5.48118e-302
-1.2073e-302
-3.7934e-302
-7.78718e-303
-2.58832e-302
-4.86486e-303
-1.71321e-302
-2.90033e-303
-1.58313e-303
-1.0663e-302
-9.42615e-302
-7.30616e-302
-1.82317e-301
-2.16499e-301
-2.74438e-301
-3.49883e-301
-3.75656e-301
-4.67603e-301
-4.90554e-301
-5.65533e-301
-6.22851e-301
-6.40823e-301
-7.75504e-301
-6.91271e-301
-9.50848e-301
-7.14606e-301
-1.15072e-300
-7.07905e-301
-1.37656e-300
-6.67198e-301
-1.6102e-300
-5.87208e-301
-2.06273e-300
-4.61217e-301
-1.1989e-300
-2.94103e-301
-5.75113e-301
-1.29454e-301
-2.92759e-301
-8.54899e-302
-1.83414e-301
-5.69246e-302
-1.22827e-301
-3.79384e-302
-8.44241e-302
-2.50764e-302
-5.84949e-302
-1.63408e-302
-4.04071e-302
-1.04469e-302
-2.75303e-302
-6.5081e-303
-1.82021e-302
-3.89391e-303
-2.15282e-303
-1.13206e-302
-9.49932e-302
-9.41072e-302
-1.82556e-301
-2.76162e-301
-2.76327e-301
-4.45194e-301
-3.82412e-301
-5.93794e-301
-5.05956e-301
-7.17439e-301
-6.50823e-301
-8.13807e-301
-8.19945e-301
-8.81565e-301
-1.0156e-300
-9.19249e-301
-1.23961e-300
-9.24469e-301
-1.49346e-300
-8.93455e-301
-1.75793e-300
-8.20814e-301
-2.25653e-300
-6.99319e-301
-1.3247e-300
-5.32934e-301
-6.27267e-301
-2.23555e-301
-3.15358e-301
-1.26835e-301
-1.96157e-301
-7.91642e-302
-1.30753e-301
-5.09442e-302
-8.9578e-302
-3.29519e-302
-6.19088e-302
-2.1186e-302
-4.26772e-302
-1.34454e-302
-2.90272e-302
-8.35889e-303
-1.91652e-302
-5.01828e-303
-2.80465e-303
-1.19071e-302
-8.94036e-302
-1.22063e-301
-1.70659e-301
-3.52656e-301
-2.62489e-301
-5.65203e-301
-3.71952e-301
-7.49996e-301
-5.04251e-301
-9.02679e-301
-6.62842e-301
-1.0223e-300
-8.5021e-301
-1.10916e-300
-1.06833e-300
-1.16311e-300
-1.31893e-300
-1.18264e-300
-1.60351e-300
-1.16442e-300
-1.90186e-300
-1.10326e-300
-2.44979e-300
-9.91958e-301
-1.45019e-300
-8.33984e-301
-6.77453e-301
-3.42489e-301
-3.36261e-301
-1.76069e-301
-2.07735e-301
-1.04332e-301
-1.37849e-301
-6.51605e-302
-9.4122e-302
-4.138e-302
-6.48696e-302
-2.63149e-302
-4.46122e-302
-1.66092e-302
-3.02811e-302
-1.03168e-302
-1.99586e-302
-6.21642e-303
-3.5078e-303
-1.23824e-302
-7.22684e-302
-1.60923e-301
-1.37981e-301
-4.52642e-301
-2.23388e-301
-7.17475e-301
-3.35282e-301
-9.43269e-301
-4.77472e-301
-1.12725e-300
-6.51878e-301
-1.27128e-300
-8.59881e-301
-1.37827e-300
-1.10288e-300
-1.44998e-300
-1.3824e-300
-1.48604e-300
-1.70004e-300
-1.48373e-300
-2.03463e-300
-1.43834e-300
-2.63429e-300
-1.34346e-300
-1.5682e-300
-1.20302e-300
-7.21579e-301
-4.84013e-301
-3.53771e-301
-2.29435e-301
-2.17233e-301
-1.29947e-301
-1.4352e-301
-7.91502e-302
-9.76441e-302
-4.95573e-302
-6.70884e-302
-3.12803e-302
-4.60125e-302
-1.96872e-302
-3.11577e-302
-1.22392e-302
-2.0495e-302
-7.4074e-303
-4.21764e-303
-1.26933e-302
-3.24369e-302
-2.18026e-301
-6.89416e-302
-5.86473e-301
-1.44205e-301
-9.1214e-301
-2.60192e-301
-1.18186e-300
-4.15965e-301
-1.39739e-300
-6.10068e-301
-1.56543e-300
-8.42057e-301
-1.69259e-300
-1.11263e-300
-1.78302e-300
-1.42324e-300
-1.83758e-300
-1.77562e-300
-1.85407e-300
-2.14774e-300
-1.82828e-300
-2.80018e-300
-1.75545e-300
-1.66794e-300
-1.64173e-300
-7.51898e-301
-6.34389e-301
-3.64971e-301
-2.77781e-301
-2.23078e-301
-1.51597e-301
-1.46764e-301
-9.07946e-302
-9.94821e-302
-5.64265e-302
-6.81308e-302
-3.5527e-302
-4.65979e-302
-2.23743e-302
-3.14796e-302
-1.39528e-302
-2.06652e-302
-8.49128e-303
-4.87756e-303
-1.27756e-302
5.79437e-302
-2.76527e-301
6.58561e-302
-7.42924e-301
-2.30387e-303
-1.13532e-300
-1.3125e-301
-1.44803e-300
-3.09343e-301
-1.69244e-300
-5.29804e-301
-1.88223e-300
-7.90291e-301
-2.02858e-300
-1.09137e-300
-2.13823e-300
-1.43498e-300
-2.21306e-300
-1.82321e-300
-2.25093e-300
-2.23281e-300
-2.24745e-300
-2.93742e-300
-2.19511e-300
-1.73123e-300
-2.14475e-300
-7.51469e-301
-7.4343e-301
-3.64728e-301
-3.03014e-301
-2.22532e-301
-1.63242e-301
-1.45955e-301
-9.77341e-302
-9.86641e-302
-6.09049e-302
-6.74204e-302
-3.84946e-302
-4.60288e-302
-2.43568e-302
-3.1048e-302
-1.52742e-302
-2.03544e-302
-9.35886e-303
-5.42369e-303
-1.25652e-302
2.77926e-301
-6.28044e-301
3.21721e-301
-1.22454e-300
2.33107e-301
-1.68296e-300
6.70148e-302
-2.03437e-300
-1.49756e-301
-2.30374e-300
-4.06114e-301
-2.51274e-300
-7.00041e-301
-2.67728e-300
-1.03414e-300
-2.80652e-300
-1.41236e-300
-2.90308e-300
-1.83756e-300
-2.96429e-300
-2.27936e-300
-2.98485e-300
-3.04048e-300
-2.96482e-300
-1.7292e-300
-1.82034e-300
-6.86112e-301
-6.47996e-301
-3.44113e-301
-2.86583e-301
-2.10944e-301
-1.61016e-301
-1.38813e-301
-9.85296e-302
-9.40494e-302
-6.22485e-302
-6.43755e-302
-3.97478e-302
-4.40016e-302
-2.53685e-302
-2.97019e-302
-1.60378e-302
-1.94767e-302
-9.90723e-303
-5.79363e-303
-1.2018e-302
8.22493e-301
-8.82367e-302
7.49797e-301
-5.63492e-301
5.68402e-301
-8.94982e-301
3.27511e-301
-1.13834e-300
5.35683e-302
-1.32111e-300
-2.46147e-301
-1.46123e-300
-5.75234e-301
-1.57079e-300
-9.42081e-301
-1.65626e-300
-1.35534e-300
-1.71861e-300
-1.8199e-300
-1.75271e-300
-2.33185e-300
-1.74519e-300
-1.94105e-300
-1.67664e-300
-9.35394e-301
-9.01576e-301
-4.64869e-301
-4.33435e-301
-2.80633e-301
-2.40802e-301
-1.82645e-301
-1.46807e-301
-1.2358e-301
-9.32779e-302
-8.50324e-302
-6.02565e-302
-5.87705e-302
-3.90825e-302
-4.04296e-302
-2.52529e-302
-2.74085e-302
-1.61332e-302
-1.80211e-302
-1.00618e-302
-5.93924e-303
-1.11316e-302
4.29141e-301
-3.16392e-301
3.09324e-301
-4.98126e-301
2.05979e-301
-5.99511e-301
9.95e-302
-6.7254e-301
-9.62011e-303
-7.26898e-301
-1.24912e-301
-7.66828e-301
-2.5076e-301
-7.95183e-301
-3.90726e-301
-8.13293e-301
-5.44059e-301
-8.20267e-301
-6.97492e-301
-8.11341e-301
-7.98177e-301
-7.73406e-301
-6.8156e-301
-6.80714e-301
-4.47622e-301
-4.56773e-301
-3.01386e-301
-2.95647e-301
-2.08605e-301
-1.91313e-301
-1.46146e-301
-1.25738e-301
-1.03083e-301
-8.3352e-302
-7.2776e-302
-5.53445e-302
-5.11563e-302
-3.66137e-302
-3.55998e-302
-2.40238e-302
-2.43268e-302
-1.55428e-302
-1.60786e-302
-9.79901e-303
-5.84007e-303
-9.95799e-303
5.78785e-302
-2.13851e-301
3.14221e-302
-2.89701e-301
9.94013e-303
-3.24454e-301
-1.84236e-302
-3.53187e-301
-5.31865e-302
-3.75921e-301
-9.43327e-302
-3.92304e-301
-1.41892e-301
-4.02633e-301
-1.9492e-301
-4.07272e-301
-2.49732e-301
-4.06157e-301
-2.97279e-301
-3.98253e-301
-3.19497e-301
-3.80837e-301
-2.98306e-301
-3.48046e-301
-2.47793e-301
-2.79653e-301
-1.95008e-301
-2.06628e-301
-1.48635e-301
-1.46903e-301
-1.10944e-301
-1.02627e-301
-8.16345e-302
-7.08831e-302
-5.93357e-302
-4.84612e-302
-4.25753e-302
-3.27718e-302
-3.00689e-302
-2.18776e-302
-2.07655e-302
-1.43548e-302
-1.38237e-302
-9.15634e-303
-5.51026e-303
-8.59464e-303
-3.41008e-302
-1.20511e-301
-3.13208e-302
-1.75919e-301
-3.24763e-302
-2.02056e-301
-4.00009e-302
-2.20808e-301
-5.31289e-302
-2.34681e-301
-7.1069e-302
-2.44214e-301
-9.30044e-302
-2.49797e-301
-1.17548e-301
-2.5179e-301
-1.42064e-301
-2.50347e-301
-1.62124e-301
-2.45109e-301
-1.71764e-301
-2.3472e-301
-1.67304e-301
-2.15923e-301
-1.50954e-301
-1.83805e-301
-1.28178e-301
-1.45834e-301
-1.03913e-301
-1.1029e-301
-8.14091e-302
-8.08237e-302
-6.21555e-302
-5.78953e-302
-4.64587e-302
-4.07093e-302
-3.40492e-302
-2.81462e-302
-2.44352e-302
-1.91285e-302
-1.70768e-302
-1.2736e-302
-1.14629e-302
-8.22177e-303
-4.9948e-303
-7.15915e-303
-4.09791e-302
-6.59478e-302
-3.93183e-302
-1.0759e-301
-3.78712e-302
-1.29662e-301
-3.96477e-302
-1.44455e-301
-4.49555e-302
-1.54726e-301
-5.33869e-302
-1.61489e-301
-6.42776e-302
-1.65317e-301
-7.65931e-302
-1.66609e-301
-8.87442e-302
-1.65554e-301
-9.85641e-302
-1.61973e-301
-1.03718e-301
-1.55083e-301
-1.0284e-301
-1.43339e-301
-9.61262e-302
-1.25322e-301
-8.50561e-302
-1.03484e-301
-7.17965e-302
-8.15422e-302
-5.83142e-302
-6.1971e-302
-4.58982e-302
-4.5769e-302
-3.5172e-302
-3.30067e-302
-2.62982e-302
-2.33027e-302
-1.91735e-302
-1.61139e-302
-1.35634e-302
-1.08845e-302
-9.18345e-303
-7.10947e-303
-4.35735e-303
-5.76209e-303
-3.22166e-302
-3.65438e-302
-3.3118e-302
-6.58089e-302
-3.25228e-302
-8.33582e-302
-3.30169e-302
-9.53195e-302
-3.53306e-302
-1.03523e-301
-3.9435e-302
-1.08872e-301
-4.49764e-302
-1.11928e-301
-5.13335e-302
-1.13064e-301
-5.76163e-302
-1.12464e-301
-6.27345e-302
-1.10046e-301
-6.56157e-302
-1.05379e-301
-6.55538e-302
-9.77573e-302
-6.23973e-302
-8.67714e-302
-5.66005e-302
-7.34422e-302
-4.91089e-302
-5.95275e-302
-4.09768e-302
-4.65031e-302
-3.30534e-302
-3.52136e-302
-2.58754e-302
-2.59563e-302
-1.96986e-302
-1.8674e-302
-1.45756e-302
-1.31229e-302
-1.04319e-302
-8.98524e-303
-7.12276e-303
-5.934e-303
-3.66578e-303
-4.48822e-303
-2.25244e-302
-2.05513e-302
-2.44719e-302
-4.02301e-302
-2.47625e-302
-5.33312e-302
-2.51648e-302
-6.26918e-302
-2.63484e-302
-6.92563e-302
-2.84436e-302
-7.36132e-302
-3.13163e-302
-7.61882e-302
-3.46438e-302
-7.72795e-302
-3.79544e-302
-7.70431e-302
-4.0688e-302
-7.54569e-302
-4.22987e-302
-7.23105e-302
-4.2381e-302
-6.73005e-302
-4.07631e-302
-6.03331e-302
-3.75778e-302
-5.19122e-302
-3.32438e-302
-4.293e-302
-2.83104e-302
-3.42474e-302
-2.32898e-302
-2.6461e-302
-1.85625e-302
-1.98689e-302
-1.43558e-302
-1.45327e-302
-1.0765e-302
-1.03616e-302
-7.78802e-303
-7.18294e-303
-5.35909e-303
-4.79149e-303
-2.98012e-303
-3.38905e-303
-1.48717e-302
-1.16797e-302
-1.68933e-302
-2.45556e-302
-1.75957e-302
-3.38901e-302
-1.80826e-302
-4.09222e-302
-1.88281e-302
-4.60369e-302
-1.99805e-302
-4.95407e-302
-2.1515e-302
-5.17018e-302
-2.32839e-302
-5.27272e-302
-2.50501e-302
-5.2736e-302
-2.65245e-302
-5.17391e-302
-2.74162e-302
-4.96484e-302
-2.74867e-302
-4.63483e-302
-2.66055e-302
-4.1848e-302
-2.47981e-302
-3.64283e-302
-2.22507e-302
-3.0572e-302
-1.92477e-302
-2.47849e-302
-1.60864e-302
-1.94624e-302
-1.30146e-302
-1.4841e-302
-1.02027e-302
-1.10106e-302
-7.74136e-303
-7.9509e-303
-5.655e-303
-5.57274e-303
-3.91845e-303
-3.75042e-303
-2.34557e-303
-2.48479e-303
-9.45916e-303
-6.67933e-303
-1.11507e-302
-1.49455e-302
-1.19198e-302
-2.13696e-302
-1.24271e-302
-2.64594e-302
-1.29699e-302
-3.03124e-302
-1.36628e-302
-3.30491e-302
-1.45201e-302
-3.48116e-302
-1.54833e-302
-3.57264e-302
-1.64393e-302
-3.58754e-302
-1.72406e-302
-3.52817e-302
-1.77299e-302
-3.39189e-302
-1.77684e-302
-3.17554e-302
-1.72675e-302
-2.88303e-302
-1.62203e-302
-2.53134e-302
-1.47089e-302
-2.14806e-302
-1.28798e-302
-1.76339e-302
-1.09023e-302
-1.40282e-302
-8.93097e-303
-1.08347e-302
-7.08278e-303
-8.13583e-303
-5.42953e-303
-5.93996e-303
-4.00016e-303
-4.20341e-303
-2.78854e-303
-2.85051e-303
-1.79037e-303
-1.77145e-303
-5.8457e-303
-3.83127e-303
-7.1131e-303
-9.05669e-303
-7.78082e-303
-1.33582e-302
-8.23467e-303
-1.6925e-302
-8.649e-303
-1.97322e-302
-9.09813e-303
-2.17995e-302
-9.6034e-303
-2.31861e-302
-1.01458e-302
-2.39592e-302
-1.06741e-302
-2.41694e-302
-1.11147e-302
-2.38398e-302
-1.13829e-302
-2.29709e-302
-1.1399e-302
-2.15658e-302
-1.11071e-302
-1.96668e-302
-1.04931e-302
-1.73824e-302
-9.59246e-303
-1.48768e-302
-8.48078e-303
-1.23334e-302
-7.25325e-303
-9.91475e-303
-6.00353e-303
-7.73876e-303
-4.80813e-303
-5.8703e-303
-3.71856e-303
-4.32632e-303
-2.75994e-303
-3.08682e-303
-1.9338e-303
-2.10677e-303
-1.32725e-303
-1.22947e-303
-3.52606e-303
-2.19864e-303
-4.41058e-303
-5.45536e-303
-4.92424e-303
-8.26928e-303
-5.28815e-303
-1.06986e-302
-5.60029e-303
-1.2681e-302
-5.9042e-303
-1.41917e-302
-6.21675e-303
-1.52434e-302
-6.53403e-303
-1.58651e-302
-6.83414e-303
-1.60845e-302
-7.08087e-303
-1.59193e-302
-7.22942e-303
-1.53791e-302
-7.23481e-303
-1.44781e-302
-7.06292e-303
-1.32533e-302
-6.70138e-303
-1.17756e-302
-6.165e-303
-1.0146e-302
-5.49264e-303
-8.47728e-303
-4.73746e-303
-6.87275e-303
-3.95515e-303
-5.41108e-303
-3.19405e-303
-4.13959e-303
-2.48903e-303
-3.07512e-303
-1.85913e-303
-2.20943e-303
-1.3081e-303
-1.51592e-303
-9.56781e-304
-8.31534e-304
-2.08248e-303
-1.25955e-303
-2.66853e-303
-3.26111e-303
-3.03372e-303
-5.06345e-303
-3.30278e-303
-6.67584e-303
-3.52933e-303
-8.03576e-303
-3.73704e-303
-9.10549e-303
-3.93664e-303
-9.87594e-303
-4.12873e-303
-1.03544e-302
-4.30435e-303
-1.05534e-302
-4.446e-303
-1.04844e-302
-4.5302e-303
-1.01578e-302
-4.532e-303
-9.58914e-303
-4.43123e-303
-8.80715e-303
-4.21892e-303
-7.85903e-303
-3.90096e-303
-6.808e-303
-3.49733e-303
-5.72407e-303
-3.03757e-303
-4.67263e-303
-2.55431e-303
-3.7052e-303
-2.07735e-303
-2.85465e-303
-1.62931e-303
-2.13476e-303
-1.22355e-303
-1.54274e-303
-8.63774e-304
-1.06297e-303
-6.71402e-304
-5.48485e-304
-1.20771e-303
-7.18962e-304
-1.58039e-303
-1.93164e-303
-1.82526e-303
-3.06315e-303
-2.01183e-303
-4.10775e-303
-2.16903e-303
-5.01564e-303
-2.30908e-303
-5.75103e-303
-2.43796e-303
-6.29743e-303
-2.55694e-303
-6.65161e-303
-2.66243e-303
-6.81704e-303
-2.74597e-303
-6.79995e-303
-2.79531e-303
-6.60871e-303
-2.79677e-303
-6.2562e-303
-2.73868e-303
-5.76349e-303
-2.61511e-303
-5.16186e-303
-2.42821e-303
-4.4913e-303
-2.1883e-303
-3.79554e-303
-1.91172e-303
-3.11577e-303