/*--------------------------------*- C++ -*----------------------------------*\
| =========                 |                                                 |
| \\      /  F ield         | OpenFOAM: The Open Source CFD Toolbox           |
|  \\    /   O peration     | Version:  2406                                  |
|   \\  /    A nd           | Website:  www.openfoam.com                      |
|    \\/     M anipulation  |                                                 |
\*---------------------------------------------------------------------------*/
FoamFile
{
    version     2.0;
    format      ascii;
    arch        "LSB;label=32;scalar=64";
    class       volVectorField;
    location    "0.6";
    object      U;
}
// * * * * * * * * * * * * * * * * * * * * * * * * * * * * * * * * * * * * * //

dimensions      [0 1 -1 0 0 0 0];

internalField   nonuniform List<vector> 
2268
(
(-1.76892e-300 -5.19037e-301 0)
(-5.07834e-300 -2.23797e-300 0)
(-8.557e-300 -2.89602e-300 0)
(-1.22507e-299 -2.91011e-300 0)
(-1.62835e-299 -2.17832e-300 0)
(-2.07083e-299 -4.08839e-301 0)
(-2.54847e-299 2.88088e-300 0)
(-3.04106e-299 8.43433e-300 0)
(-3.49501e-299 1.74514e-299 0)
(-3.7693e-299 3.2037e-299 0)
(-3.38349e-299 5.62961e-299 0)
(-3.54408e-300 9.38316e-299 0)
(1.89948e-298 1.60848e-298 0)
(7.41146e-300 6.64252e-299 0)
(-8.68112e-299 1.50294e-299 0)
(-5.69449e-299 -7.51055e-300 0)
(-3.35412e-299 -9.03595e-300 0)
(-1.94247e-299 -6.45356e-300 0)
(-1.12243e-299 -3.6978e-300 0)
(-6.41436e-300 -1.6912e-300 0)
(-3.5024e-300 -4.46099e-301 0)
(-1.65939e-300 1.67638e-301 0)
(-3.29213e-301 1.9115e-301 0)
(-5.51261e-300 -1.08888e-300 0)
(-1.5707e-299 -5.33791e-300 0)
(-2.61456e-299 -7.17298e-300 0)
(-3.72538e-299 -7.07753e-300 0)
(-4.93477e-299 -4.70447e-300 0)
(-6.25557e-299 7.97111e-301 0)
(-7.67305e-299 1.07941e-299 0)
(-9.124e-299 2.73907e-299 0)
(-1.04503e-298 5.38244e-299 0)
(-1.12783e-298 9.53697e-299 0)
(-1.06661e-298 1.61227e-298 0)
(-5.88323e-299 2.69218e-298 0)
(8.09208e-299 4.36267e-298 0)
(-5.71004e-299 1.53212e-298 0)
(-1.16074e-298 2.454e-299 0)
(-7.76374e-299 -3.96881e-300 0)
(-4.91651e-299 -8.14862e-300 0)
(-3.03382e-299 -6.45532e-300 0)
(-1.85399e-299 -3.84228e-300 0)
(-1.12033e-299 -1.69603e-300 0)
(-6.56025e-300 -2.28623e-301 0)
(-3.49031e-300 6.07029e-301 0)
(-1.04152e-300 6.90286e-301 0)
(-9.24769e-300 -1.85327e-300 0)
(-2.66469e-299 -8.24524e-300 0)
(-4.44766e-299 -1.11837e-299 0)
(-6.34651e-299 -1.09563e-299 0)
(-8.41621e-299 -6.90953e-300 0)
(-1.06835e-298 2.33853e-300 0)
(-1.31333e-298 1.90138e-299 0)
(-1.56801e-298 4.64544e-299 0)
(-1.81083e-298 8.97661e-299 0)
(-1.9942e-298 1.56983e-298 0)
(-2.0162e-298 2.61838e-298 0)
(-1.63854e-298 4.31301e-298 0)
(-7.47459e-299 6.85028e-298 0)
(-1.29499e-298 2.15722e-298 0)
(-1.36846e-298 3.32744e-299 0)
(-9.2807e-299 3.9777e-301 0)
(-6.10616e-299 -6.02688e-300 0)
(-3.91886e-299 -5.50319e-300 0)
(-2.48336e-299 -3.38341e-300 0)
(-1.55584e-299 -1.37402e-300 0)
(-9.51526e-300 1.3399e-301 0)
(-5.40724e-300 1.10183e-300 0)
(-1.9639e-300 1.264e-300 0)
(-1.3167e-299 -2.68013e-300 0)
(-3.82956e-299 -1.11055e-299 0)
(-6.40999e-299 -1.51358e-299 0)
(-9.16027e-299 -1.4774e-299 0)
(-1.21617e-298 -9.04777e-300 0)
(-1.5461e-298 3.97124e-300 0)
(-1.90541e-298 2.72803e-299 0)
(-2.28543e-298 6.53878e-299 0)
(-2.66333e-298 1.25009e-298 0)
(-2.99099e-298 2.16601e-298 0)
(-3.17727e-298 3.57386e-298 0)
(-3.0426e-298 5.79145e-298 0)
(-2.63237e-298 8.9446e-298 0)
(-2.00751e-298 2.62824e-298 0)
(-1.60427e-298 4.27236e-299 0)
(-1.08995e-298 4.76071e-300 0)
(-7.3208e-299 -3.71807e-300 0)
(-4.82685e-299 -4.31498e-300 0)
(-3.14524e-299 -2.74861e-300 0)
(-2.0299e-299 -9.52001e-301 0)
(-1.28818e-299 5.44096e-301 0)
(-7.74018e-300 1.63813e-300 0)
(-3.23799e-300 1.95277e-300 0)
(-1.74318e-299 -3.56956e-300 0)
(-5.10158e-299 -1.40991e-299 0)
(-8.5557e-299 -1.92779e-299 0)
(-1.22381e-298 -1.88373e-299 0)
(-1.62592e-298 -1.144e-299 0)
(-2.06915e-298 5.33655e-300 0)
(-2.55523e-298 3.5258e-299 0)
(-3.07729e-298 8.38337e-299 0)
(-3.61457e-298 1.59252e-298 0)
(-4.12408e-298 2.73902e-298 0)
(-4.53067e-298 4.47634e-298 0)
(-4.70137e-298 7.13956e-298 0)
(-4.74116e-298 1.07587e-297 0)
(-2.75172e-298 3.04179e-298 0)
(-1.88982e-298 5.23836e-299 0)
(-1.27746e-298 8.91811e-300 0)
(-8.6787e-299 -1.50833e-300 0)
(-5.83332e-299 -3.13026e-300 0)
(-3.88643e-299 -2.10052e-300 0)
(-2.57235e-299 -5.37037e-301 0)
(-1.68663e-299 9.20905e-301 0)
(-1.06638e-299 2.13949e-300 0)
(-4.9967e-300 2.69406e-300 0)
(-2.21802e-299 -4.55036e-300 0)
(-6.5154e-299 -1.73757e-299 0)
(-1.09387e-298 -2.38517e-299 0)
(-1.56516e-298 -2.34285e-299 0)
(-2.07964e-298 -1.44286e-299 0)
(-2.64765e-298 6.09894e-300 0)
(-3.27395e-298 4.25758e-299 0)
(-3.95489e-298 1.01476e-298 0)
(-4.67413e-298 1.92161e-298 0)
(-5.39641e-298 3.28641e-298 0)
(-6.06199e-298 5.3246e-298 0)
(-6.56662e-298 8.37727e-298 0)
(-7.029e-298 1.2403e-297 0)
(-3.55215e-298 3.43259e-298 0)
(-2.22638e-298 6.20731e-299 0)
(-1.49513e-298 1.28855e-299 0)
(-1.0229e-298 5.4748e-301 0)
(-6.97522e-299 -2.02682e-300 0)
(-4.73152e-299 -1.50783e-300 0)
(-3.19902e-299 -1.90317e-301 0)
(-2.1581e-299 1.19112e-300 0)
(-1.43068e-299 2.49016e-300 0)
(-7.46476e-300 3.29529e-300 0)
(-2.75373e-299 -5.66913e-300 0)
(-8.10506e-299 -2.10884e-299 0)
(-1.3613e-298 -2.90863e-299 0)
(-1.94732e-298 -2.88651e-299 0)
(-2.58618e-298 -1.83549e-299 0)
(-3.29175e-298 5.85538e-300 0)
(-4.07246e-298 4.88651e-299 0)
(-4.92897e-298 1.17917e-298 0)
(-5.85068e-298 2.23435e-298 0)
(-6.8113e-298 3.80538e-298 0)
(-7.76489e-298 6.11931e-298 0)
(-8.62611e-298 9.52045e-298 0)
(-9.49343e-298 1.39504e-297 0)
(-4.42048e-298 3.81193e-298 0)
(-2.61011e-298 7.17899e-299 0)
(-1.74378e-298 1.67568e-299 0)
(-1.19944e-298 2.48342e-300 0)
(-8.27408e-299 -1.01515e-300 0)
(-5.69613e-299 -9.98068e-301 0)
(-3.91921e-299 4.95169e-302 0)
(-2.70658e-299 1.28512e-300 0)
(-1.87109e-299 2.52577e-300 0)
(-1.10082e-299 3.31103e-300 0)
(-3.36168e-299 -6.9984e-300 0)
(-9.90459e-299 -2.53791e-299 0)
(-1.66339e-298 -3.52425e-299 0)
(-2.37769e-298 -3.54707e-299 0)
(-3.1546e-298 -2.36341e-299 0)
(-4.01175e-298 4.19432e-300 0)
(-4.96177e-298 5.36648e-299 0)
(-6.01021e-298 1.32782e-298 0)
(-7.15304e-298 2.5272e-298 0)
(-8.37337e-298 4.29463e-298 0)
(-9.6388e-298 6.86204e-298 0)
(-1.08859e-297 1.05756e-297 0)
(-1.21645e-297 1.53931e-297 0)
(-5.35921e-298 4.17091e-298 0)
(-3.03347e-298 8.15514e-299 0)
(-2.02053e-298 2.06634e-299 0)
(-1.39677e-298 4.37848e-300 0)
(-9.72976e-299 -6.58679e-302 0)
(-6.78006e-299 -5.69651e-301 0)
(-4.72877e-299 1.66936e-301 0)
(-3.3195e-299 1.15578e-300 0)
(-2.3614e-299 2.03602e-300 0)
(-1.62367e-299 1.88027e-300 0)
(-3.29947e-304 -9.71262e-304 0)
(-1.91829e-303 -6.95072e-303 0)
(-1.03264e-303 -6.28201e-303 0)
(-1.03757e-303 -3.4026e-303 0)
(-1.11748e-303 -1.43724e-303 0)
(-9.46092e-304 -5.10037e-304 0)
(-6.58256e-304 -1.50478e-304 0)
(-3.98888e-304 -3.0967e-305 0)
(-2.18511e-304 1.57544e-306 0)
(-1.1062e-304 6.88001e-306 0)
(-5.24031e-305 5.42838e-306 0)
(-2.33746e-305 3.2679e-306 0)
(-9.83068e-306 1.72921e-306 0)
(-3.88497e-306 8.37248e-307 0)
(-1.42857e-306 3.74495e-307 0)
(-4.78589e-307 1.53616e-307 0)
(-1.39253e-307 5.60699e-308 0)
(-3.05276e-308 1.61216e-308 0)
(-1.97322e-309 1.80646e-309 0)
(-2.70364e-304 -4.25132e-303 0)
(-4.51243e-303 -1.68157e-302 0)
(-4.16426e-303 -1.35133e-302 0)
(-4.14753e-303 -7.09319e-303 0)
(-3.61559e-303 -2.93659e-303 0)
(-2.68397e-303 -9.93645e-304 0)
(-1.74806e-303 -2.48485e-304 0)
(-1.02972e-303 -1.32031e-305 0)
(-5.60522e-304 3.85259e-305 0)
(-2.85857e-304 3.61086e-305 0)
(-1.37693e-304 2.36976e-305 0)
(-6.28917e-305 1.34012e-305 0)
(-2.72501e-305 6.91915e-306 0)
(-1.1163e-305 3.33121e-306 0)
(-4.28657e-306 1.50418e-306 0)
(-1.51545e-306 6.34271e-307 0)
(-4.73664e-307 2.45179e-307 0)
(-1.16194e-307 8.06163e-308 0)
(-9.0161e-309 1.34264e-308 0)
(-5.62583e-304 -1.1345e-302 0)
(-9.15783e-303 -3.14571e-302 0)
(-9.99175e-303 -2.27232e-302 0)
(-9.53274e-303 -1.13631e-302 0)
(-7.61014e-303 -4.55482e-303 0)
(-5.28597e-303 -1.47202e-303 0)
(-3.30445e-303 -3.1666e-304 0)
(-1.90417e-303 3.22331e-305 0)
(-1.02742e-303 9.54458e-305 0)
(-5.24184e-304 7.81657e-305 0)
(-2.54317e-304 4.96071e-305 0)
(-1.17628e-304 2.78289e-305 0)
(-5.18524e-305 1.44087e-305 0)
(-2.17106e-305 7.00469e-306 0)
(-8.56684e-306 3.21516e-306 0)
(-3.13526e-306 1.39061e-306 0)
(-1.02706e-306 5.60023e-307 0)
(-2.71224e-307 1.9863e-307 0)
(-2.60324e-308 4.02427e-308 0)
(-3.09972e-303 -2.78001e-302 0)
(-1.90937e-302 -5.61202e-302 0)
(-2.14864e-302 -3.62633e-302 0)
(-1.92284e-302 -1.71059e-302 0)
(-1.43636e-302 -6.59633e-303 0)
(-9.49853e-303 -2.03366e-303 0)
(-5.75208e-303 -3.7092e-304 0)
(-3.25479e-303 1.10044e-304 0)
(-1.7419e-303 1.80298e-304 0)
(-8.88084e-304 1.39453e-304 0)
(-4.33029e-304 8.73558e-305 0)
(-2.02222e-304 4.90336e-305 0)
(-9.03681e-305 2.55693e-305 0)
(-3.85095e-305 1.25772e-305 0)
(-1.55346e-305 5.86897e-306 0)
(-5.8469e-306 2.59771e-306 0)
(-1.98917e-306 1.08289e-306 0)
(-5.56792e-307 4.07434e-307 0)
(-6.30858e-308 9.4943e-308 0)
(-1.40039e-302 -6.57281e-302 0)
(-4.06497e-302 -9.72517e-302 0)
(-4.37996e-302 -5.6041e-302 0)
(-3.63448e-302 -2.48741e-302 0)
(-2.5612e-302 -9.23251e-303 0)
(-1.62736e-302 -2.72924e-303 0)
(-9.60946e-303 -4.20686e-304 0)
(-5.36082e-303 2.2379e-304 0)
(-2.85175e-303 2.99211e-304 0)
(-1.45408e-303 2.25251e-304 0)
(-7.1247e-304 1.40657e-304 0)
(-3.35653e-304 7.93624e-305 0)
(-1.51841e-304 4.17819e-305 0)
(-6.57229e-305 2.08182e-305 0)
(-2.7031e-305 9.8757e-306 0)
(-1.04249e-305 4.46658e-306 0)
(-3.66394e-306 1.91972e-306 0)
(-1.07744e-306 7.58993e-307 0)
(-1.3956e-307 1.98418e-307 0)
(-5.23868e-302 -1.53199e-301 0)
(-8.725e-302 -1.62918e-301 0)
(-8.55838e-302 -8.35494e-302 0)
(-6.54414e-302 -3.49889e-302 0)
(-4.37218e-302 -1.25693e-302 0)
(-2.68629e-302 -3.59707e-303 0)
(-1.55484e-302 -4.75133e-304 0)
(-8.58343e-303 3.7573e-304 0)
(-4.54937e-303 4.57486e-304 0)
(-2.323e-303 3.40531e-304 0)
(-1.14437e-303 2.13203e-304 0)
(-5.43813e-304 1.21246e-304 0)
(-2.48866e-304 6.45264e-305 0)
(-1.09282e-304 3.25783e-305 0)
(-4.57448e-305 1.57032e-305 0)
(-1.80324e-305 7.24599e-306 0)
(-6.52354e-306 3.20012e-306 0)
(-2.00351e-306 1.32001e-306 0)
(-2.91554e-307 3.82113e-307 0)
(-1.73056e-301 -3.48742e-301 0)
(-1.87128e-301 -2.60223e-301 0)
(-1.60658e-301 -1.19266e-301 0)
(-1.12929e-301 -4.7536e-302 0)
(-7.18934e-302 -1.66878e-302 0)
(-4.2959e-302 -4.68229e-303 0)
(-2.44887e-302 -5.49572e-304 0)
(-1.34249e-302 5.65453e-304 0)
(-7.10675e-303 6.59811e-304 0)
(-3.63974e-303 4.90502e-304 0)
(-1.80433e-303 3.09131e-304 0)
(-8.65174e-304 1.77516e-304 0)
(-4.00476e-304 9.55729e-305 0)
(-1.78302e-304 4.88942e-305 0)
(-7.58793e-305 2.39285e-305 0)
(-3.052e-305 1.12444e-305 0)
(-1.13332e-305 5.08342e-306 0)
(-3.61592e-306 2.16831e-306 0)
(-5.84138e-307 6.81e-307 0)
(-5.04515e-301 -8.12166e-301 0)
(-3.9636e-301 -3.85555e-301 0)
(-2.85637e-301 -1.60783e-301 0)
(-1.85477e-301 -6.21154e-302 0)
(-1.13347e-301 -2.16042e-302 0)
(-6.62752e-302 -6.03634e-303 0)
(-3.73746e-302 -6.75019e-304 0)
(-2.04085e-302 7.79475e-304 0)
(-1.08112e-302 9.02053e-304 0)
(-5.55963e-303 6.74975e-304 0)
(-2.77456e-303 4.2947e-304 0)
(-1.34218e-303 2.4929e-304 0)
(-6.27976e-304 1.35775e-304 0)
(-2.8314e-304 7.03227e-305 0)
(-1.22284e-304 3.48805e-305 0)
(-5.0059e-305 1.66408e-305 0)
(-1.90096e-305 7.65746e-306 0)
(-6.26535e-306 3.33772e-306 0)
(-1.12284e-306 1.1047e-306 0)
(-4.41521e-299 -9.48255e-300 0)
(-1.30231e-298 -3.30832e-299 0)
(-2.18614e-298 -4.64873e-299 0)
(-3.12084e-298 -4.79854e-299 0)
(-4.13353e-298 -3.44792e-299 0)
(-5.2482e-298 -1.33868e-300 0)
(-6.48443e-298 5.79883e-299 0)
(-7.85614e-298 1.52408e-298 0)
(-9.37001e-298 2.94121e-298 0)
(-1.10241e-297 4.9979e-298 0)
(-1.2807e-297 7.9267e-298 0)
(-1.46934e-297 1.20486e-297 0)
(-1.67021e-297 1.72005e-297 0)
(-6.90712e-298 4.66634e-298 0)
(-3.73371e-298 9.69697e-299 0)
(-2.48034e-298 2.71224e-299 0)
(-1.7257e-298 7.52665e-300 0)
(-1.21592e-298 1.49571e-300 0)
(-8.58793e-299 9.27351e-302 0)
(-6.06995e-299 2.44276e-301 0)
(-4.30523e-299 6.89464e-301 0)
(-3.07555e-299 7.24444e-301 0)
(-2.19432e-299 -4.28006e-301 0)
(-5.9284e-299 -1.37081e-299 0)
(-1.74951e-298 -4.57795e-299 0)
(-2.93597e-298 -6.57703e-299 0)
(-4.18816e-298 -7.10523e-299 0)
(-5.54236e-298 -5.77079e-299 0)
(-7.03233e-298 -2.0193e-299 0)
(-8.68845e-298 4.88791e-299 0)
(-1.05368e-297 1.59278e-298 0)
(-1.25984e-297 3.23644e-298 0)
(-1.4889e-297 5.58459e-298 0)
(-1.74189e-297 8.85038e-298 0)
(-2.01937e-297 1.33003e-297 0)
(-2.3206e-297 1.86551e-297 0)
(-9.14363e-298 5.11805e-298 0)
(-4.73873e-298 1.14121e-298 0)
(-3.12073e-298 3.50238e-299 0)
(-2.17249e-298 1.16119e-299 0)
(-1.53865e-298 3.58558e-300 0)
(-1.09361e-298 9.61711e-301 0)
(-7.75881e-299 2.78388e-301 0)
(-5.47474e-299 8.14602e-302 0)
(-3.81041e-299 -3.48188e-301 0)
(-2.53904e-299 -1.39133e-300 0)
(-7.52397e-299 -1.92465e-299 0)
(-2.21707e-298 -6.2432e-299 0)
(-3.718e-298 -9.17728e-299 0)
(-5.30019e-298 -1.03818e-298 0)
(-7.00996e-298 -9.38124e-299 0)
(-8.89148e-298 -5.54914e-299 0)
(-1.0986e-297 1.92662e-299 0)
(-1.33309e-297 1.40634e-298 0)
(-1.59597e-297 3.21348e-298 0)
(-1.89009e-297 5.76931e-298 0)
(-2.21782e-297 9.26272e-298 0)
(-2.58127e-297 1.39044e-297 0)
(-2.9771e-297 1.93351e-297 0)
(-1.14703e-297 5.36814e-298 0)
(-5.79891e-298 1.25164e-298 0)
(-3.78104e-298 4.03068e-299 0)
(-2.62271e-298 1.44028e-299 0)
(-1.85669e-298 5.01024e-300 0)
(-1.32008e-298 1.51863e-300 0)
(-9.35173e-299 2.54954e-301 0)
(-6.55479e-299 -2.98316e-301 0)
(-4.48997e-299 -8.00628e-301 0)
(-2.9182e-299 -1.42594e-300 0)
(-9.21349e-299 -2.67053e-299 0)
(-2.70695e-298 -8.48887e-299 0)
(-4.53403e-298 -1.27501e-298 0)
(-6.45747e-298 -1.50246e-298 0)
(-8.53433e-298 -1.47627e-298 0)
(-1.08195e-297 -1.12624e-298 0)
(-1.33646e-297 -3.66092e-299 0)
(-1.62177e-297 9.0973e-299 0)
(-1.94218e-297 2.82615e-298 0)
(-2.30147e-297 5.5296e-298 0)
(-2.70279e-297 9.18534e-298 0)
(-3.14895e-297 1.39624e-297 0)
(-3.63505e-297 1.94512e-297 0)
(-1.38757e-297 5.46406e-298 0)
(-6.9144e-298 1.3017e-298 0)
(-4.46711e-298 4.24938e-299 0)
(-3.08321e-298 1.54586e-299 0)
(-2.17673e-298 5.47282e-300 0)
(-1.54456e-298 1.60746e-300 0)
(-1.09134e-298 1.1474e-301 0)
(-7.61425e-299 -5.18849e-301 0)
(-5.17838e-299 -9.08886e-301 0)
(-3.34338e-299 -1.19972e-300 0)
(-1.10047e-298 -3.67635e-299 0)
(-3.22036e-298 -1.15192e-298 0)
(-5.38523e-298 -1.76238e-298 0)
(-7.66049e-298 -2.14787e-298 0)
(-1.01148e-297 -2.24499e-298 0)
(-1.2814e-297 -1.97701e-298 0)
(-1.58203e-297 -1.2514e-298 0)
(-1.91908e-297 3.96229e-300 0)
(-2.29772e-297 2.02092e-298 0)
(-2.72239e-297 4.83081e-298 0)
(-3.19675e-297 8.6198e-298 0)
(-3.72402e-297 1.35284e-297 0)
(-4.29864e-297 1.91194e-297 0)
(-1.6365e-297 5.43129e-298 0)
(-8.08359e-298 1.29275e-298 0)
(-5.18104e-298 4.13208e-299 0)
(-3.55772e-298 1.4472e-299 0)
(-2.503e-298 4.71515e-300 0)
(-1.7713e-298 1.03033e-300 0)
(-1.24833e-298 -3.0857e-301 0)
(-8.68434e-299 -7.71118e-301 0)
(-5.88862e-299 -9.3814e-301 0)
(-3.798e-299 -9.6827e-301 0)
(-1.29032e-298 -5.02034e-299 0)
(-3.75788e-298 -1.55633e-298 0)
(-6.27193e-298 -2.41748e-298 0)
(-8.90941e-298 -3.02465e-298 0)
(-1.17515e-297 -3.30615e-298 0)
(-1.4876e-297 -3.17679e-298 0)
(-1.83556e-297 -2.53858e-298 0)
(-2.22567e-297 -1.27867e-298 0)
(-2.66381e-297 7.28114e-299 0)
(-3.15504e-297 3.6186e-298 0)
(-3.70343e-297 7.5349e-298 0)
(-4.31249e-297 1.26057e-297 0)
(-4.97655e-297 1.83772e-297 0)
(-1.89559e-297 5.27257e-298 0)
(-9.3072e-298 1.22054e-298 0)
(-5.92388e-298 3.63293e-299 0)
(-4.04803e-298 1.10451e-299 0)
(-2.83776e-298 2.41256e-300 0)
(-2.00259e-298 -4.76622e-301 0)
(-1.40805e-298 -1.24239e-300 0)
(-9.77613e-299 -1.27017e-300 0)
(-6.62001e-299 -1.08854e-300 0)
(-4.27096e-299 -8.49681e-301 0)
(-1.49111e-298 -6.7926e-299 0)
(-4.31874e-298 -2.08881e-298 0)
(-7.19253e-298 -3.28344e-298 0)
(-1.02022e-297 -4.19166e-298 0)
(-1.34434e-297 -4.73096e-298 0)
(-1.70067e-297 -4.80788e-298 0)
(-2.09764e-297 -4.31604e-298 0)
(-2.54282e-297 -3.13763e-298 0)
(-3.04286e-297 -1.14196e-298 0)
(-3.60332e-297 1.80952e-298 0)
(-4.22872e-297 5.86166e-298 0)
(-4.92282e-297 1.11421e-297 0)
(-5.68008e-297 1.71923e-297 0)
(-2.16751e-297 4.9669e-298 0)
(-1.05887e-297 1.07208e-298 0)
(-6.69666e-298 2.66329e-299 0)
(-4.55496e-298 4.54386e-300 0)
(-3.18193e-298 -1.9009e-300 0)
(-2.23934e-298 -3.26541e-300 0)
(-1.57117e-298 -2.96265e-300 0)
(-1.08916e-298 -2.23734e-300 0)
(-7.36919e-299 -1.52534e-300 0)
(-4.75607e-299 -9.28781e-301 0)
(-1.70222e-298 -9.10067e-299 0)
(-4.89943e-298 -2.78039e-298 0)
(-8.14094e-298 -4.41128e-298 0)
(-1.15315e-297 -5.71716e-298 0)
(-1.51834e-297 -6.60376e-298 0)
(-1.92024e-297 -6.96622e-298 0)
(-2.36851e-297 -6.69023e-298 0)
(-2.87179e-297 -5.64904e-298 0)
(-3.43746e-297 -3.70551e-298 0)
(-4.07168e-297 -7.11536e-299 0)
(-4.77934e-297 3.4865e-298 0)
(-5.56453e-297 9.03003e-298 0)
(-6.42167e-297 1.54618e-297 0)
(-2.45549e-297 4.46762e-298 0)
(-1.19331e-297 8.23768e-299 0)
(-7.50018e-298 1.0787e-299 0)
(-5.07841e-298 -5.98198e-300 0)
(-3.53537e-298 -8.87193e-300 0)
(-2.48146e-298 -7.78774e-300 0)
(-1.73753e-298 -5.79206e-300 0)
(-1.20278e-298 -3.90367e-300 0)
(-8.13197e-299 -2.40321e-300 0)
(-5.24919e-299 -1.28773e-300 0)
(-1.92155e-298 -1.20726e-298 0)
(-5.49144e-298 -3.66829e-298 0)
(-9.10313e-298 -5.86091e-298 0)
(-1.28794e-297 -7.68248e-298 0)
(-1.6953e-297 -9.02281e-298 0)
(-2.14469e-297 -9.76573e-298 0)
(-2.64727e-297 -9.78589e-298 0)
(-3.21276e-297 -8.94866e-298 0)
(-3.8494e-297 -7.10545e-298 0)
(-4.56389e-297 -4.09646e-298 0)
(-5.36159e-297 2.51201e-299 0)
(-6.24682e-297 6.10171e-298 0)
(-7.21366e-297 1.3011e-297 0)
(-2.76288e-297 3.69912e-298 0)
(-1.33449e-297 4.39856e-299 0)
(-8.33417e-298 -1.32839e-299 0)
(-5.61715e-298 -2.18281e-299 0)
(-3.89689e-298 -1.93334e-299 0)
(-2.728e-298 -1.45891e-299 0)
(-1.90639e-298 -1.00931e-299 0)
(-1.31786e-298 -6.50986e-300 0)
(-8.90306e-299 -3.87498e-300 0)
(-5.74643e-299 -2.01173e-300 0)
(-2.1445e-298 -1.58664e-298 0)
(-6.07812e-298 -4.79708e-298 0)
(-1.00517e-297 -7.70482e-298 0)
(-1.42111e-297 -1.01834e-297 0)
(-1.87135e-297 -1.21049e-297 0)
(-2.37033e-297 -1.33384e-297 0)
(-2.93082e-297 -1.375e-297 0)
(-3.56381e-297 -1.31947e-297 0)
(-4.27835e-297 -1.15145e-297 0)
(-5.08178e-297 -8.53149e-298 0)
(-5.9798e-297 -4.05028e-298 0)
(-6.97712e-297 2.13013e-298 0)
(-8.06659e-297 9.5862e-298 0)
(-3.09252e-297 2.55292e-298 0)
(-1.48253e-297 -1.28758e-299 0)
(-9.19601e-298 -4.82963e-299 0)
(-6.16832e-298 -4.46076e-299 0)
(-4.26414e-298 -3.42671e-299 0)
(-2.97719e-298 -2.42756e-299 0)
(-2.07645e-298 -1.62447e-299 0)
(-1.43342e-298 -1.02937e-299 0)
(-9.67544e-299 -6.08662e-300 0)
(-6.2431e-299 -3.18413e-300 0)
(-2.3626e-298 -2.0679e-298 0)
(-6.62997e-298 -6.22217e-298 0)
(-1.0939e-297 -1.00306e-297 0)
(-1.54652e-297 -1.33358e-297 0)
(-2.0397e-297 -1.59863e-297 0)
(-2.59027e-297 -1.78385e-297 0)
(-3.21286e-297 -1.87497e-297 0)
(-3.91966e-297 -1.85702e-297 0)
(-4.72065e-297 -1.71305e-297 0)
(-5.62366e-297 -1.42377e-297 0)
(-6.63482e-297 -9.66601e-298 0)
(-7.75915e-297 -3.17217e-298 0)
(-8.98725e-297 4.85589e-298 0)
(-3.44592e-297 8.84259e-299 0)
(-1.63687e-297 -9.44622e-299 0)
(-1.00793e-297 -9.75111e-299 0)
(-6.72677e-298 -7.61352e-299 0)
(-4.63336e-298 -5.47043e-299 0)
(-3.22635e-298 -3.74409e-299 0)
(-2.24579e-298 -2.45944e-299 0)
(-1.54811e-298 -1.54618e-299 0)
(-1.04396e-298 -9.16106e-300 0)
(-6.73294e-299 -4.87586e-300 0)
(-2.56136e-298 -2.67682e-298 0)
(-7.09782e-298 -8.01332e-298 0)
(-1.16864e-297 -1.29478e-297 0)
(-1.65427e-297 -1.7279e-297 0)
(-2.18928e-297 -2.08292e-297 0)
(-2.79324e-297 -2.34423e-297 0)
(-3.48253e-297 -2.49752e-297 0)
(-4.27052e-297 -2.52769e-297 0)
(-5.16784e-297 -2.41754e-297 0)
(-6.18286e-297 -2.14613e-297 0)
(-7.32201e-297 -1.68822e-297 0)
(-8.59087e-297 -1.01429e-297 0)
(-9.97602e-297 -1.58851e-298 0)
(-3.82217e-297 -1.48799e-298 0)
(-1.79595e-297 -2.08125e-298 0)
(-1.09725e-297 -1.6443e-298 0)
(-7.28455e-298 -1.18169e-298 0)
(-4.99913e-298 -8.15376e-299 0)
(-3.47172e-298 -5.4543e-299 0)
(-2.41177e-298 -3.53825e-299 0)
(-1.66006e-298 -2.21457e-299 0)
(-1.11824e-298 -1.31734e-299 0)
(-7.20716e-299 -7.13107e-300 0)
(-2.71692e-298 -3.44851e-298 0)
(-7.40109e-298 -1.02629e-297 0)
(-1.21688e-297 -1.65954e-297 0)
(-1.72893e-297 -2.21854e-297 0)
(-2.30335e-297 -2.68239e-297 0)
(-2.96225e-297 -3.03519e-297 0)
(-3.72342e-297 -3.26345e-297 0)
(-4.60083e-297 -3.35348e-297 0)
(-5.60556e-297 -3.28842e-297 0)
(-6.74624e-297 -3.04678e-297 0)
(-8.0297e-297 -2.60066e-297 0)
(-9.46211e-297 -1.91589e-297 0)
(-1.10244e-296 -1.0214e-297 0)
(-4.21652e-297 -4.77435e-298 0)
(-1.95673e-297 -3.61531e-298 0)
(-1.18574e-297 -2.52137e-298 0)
(-7.83025e-298 -1.71941e-298 0)
(-5.35393e-298 -1.15221e-298 0)
(-3.70813e-298 -7.57248e-299 0)
(-2.5707e-298 -4.86413e-299 0)
(-1.76659e-298 -3.03462e-299 0)
(-1.18851e-298 -1.81212e-299 0)
(-7.65307e-299 -9.95092e-300 0)
(-2.78933e-298 -4.43485e-298 0)
(-7.40723e-298 -1.30974e-297 0)
(-1.21883e-297 -2.1157e-297 0)
(-1.74726e-297 -2.8269e-297 0)
(-2.35754e-297 -3.41972e-297 0)
(-3.07338e-297 -3.8793e-297 0)
(-3.91255e-297 -4.19538e-297 0)
(-4.88872e-297 -4.35713e-297 0)
(-6.01268e-297 -4.34989e-297 0)
(-7.29327e-297 -4.1523e-297 0)
(-8.73754e-297 -3.73532e-297 0)
(-1.03528e-296 -3.06065e-297 0)
(-1.21121e-296 -2.15197e-297 0)
(-4.61879e-297 -9.19373e-298 0)
(-2.11429e-297 -5.60907e-298 0)
(-1.27076e-297 -3.6208e-298 0)
(-8.34785e-298 -2.37415e-298 0)
(-5.68717e-298 -1.55353e-298 0)
(-3.92811e-298 -1.00593e-298 0)
(-2.71717e-298 -6.40812e-299 0)
(-1.8638e-298 -3.98763e-299 0)
(-1.25198e-298 -2.38942e-299 0)
(-8.05209e-299 -1.3278e-299 0)
(-2.70733e-298 -5.71933e-298 0)
(-6.88923e-298 -1.67005e-297 0)
(-1.14293e-297 -2.68795e-297 0)
(-1.67463e-297 -3.58014e-297 0)
(-2.3179e-297 -4.32146e-297 0)
(-3.09471e-297 -4.90169e-297 0)
(-4.02022e-297 -5.31672e-297 0)
(-5.10591e-297 -5.56159e-297 0)
(-6.36156e-297 -5.62515e-297 0)
(-7.7958e-297 -5.48809e-297 0)
(-9.4163e-297 -5.12127e-297 0)
(-1.12317e-296 -4.48502e-297 0)
(-1.32058e-296 -3.5984e-297 0)
(-5.01079e-297 -1.49278e-297 0)
(-2.26098e-297 -8.0764e-298 0)
(-1.34844e-297 -4.92103e-298 0)
(-8.81385e-298 -3.12274e-298 0)
(-5.98284e-298 -2.00198e-298 0)
(-4.1202e-298 -1.28004e-298 0)
(-2.84289e-298 -8.09946e-299 0)
(-1.94577e-298 -5.03163e-299 0)
(-1.30459e-298 -3.02531e-299 0)
(-8.37753e-299 -1.69842e-299 0)
(-2.32334e-298 -7.45133e-298 0)
(-5.43394e-298 -2.13511e-297 0)
(-9.3769e-298 -3.4106e-297 0)
(-1.46015e-297 -4.51233e-297 0)
(-2.13876e-297 -5.41847e-297 0)
(-2.98642e-297 -6.12899e-297 0)
(-4.01083e-297 -6.65113e-297 0)
(-5.21912e-297 -6.98841e-297 0)
(-6.61914e-297 -7.13555e-297 0)
(-8.21954e-297 -7.07601e-297 0)
(-1.00286e-296 -6.78291e-297 0)
(-1.20573e-296 -6.21822e-297 0)
(-1.4259e-296 -5.4003e-297 0)
(-5.36077e-297 -2.20268e-297 0)
(-2.38464e-297 -1.09215e-297 0)
(-1.41273e-297 -6.33639e-298 0)
(-9.19045e-298 -3.90809e-298 0)
(-6.21497e-298 -2.46293e-298 0)
(-4.26613e-298 -1.55935e-298 0)
(-2.93513e-298 -9.82192e-299 0)
(-2.00385e-298 -6.10018e-299 0)
(-1.34061e-298 -3.68221e-299 0)
(-8.59314e-299 -2.0865e-299 0)
(-1.25479e-298 -9.91225e-298 0)
(-2.22697e-298 -2.7489e-297 0)
(-5.1732e-298 -4.33097e-297 0)
(-1.03058e-297 -5.66556e-297 0)
(-1.76231e-297 -6.74458e-297 0)
(-2.70264e-297 -7.58815e-297 0)
(-3.84581e-297 -8.22038e-297 0)
(-5.19281e-297 -8.65688e-297 0)
(-6.75012e-297 -8.89884e-297 0)
(-8.52689e-297 -8.93348e-297 0)
(-1.05326e-296 -8.73679e-297 0)
(-1.27803e-296 -8.27771e-297 0)
(-1.52149e-296 -7.58028e-297 0)
(-5.60649e-297 -3.01983e-297 0)
(-2.46437e-297 -1.38346e-297 0)
(-1.45322e-297 -7.68493e-298 0)
(-9.41287e-298 -4.63223e-298 0)
(-6.34077e-298 -2.88431e-298 0)
(-4.33762e-298 -1.8158e-298 0)
(-2.97552e-298 -1.14206e-298 0)
(-2.02629e-298 -7.1059e-299 0)
(-1.35272e-298 -4.31038e-299 0)
(-8.6548e-299 -2.46434e-299 0)
(1.7653e-298 -1.36128e-297 0)
(4.45437e-298 -3.57915e-297 0)
(2.61462e-298 -5.51104e-297 0)
(-2.86191e-298 -7.08672e-297 0)
(-1.12265e-297 -8.33327e-297 0)
(-2.19783e-297 -9.30282e-297 0)
(-3.48908e-297 -1.00427e-296 0)
(-4.99389e-297 -1.05819e-296 0)
(-6.72086e-297 -1.09287e-296 0)
(-8.6822e-297 -1.1072e-296 0)
(-1.08881e-296 -1.09904e-296 0)
(-1.33508e-296 -1.06637e-296 0)
(-1.6015e-296 -1.0134e-296 0)
(-5.60272e-297 -3.82524e-297 0)
(-2.46353e-297 -1.61381e-297 0)
(-1.45145e-297 -8.67246e-298 0)
(-9.37201e-298 -5.16452e-298 0)
(-6.29479e-298 -3.20411e-298 0)
(-4.2958e-298 -2.01757e-298 0)
(-2.94109e-298 -1.27213e-298 0)
(-1.99962e-298 -7.94923e-299 0)
(-1.33306e-298 -4.85173e-299 0)
(-8.51773e-299 -2.79856e-299 0)
(1.14734e-297 -1.84708e-297 0)
(1.83592e-297 -4.72612e-297 0)
(1.61743e-297 -7.0282e-297 0)
(8.84735e-298 -8.82666e-297 0)
(-1.65399e-298 -1.02173e-296 0)
(-1.44208e-297 -1.12956e-296 0)
(-2.91714e-297 -1.21349e-296 0)
(-4.59708e-297 -1.27787e-296 0)
(-6.50333e-297 -1.32394e-296 0)
(-8.65687e-297 -1.35046e-296 0)
(-1.10675e-296 -1.35487e-296 0)
(-1.37312e-296 -1.33594e-296 0)
(-1.6591e-296 -1.30078e-296 0)
(-5.04484e-297 -4.19639e-297 0)
(-2.31987e-297 -1.65572e-297 0)
(-1.37383e-297 -8.9414e-298 0)
(-8.9044e-298 -5.38101e-298 0)
(-5.99573e-298 -3.36753e-298 0)
(-4.09951e-298 -2.136e-298 0)
(-2.81055e-298 -1.35597e-298 0)
(-1.91258e-298 -8.53164e-299 0)
(-1.27562e-298 -5.2465e-299 0)
(-8.15011e-299 -3.05362e-299 0)
(4.42327e-297 -2.66903e-297 0)
(4.40535e-297 -6.16178e-297 0)
(3.64296e-297 -8.80605e-297 0)
(2.45826e-297 -1.07993e-296 0)
(1.05724e-297 -1.23152e-296 0)
(-4.8224e-298 -1.3492e-296 0)
(-2.1599e-297 -1.44281e-296 0)
(-4.01465e-297 -1.51787e-296 0)
(-6.09762e-297 -1.57599e-296 0)
(-8.4506e-297 -1.61552e-296 0)
(-1.10841e-296 -1.63322e-296 0)
(-1.39459e-296 -1.6256e-296 0)
(-6.8893e-297 -6.63362e-297 0)
(-3.1512e-297 -2.79551e-297 0)
(-1.83869e-297 -1.43651e-297 0)
(-1.17362e-297 -8.43228e-298 0)
(-7.86893e-298 -5.25036e-298 0)
(-5.39609e-298 -3.34909e-298 0)
(-3.73127e-298 -2.15279e-298 0)
(-2.57714e-298 -1.3813e-298 0)
(-1.76257e-298 -8.77314e-299 0)
(-1.17945e-298 -5.44342e-299 0)
(-7.54928e-299 -3.19772e-299 0)
(2.6757e-297 -1.94792e-297 0)
(1.93069e-297 -3.42679e-297 0)
(1.38959e-297 -4.29698e-297 0)
(8.2139e-298 -4.88946e-297 0)
(2.46641e-298 -5.31853e-297 0)
(-3.49903e-298 -5.63428e-297 0)
(-9.90901e-298 -5.86564e-297 0)
(-1.70076e-297 -6.02482e-297 0)
(-2.49329e-297 -6.10354e-297 0)
(-3.34663e-297 -6.05897e-297 0)
(-4.14024e-297 -5.76978e-297 0)
(-4.42738e-297 -4.99769e-297 0)
(-2.88848e-297 -3.09439e-297 0)
(-1.91628e-297 -1.88127e-297 0)
(-1.31879e-297 -1.16175e-297 0)
(-9.20375e-298 -7.40825e-298 0)
(-6.48349e-298 -4.81434e-298 0)
(-4.58147e-298 -3.1526e-298 0)
(-3.23029e-298 -2.06422e-298 0)
(-2.26081e-298 -1.3435e-298 0)
(-1.56046e-298 -8.63459e-299 0)
(-1.05077e-298 -5.41327e-299 0)
(-6.75104e-299 -3.21073e-299 0)
(4.04722e-298 -1.46595e-297 0)
(2.16545e-298 -1.948e-297 0)
(1.20739e-298 -2.17175e-297 0)
(-1.40423e-299 -2.36726e-297 0)
(-1.83717e-298 -2.52472e-297 0)
(-3.87186e-298 -2.63981e-297 0)
(-6.2538e-298 -2.71439e-297 0)
(-8.97683e-298 -2.75062e-297 0)
(-1.19459e-297 -2.74715e-297 0)
(-1.48602e-297 -2.69541e-297 0)
(-1.70497e-297 -2.57528e-297 0)
(-1.72451e-297 -2.34722e-297 0)
(-1.4775e-297 -1.8342e-297 0)
(-1.1823e-297 -1.30877e-297 0)
(-9.10914e-298 -9.02526e-298 0)
(-6.84527e-298 -6.15889e-298 0)
(-5.06344e-298 -4.17935e-298 0)
(-3.6992e-298 -2.81909e-298 0)
(-2.66988e-298 -1.8864e-298 0)
(-1.90014e-298 -1.24868e-298 0)
(-1.32745e-298 -8.13615e-299 0)
(-9.01519e-299 -5.15987e-299 0)
(-5.82315e-299 -3.09071e-299 0)
(-1.92063e-298 -8.41509e-298 0)
(-1.73974e-298 -1.17788e-297 0)
(-1.62223e-298 -1.32911e-297 0)
(-1.86377e-298 -1.44364e-297 0)
(-2.42991e-298 -1.53147e-297 0)
(-3.27293e-298 -1.59316e-297 0)
(-4.35559e-298 -1.63003e-297 0)
(-5.62748e-298 -1.64385e-297 0)
(-6.99014e-298 -1.63529e-297 0)
(-8.25898e-298 -1.60174e-297 0)
(-9.14335e-298 -1.53396e-297 0)
(-9.29377e-298 -1.4082e-297 0)
(-8.66457e-298 -1.18326e-297 0)
(-7.53879e-298 -9.20745e-298 0)
(-6.21976e-298 -6.82555e-298 0)
(-4.93427e-298 -4.91456e-298 0)
(-3.80416e-298 -3.46895e-298 0)
(-2.86759e-298 -2.40988e-298 0)
(-2.11927e-298 -1.64967e-298 0)
(-1.53556e-298 -1.11192e-298 0)
(-1.08731e-298 -7.35265e-299 0)
(-7.45715e-299 -4.71984e-299 0)
(-4.84707e-299 -2.85487e-299 0)
(-2.21244e-298 -4.58803e-298 0)
(-2.18625e-298 -7.20285e-298 0)
(-2.03417e-298 -8.51079e-298 0)
(-2.03092e-298 -9.38885e-298 0)
(-2.22486e-298 -1.00074e-297 0)
(-2.60066e-298 -1.04192e-297 0)
(-3.12988e-298 -1.06529e-297 0)
(-3.76967e-298 -1.07297e-297 0)
(-4.45182e-298 -1.06596e-297 0)
(-5.07397e-298 -1.04299e-297 0)
(-5.50588e-298 -9.98666e-298 0)
(-5.62723e-298 -9.21605e-298 0)
(-5.41157e-298 -7.99992e-298 0)
(-4.90659e-298 -6.52806e-298 0)
(-4.22331e-298 -5.07474e-298 0)
(-3.48331e-298 -3.80633e-298 0)
(-2.77613e-298 -2.77796e-298 0)
(-2.15058e-298 -1.98266e-298 0)
(-1.62478e-298 -1.38731e-298 0)
(-1.19807e-298 -9.52044e-299 0)
(-8.60011e-299 -6.38948e-299 0)
(-5.9588e-299 -4.15147e-299 0)
(-3.89869e-299 -2.53452e-299 0)
(-1.65879e-298 -2.52775e-298 0)
(-1.79933e-298 -4.40615e-298 0)
(-1.75555e-298 -5.47977e-298 0)
(-1.73545e-298 -6.19788e-298 0)
(-1.80858e-298 -6.68753e-298 0)
(-1.9838e-298 -7.00548e-298 0)
(-2.24915e-298 -7.18487e-298 0)
(-2.57861e-298 -7.24744e-298 0)
(-2.93152e-298 -7.20367e-298 0)
(-3.253e-298 -7.04699e-298 0)
(-3.48091e-298 -6.7468e-298 0)
(-3.56227e-298 -6.25023e-298 0)
(-3.47426e-298 -5.5223e-298 0)
(-3.22345e-298 -4.63785e-298 0)
(-2.85203e-298 -3.72367e-298 0)
(-2.41931e-298 -2.88035e-298 0)
(-1.97913e-298 -2.16052e-298 0)
(-1.56881e-298 -1.57877e-298 0)
(-1.20865e-298 -1.12706e-298 0)
(-9.05793e-299 -7.86653e-299 0)
(-6.58752e-299 -5.35491e-299 0)
(-4.61004e-299 -3.51966e-299 0)
(-3.03551e-299 -2.16707e-299 0)
(-1.11771e-298 -1.41533e-298 0)
(-1.30006e-298 -2.69464e-298 0)
(-1.32674e-298 -3.5146e-298 0)
(-1.33126e-298 -4.08711e-298 0)
(-1.36992e-298 -4.48266e-298 0)
(-1.45831e-298 -4.74187e-298 0)
(-1.59482e-298 -4.8922e-298 0)
(-1.76666e-298 -4.95221e-298 0)
(-1.95199e-298 -4.93127e-298 0)
(-2.12203e-298 -4.82695e-298 0)
(-2.24541e-298 -4.62357e-298 0)
(-2.29493e-298 -4.29779e-298 0)
(-2.25424e-298 -3.84035e-298 0)
(-2.12127e-298 -3.28657e-298 0)
(-1.91233e-298 -2.69936e-298 0)