/*--------------------------------*- C++ -*----------------------------------*\
| =========                 |                                                 |
| \\      /  F ield         | OpenFOAM: The Open Source CFD Toolbox           |
|  \\    /   O peration     | Version:  2406                                  |
|   \\  /    A nd           | Website:  www.openfoam.com                      |
|    \\/     M anipulation  |                                                 |
\*---------------------------------------------------------------------------*/
FoamFile
{
    version     2.0;
    format      ascii;
    arch        "LSB;label=32;scalar=64";
    class       volScalarField;
    location    "2";
    object      alpha.grout;
}
// * * * * * * * * * * * * * * * * * * * * * * * * * * * * * * * * * * * * * //

dimensions      [0 0 0 0 0 0 0];

internalField   nonuniform List<scalar> 
10000
(
1
1
1
1
1
1
1
1
1
1
1
1
1
1
1
1
1
1
1
1
1
1
1
1
1
1
1
1
1
1
1
1
1
1
1
1
1
1
1
1
1
1
1
1
1
1
1
1
1
1
1
1
1
1
1
1
1
1
1
1
1
1
1
1
1
1
1
1
1
1
1
1
1
1
1
1
1
1
1
1
1
1
1
1
1
1
1
1
1
1
1
1
1
1
1
1
1
1
1
1
1
1
1
1
1
1
1
1
1
1
1
1
1
1
1
1
1
1
1
1
1
1
1
1
1
1
1
1
1
1
1
1
1
1
1
1
1
1
1
1
1
1
1
1
1
1
1
1
1
1
1
1
1
1
1
1
1
1
1
1
1
1
1
1
1
1
1
1
1
1
1
1
1
1
1
1
1
1
1
1
1
1
1
1
1
1
1
1
1
1
1
1
1
1
1
1
1
1
1
1
1
1
1
1
1
1
1
1
1
1
1
1
1
1
1
1
1
1
1
1
1
1
1
1
1
1
1
1
1
1
1
1
1
1
1
1
1
1
1
1
1
1
1
1
1
1
1
1
1
1
1
1
1
1
1
1
1
1
1
1
1
1
1
1
1
1
1
1
1
1
1
1
1
1
1
1
1
1
1
1
1
1
1
1
1
1
1
1
1
1
1
1
1
1
1
1
1
1
1
1
1
1
1
1
1
1
1
1
1
1
1
1
1
1
1
1
1
1
1
1
1
1
1
1
1
1
1
1
1
1
1
1
1
1
1
1
1
1
1
1
1
1
1
1
1
1
1
1
1
1
1
1
1
1
1
1
1
1
1
1
1
1
1
1
1
1
1
1
1
1
1
1
1
1
1
1
1
1
1
1
1
1
1
1
1
1
1
1
1
1
1
1
1
1
1
1
1
1
1
1
1
1
1
1
1
1
1
1
1
1
1
1
1
1
1
1
1
1
1
1
1
1
1
1
1
1
1
1
1
1
1
1
1
1
1
1
1
1
1
1
1
1
1
1
1
1
1
1
1
1
1
1
1
1
1
1
1
1
1
1
1
1
1
1
1
1
1
1
1
1
1
1
1
1
1
1
1
1
1
1
1
1
1
1
1
1
1
1
1
1
1
1
1
1
1
1
1
1
1
1
1
1
1
1
1
1
1
1
1
1
1
1
1
1
1
1
1
1
1
1
1
1
1
1
1
1
1
1
1
1
1
1
1
1
1
1
1
1
1
1
1
1
1
1
1
1
1
1
1
1
1
1
1
1
1
1
1
1
1
1
1
1
1
1
1
1
1
1
1
1
1
1
1
1
1
1
1
1
1
1
1
1
1
1
1
1
1
1
1
1
1
1
1
1
1
1
1
1
1
1
1
1
1
1
1
1
1
1
1
1
1
1
1
1
1
1
1
1
1
1
1
1
1
1
1
1
1
1
1
1
1
1
1
1
1
1
1
1
1
1
1
1
1
1
1
1
1
1
1
1
1
1
1
1
1
1
1
1
1
1
1
1
1
1
1
1
1
1
1
1
1
1
1
1
1
1
1
1
1
1
1
1
1
1
1
1
1
1
1
1
1
1
1
1
1
1
1
1
1
1
1
1
1
1
1
1
1
1
1
1
1
1
1
1
1
1
1
1
1
1
1
1
1
1
1
1
1
1
1
1
1
1
1
1
1
1
1
1
1
1
1
1
1
1
1
1
1
1
1
1
1
1
1
1
1
1
1
1
1
1
1
1
1
1
1
1
1
1
1
1
1
1
1
1
1
1
1
1
1
1
1
1
1
1
1
1
1
1
1
1
1
1
1
1
1
1
1
1
1
1
1
1
1
1
1
1
1
1
1
1
1
1
1
1
1
1
1
1
1
1
1
1
1
1
1
1
1
1
1
1
1
1
1
1
1
1
1
1
1
1
1
1
1
1
1
1
1
1
1
1
1
1
1
1
1
1
1
1
1
1
1
1
1
1
1
1
1
1
1
1
1
1
1
1
1
1
1
1
1
1
1
1
1
1
1
1
1
1
1
1
1
1
1
1
1
1
1
1
1
1
1
1
1
1
1
1
1
1
1
1
1
1
1
1
1
1
1
1
1
1
1
1
1
1
1
1
1
1
1
1
1
1
1
1
1
1
1
1
1
1
1
1
1
1
1
1
1
1
1
1
1
1
1
1
1
1
1
1
1
1
1
1
1
1
1
1
1
1
1
1
1
1
1
1
1
1
1
1
1
1
1
1
1
1
1
1
1
1
1
1
1
1
1
1
1
1
1
1
1
1
1
1
1
1
1
1
1
1
1
1
1
1
1
1
1
1
1
1
1
1
1
1
1
1
1
1
1
1
1
1
1
1
1
1
1
1
1
1
1
1
1
1
1
1
1
1
1
1
1
1
1
1
1
1
1
1
1
1
1
1
1
1
1
1
1
1
1
1
1
1
1
1
1
1
1
1
1
1
1
1
1
1
1
1
1
1
1
1
1
1
1
1
1
1
1
1
1
1
1
1
1
1
1
1
1
1
1
1
1
1
1
1
1
1
1
1
1
1
1
1
1
1
1
1
1
1
1
1
1
1
1
1
1
1
1
1
1
1
1
1
1
1
1
1
1
1
1
1
1
1
1
1
1
1
1
1
1
1
1
1
1
1
1
1
1
1
1
1
1
1
1
1
1
1
1
1
1
1
1
1
1
1
1
1
1
1
1
1
1
1
1
1
1
1
1
1
1
1
1
1
1
1
1
1
1
1
1
1
1
1
1
1
1
1
1
1
1
1
1
1
1
1
1
1
1
1
1
1
1
1
1
1
1
1
1
1
1
1
1
1
1
1
1
1
1
1
1
1
1
1
1
1
1
1
1
1
1
1
1
1
1
1
1
1
1
1
1
1
1
1
1
1
1
1
1
1
1
1
1
1
1
1
1
1
1
1
1
1
1
1
1
1
1
1
1
1
1
1
1
1
1
1
1
1
1
1
1
1
1
1
1
1
1
1
1
1
1
1
1
1
1
1
1
1
1
1
1
1
1
1
1
1
1
1
1
1
1
1
1
1
1
1
1
1
1
1
1
1
1
1
1
1
1
1
1
1
1
1
1
1
1
1
1
1
1
1
1
1
1
1
1
1
1
1
1
1
1
1
1
1
1
1
1
1
1
1
1
1
1
1
1
1
1
1
1
1
1
1
1
1
1
1
1
1
1
1
1
1
1
1
1
1
1
1
1
1
1
1
1
1
1
1
1
1
1
1
1
1
1
1
1
1
1
1
1
1
1
1
1
1
1
1
1
1
1
1
1
1
1
1
1
1
1
1
1
1
1
1
1
1
1
1
1
1
1
1
1
1
1
1
1
1
1
1
1
1
1
1
1
1
1
1
1
1
1
1
1
1
1
1
1
1
1
1
1
1
1
1
1
1
1
1
1
1
1
1
1
1
1
1
1
1
1
1
1
1
1
1
1
1
1
1
1
1
1
1
1
1
1
1
1
1
1
1
1
1
1
1
1
1
1
1
1
1
1
1
1
1
1
1
1
1
1
1
1
1
1
1
1
1
1
1
1
1
1
1
1
1
1
1
1
1
1
1
1
1
1
1
1
1
1
1
1
1
1
1
1
1
1
1
1
1
1
1
1
1
1
1
1
1
1
1
1
1
1
1
1
1
1
1
1
1
1
1
1
1
1
1
1
1
1
1
1
1
1
1
1
1
1
1
1
1
1
1
1
1
1
1
1
1
1
1
1
1
1
1
1
1
1
1
1
1
1
1
1
1
1
1
1
1
1
1
1
1
1
1
1
1
1
1
1
1
1
1
1
1
1
1
1
1
1
1
1
1
1
1
1
1
1
1
1
1
1
1
1
1
1
1
1
1
1
1
1
1
1
1
1
1
1
1
1
1
1
1
1
1
1
1
1
1
1
1
1
1
1
1
1
1
1
1
1
1
1
1
1
1
1
1
1
1
1
1
1
1
1
1
1
1
1
1
1
1
1
1
1
1
1
1
1
1
1
1
1
1
1
1
1
1
1
1
1
1
1
1
1
1
1
1
1
1
1
1
1
1
1
1
1
1
1
1
1
1
1
1
1
1
1
1
1
1
1
1
1
1
1
1
1
1
1
1
1
1
1
1
1
1
1
1
1
1
1
1
1
1
1
1
1
1
1
1
1
1
1
1
1
1
1
1
1
1
1
1
1
1
1
1
1
1
1
1
1
1
1
1
1
1
1
1
1
1
1
1
1
1
1
1
1
1
1
1
1
1
1
1
1
1
1
1
1
1
1
1
1
1
1
1
1
1
1
1
1
1
1
1
1
1
1
1
1
1
1
1
1
1
1
1
1
1
1
1
1
1
1
1
1
1
1
1
1
1
1
1
1
1
1
1
1
1
1
1
1
1
1
1
1
1
1
1
1
1
1
1
1
1
1
1
1
1
1
1
1
1
1
1
1
1
1
1
1
1
1
1
1
1
1
1
1
1
1
1
1
1
1
1
1
1
1
1
1
1
1
1
1
1
1
1
1
1
1
1
1
1
1
1
1
1
1
1
1
1
1
1
1
1
1
1
1
1
1
1
1
1
1
1
1
1
1
1
1
1
1
1
1
1
1
1
1
1
1
1
1
1
1
1
1
1
1
1
1
1
1
1
1
1
1
1
1
1
1
1
1
1
1
1
1
1
1
1
1
1
1
1
1
1
1
1
1
1
1
1
1
1
1
1
1
1
1
1
1
1
1
1
1
1
1
1
1
1
1
1
1
1
1
1
1
1
1
1
1
1
1
1
1
1
1
1
1
1
1
1
1
1
1
1
1
1
1
1
1
1
1
1
1
1
1
1
1
1
1
1
1
1
1
1
1
1
1
1
1
1
1
1
1
1
1
1
1
1
1
1
1
1
1
1
1
1
1
1
1
1
1
1
1
1
1
1
1
1
1
1
1
1
1
1
1
1
1
1
1
1
1
1
1
1
1
1
1
1
1
1
1
1
1
1
1
1
1
1
1
1
1
1
1
1
1
1
1
1
1
1
1
1
1
1
1
1
1
1
1
1
1
1
1
1
1
1
1
1
1
1
1
1
1
1
1
1
1
1
1
1
1
1
1
1
1
1
1
1
1
1
1
1
1
1
1
1
1
1
1
1
1
1
1
1
1
1
1
1
1
1
1
1
1
1
1
1
1
1
1
1
1
1
1
1
1
1
1
1
1
1
1
1
1
1
1
1
1
1
1
1
1
1
1
1
1
1
1
1
1
1
1
1
1
1
1
1
1
1
1
1
1
1
1
1
1
1
1
1
1
1
1
1
1
1
1
1
1
1
1
1
1
1
1
1
1
1
1
1
1
1
1
1
1
1
1
1
1
1
1
1
1
1
1
1
1
1
1
1
1
1
1
1
1
1
1
1
1
1
1
1
1
1
1
1
1
1
1
1
1
1
1
1
1
1
1
1
1
1
1
1
1
1
1
1
1
1
1
1
1
1
1
1
1
1
1
1
1
1
1
1
1
1
1
1
1
1
1
1
1
1
1
1
1
1
1
1
1
1
1
1
1
1
1
1
1
1
1
1
1
1
1
1
1
1
1
1
1
1
1
1
1
1
1
1
1
1
1
1
1
1
1
1
1
1
1
1
1
1
1
1
1
1
1
1
1
1
1
1
1
1
1
1
1
1
1
1
1
1
1
1
1
1
1
1
1
1
1
1
1
1
1
1
1
1
1
1
1
1
1
1
1
1
1
1
1
1
1
1
1
1
1
1
1
1
1
1
1
1
1
1
1
1
1
1
1
1
1
1
1
1
1
1
1
1
1
1
1
1
1
1
1
1
1
1
1
1
1
1
1
1
1
1
1
1
1
1
1
1
1
1
1
1
1
1
1
1
1
1
1
1
1
1
1
1
1
1
1
1
1
1
1
1
1
1
1
1
1
1
1
1
1
1
1
1
1
1
1
1
1
1
1
1
1
1
1
1
1
1
1
1
1
1
1
1
1
1
1
1
1
1
1
1
1
1
1
1
1
1
1
1
1
1
1
1
1
1
1
1
1
1
1
1
1
1
1
1
1
1
1
1
1
1
1
1
1
1
1
1
1
1
1
1
1
1
1
1
1
1
1
1
1
1
1
1
1
1
1
1
1
1
1
1
1
1
1
1
1
1
1
1
1
1
1
1
1
1
1
1
1
1
1
1
1
1
1
1
1
1
1
1
1
1
1
1
1
1
1
1
1
1
1
1
1
1
1
1
1
1
1
1
1
1
1
1
1
1
1
1
1
1
1
1
1
1
1
1
1
1
1
1
1
1
1
1
1
1
1
1
1
1
1
1
1
1
1
1
1
1
1
1
1
1
1
1
1
1
1
1
1
1
1
1
1
1
1
1
1
1
1
1
1
1
1
1
1
1
1
1
1
1
1
1
1
1
1
1
1
1
1
1
1
1
1
1
1
1
1
1
1
1
1
1
1
1
1
1
1
1
1
1
1
1
1
1
1
1
1
1
1
1
1
1
1
1
1
1
1
1
1
1
1
1
1
1
1
1
1
1
1
1
1
1
1
1
1
1
1
1
1
1
1
1
1
1
1
1
1
1
1
1
1
1
1
1
1
1
1
1
1
1
1
1
1
1
1
1
1
1
1
1
1
1
1
1
1
1
1
1
1
1
1
1
1
1
1
1
1
1
1
1
1
1
1
1
1
1
1
1
1
1
1
1
1
1
1
1
1
1
1
1
1
1
1
1
1
1
1
1
1
1
1
1
1
1
1
1
1
1
1
1
1
1
1
1
1
1
1
1
1
1
1
1
1
1
1
1
1
1
1
1
1
1
1
1
1
1
1
1
1
1
1
1
1
1
1
1
1
1
1
1
1
1
1
1
1
1
1
1
1
1
1
1
1
1
1
1
1
1
1
1
1
1
1
1
1
1
1
1
1
1
1
1
1
1
1
1
1
1
1
1
1
1
1
1
1
1
1
1
1
1
1
1
1
1
1
1
1
1
1
1
1
1
1
1
1
1
1
1
1
1
1
1
1
1
1
1
1
1
1
1
1
1
1
1
1
1
1
1
1
1
1
1
1
1
1
1
1
1
1
1
1
1
1
1
1
1
1
1
1
1
1
1
1
1
1
1
1
1
1
1
1
1
1
1
1
1
1
1
1
1
1
1
1
1
1
1
1
1
1
1
1
1
1
1
1
1
1
1
1
1
1
1
1
1
1
1
1
1
1
1
1
1
1
1
1
1
1
1
1
1
1
1
1
1
1
1
1
1
1
1
1
1
1
1
1
1
1
1
1
1
1
1
1
1
1
1
1
1
1
1
1
1
1
1
1
1
1
1
1
1
1
1
1
1
1
1
1
1
1
1
1
1
1
1
1
1
1
1
1
1
1
1
1
1
1
1
1
1
1
1
1
1
1
1
1
1
1
1
1
1
1
1
1
1
1
1
1
1
1
1
1
1
1
1
1
1
1
1
1
1
1
1
1
1
1
1
1
1
1
1
1
1
1
1
1
1
1
1
1
1
1
1
1
1
1
1
1
1
1
1
1
1
1
1
1
1
1
1
1
1
1
1
1
1
1
1
1
1
1
1
1
1
1
1
1
1
1
1
1
1
1
1
1
1
1
1
1
1
1
1
1
1
1
1
1
1
1
1
1
1
1
1
1
1
1
1
1
1
1
1
1
1
1
1
1
1
1
1
1
1
1
1
1
1
1
1
1
1
1
1
1
1
1
1
1
1
1
1
1
1
1
1
1
1
1
1
1
1
1
1
1
1
1
1
1
1
1
1
1
1
1
1
1
1
1
1
1
1
1
1
1
1
1
1
1
1
1
1
1
1
1
1
1
1
1
1
1
1
1
1
1
1
1
1
1
1
1
1
1
1
1
1
1
1
1
1
1
1
1
1
1
1
1
1
1
1
1
1
1
1
1
1
1
1
1
1
1
1
1
1
1
1
1
1
1
1
1
1
1
1
1
1
1
1
1
1
1
1
1
1
1
1
1
1
1
1
1
1
1
1
1
1
1
1
1
1
1
1
1
1
1
1
1
1
1
1
1
1
1
1
1
1
1
1
1
1
1
1
1
1
1
1
1
1
1
1
1
1
1
1
1
1
1
1
1
1
1
1
1
1
1
1
1
1
1
1
1
1
1
1
1
1
1
1
1
1
1
1
1
1
1
1
1
1
1
1
1
1
1
1
1
1
1
1
1
1
1
1
1
1
1
1
1
1
1
1
1
1
1
1
1
1
1
1
1
1
1
1
1
1
1
1
1
1
1
1
1
1
1
1
1
1
1
1
1
1
1
1
1
1
1
1
1
1
1
1
1
1
1
1
1
1
1
1
1
1
1
1
1
1
1
1
1
1
1
1
1
1
1
1
1
1
1
1
1
1
1
1
1
1
1
1
1
1
1
1
1
1
1
1
1
1
1
1
1
1
1
1
1
1
1
1
1
1
1
1
1
1
1
1
1
1
1
1
1
1
1
1
1
1
1
1
1
1
1
1
1
1
1
1
1
1
1
1
1
1
1
1
1
1
1
1
1
1
1
1
1
1
1
1
1
1
1
1
1
1
1
1
1
1
1
1
1
1
1
1
1
1
1
1
1
1
1
1
1
1
1
1
1
1
1
1
1
1
1
1
1
1
1
1
1
1
1
1
1
1
1
1
1
1
1
1
1
1
1
1
1
1
1
1
1
1
1
1
1
1
1
1
1
1
1
1
1
1
1
1
1
1
1
1
1
1
1
1
1
1
1
1
1
1
1
1
1
1
1
1
1
1
1
1
1
1
1
1
1
1
1
1
1
1
1
1
1
1
1
1
1
1
1
1
1
1
1
1
1
1
1
1
1
1
1
1
1
1
1
1
1
1
1
1
1
1
1
1
1
1
1
1
1
1
1
1
1
1
1
1
1
1
1
1
1
1
1
1
1
1
1
1
1
1
1
1
1
1
1
1
1
1
1
1
1
1
1
1
1
1
1
1
1
1
1
1
1
1
1
1
1
1
1
1
1
1
1
1
1
1
1
1
1
1
1
1
1
1
1
1
1
1
1
1
1
1
1
1
1
1
1
1
1
1
1
1
1
1
1
1
1
1
1
1
1
1
1
1
1
1
1
1
1
1
1
1
1
1
1
1
1
1
1
1
1
1
1
1
1
1
1
1
1
1
1
1
1
1
1
1
1
1
1
1
1
1
1
1
1
1
1
1
1
1
1
1
1
1
1
1
1
1
1
1
1
1
1
1
1
1
1
1
1
1
1
1
1
1
1
1
1
1
1
1
1
1
1
1
1
1
1
1
1
1
1
1
1
1
1
1
1
1
1
1
1
1
1
1
1
1
1
1
1
1
1
1
1
1
1
1
1
1
1
1
1
1
1
1
1
1
1
1
1
1
1
1
1
1
1
1
1
1
1
1
1
1
1
1
1
1
1
1
1
1
1
1
1
1
1
1
1
1
1
1
1
1
1
1
1
1
1
1
1
1
1
1
1
1
1
1
1
1
1
1
1
1
1
1
1
1
1
1
1
1
1
1
1
1
1
1
1
1
1
1
1
1
1
1
1
1
1
1
1
1
1
1
1
1
1
1
1
1
1
1
1
1
1
1
1
1
1
1
1
1
1
1
1
1
1
1
1
1
1
1
1
1
1
1
1
1
1
1
1
1
1
1
1
1
1
1
1
1
1
1
1
1
1
1
1
1
1
1
1
1
1
1
1
1
1
1
1
1
1
1
1
1
1
1
1
1
1
1
1
1
1
1
1
1
1
1
1
1
1
1
1
1
1
1
1
1
1
1
1
1
1
1
1
1
1
1
1
1
1
1
1
1
1
1
1
1
1
1
1
1
1
1
1
1
1
1
1
1
1
1
1
1
1
1
1
1
1
1
1
1
1
1
1
1
1
1
1
1
1
1
1
1
1
1
1
1
1
1
1
1
1
1
1
1
1
1
1
1
1
1
1
1
1
1
1
1
1
1
1
1
1
1
1
1
1
1
1
1
1
1
1
1
1
1
1
1
1
1
1
1
1
1
1
1
1
1
1
1
1
1
1
1
1
1
1
1
1
1
1
1
1
1
1
1
1
1
1
1
1
1
1
1
1
1
1
1
1
1
1
1
1
1
1
1
1
1
1
1
1
1
1
1
1
1
1
1
1
1
1
1
1
1
1
1
1
1
1
1
1
1
1
1
1
1
1
1
1
1
1
1
1
1
1
1
1
1
1
1
1
1
1
1
1
1
1
1
1
1
1
1
1
1
1
1
1
1
1
1
1
1
1
1
1
1
1
1
1
1
1
1
1
1
1
1
1
1
1
1
1
1
1
1
1
1
1
1
1
1
1
1
1
1
1
1
1
1
1
1
1
1
1
1
1
1
1
1
1
1
1
1
1
1
1
1
1
1
1
1
1
1
1
1
1
1
1
1
1
1
1
1
1
1
1
1
1
1
1
1
1
1
1
1
1
1
1
1
1
1
1
1
1
1
1
1
1
1
1
1
1
1
1
1
1
1
1
1
1
1
1
1
1
1
1
1
1
1
1
1
1
1
1
1
1
1
1
1
1
1
1
1
1
1
1
1
1
1
1
1
1
1
1
1
1
1
1
1
1
1
1
1
1
1
1
1
1
1
1
1
1
1
1
1
1
1
1
1
1
1
1
1
1
1
1
1
1
1
1
1
1
1
1
1
1
1
1
1
1
1
1
1
1
1
1
1
1
1
1
1
1
1
1
1
1
1
1
1
1
1
1
1
1
1
1
1
1
1
1
1
1
1
1
1
1
1
1
1
1
1
1
1
1
1
1
1
1
1
1
1
1
1
1
1
1
1
1
1
1
1
1
1
1
1
1
1
1
1
1
1
1
1
1
1
1
1
1
1
1
1
1
1
1
1
1
1
1
1
1
1
1
1
1
1
1
1
1
1
1
1
1
1
1
1
1
1
1
1
1
1
1
1
1
1
1
1
1
1
1
1
1
1
1
1
1
1
1
1
1
1
1
1
1
1
1
1
1
1
1
1
1
1
1
1
1
1
1
1
1
1
1
1
1
1
1
1
1
1
1
1
1
1
1
1
1
1
1
1
1
1
1
1
1
1
1
1
1
1
1
1
1
1
1
1
1
1
1
1
1
1
1
1
1
1
1
1
1
1
1
1
1
1
1
1
1
1
1
1
1
1
1
1
1
1
1
1
1
1
1
1
1
1
1
1
1
1
1
1
1
1
1
1
1
1
1
1
1
1
1
1
1
1
1
1
1
1
1
1
1
1
1
1
1
1
1
1
1
1
1
1
1
1
1
1
1
1
1
1
1
1
1
1
1
1
1
1
1
1
1
1
1
1
1.03142e-06
8.51124e-07
5.78203e-07
4.87518e-07
5.04187e-07
5.14895e-07
5.06038e-07
5.11854e-07
5.06289e-07
4.98651e-07
4.86042e-07
4.7291e-07
4.57755e-07
4.42809e-07
4.28349e-07
4.14228e-07
3.90456e-07
3.61605e-07
3.30938e-07
2.97897e-07
2.63907e-07
2.30118e-07
2.20177e-07
1.91275e-07
1.63616e-07
1.389e-07
1.19e-07
1.09023e-07
1.03256e-07
1.02578e-07
1.05927e-07
1.20094e-07
1.50676e-07
1.75266e-07
1.90083e-07
2.11932e-07
2.38528e-07
2.59568e-07
2.58639e-07
2.56728e-07
2.56515e-07
2.63518e-07
2.78204e-07
2.92959e-07
3.05755e-07
3.16435e-07
3.2634e-07
3.36705e-07
3.47697e-07
3.58503e-07
3.67516e-07
3.72566e-07
3.72744e-07
3.82774e-07
4.04367e-07
4.24748e-07
4.36812e-07
4.30009e-07
4.22472e-07
4.30631e-07
4.54437e-07
4.89801e-07
5.09891e-07
5.33707e-07
5.65026e-07
6.07304e-07
6.52886e-07
6.87024e-07
7.15566e-07
7.34357e-07
7.36741e-07
7.26976e-07
7.09474e-07
6.86938e-07
6.68556e-07
6.5119e-07
6.24602e-07
6.01233e-07
5.84648e-07
5.67114e-07
5.42891e-07
5.38417e-07
5.37114e-07
5.19238e-07
5.09398e-07
5.12651e-07
5.31542e-07
5.26368e-07
5.60117e-07
5.5303e-07
5.80002e-07
5.80939e-07
6.11841e-07
6.33328e-07
7.43175e-07
6.98871e-07
7.26417e-07
8.05544e-07
8.94033e-07
7.07607e-07
3.09299e-13
-2.45072e-39
1.88559e-49
-5.38254e-126
-1.55347e-74
0
1.85047e-43
3.68836e-34
7.37673e-34
7.37673e-34
7.37673e-34
7.37673e-34
7.37673e-34
1.88115e-33
3.99076e-29
8.85039e-29
9.11175e-29
7.29066e-29
5.46958e-29
4.25394e-29
1.82267e-29
5.26474e-36
3.10538e-43
-7.65578e-45
6.0146e-50
4.00688e-56
3.2055e-56
2.40413e-56
1.60275e-56
8.01376e-57
-7.17465e-44
1.79366e-44
-1.35577e-151
0
-1.26218e-30
6.19088e-54
-1.16388e-46
-1.0347e-121
0
-9.49557e-67
-5.66208e-64
0
-6.7912e-93
6.45255e-36
1.29051e-35
2.09837e-29
3.67698e-29
1.26218e-29
1.26218e-29
1.26218e-29
1.26218e-29
1.26218e-29
1.12019e-29
5.36439e-30
6.31183e-31
1.57804e-31
5.51557e-36
5.47972e-36
5.51557e-36
5.47972e-36
5.51557e-36
5.47972e-36
5.51557e-36
5.47972e-36
1.83921e-34
3.34262e-27
5.68545e-29
4.80758e-29
4.80758e-29
4.80758e-29
4.81323e-29
4.81888e-29
4.78267e-29
4.67006e-29
4.67006e-29
4.67006e-29
4.67006e-29
4.67006e-29
4.6134e-29
-9.40395e-39
0
-9.40395e-39
-4.63651e-64
-3.03858e-64
0
-1.06911e-45
1.87267e-91
2.64547e-35
5.29363e-35
1.39658e-21
1.64931e-50
1.63133e-50
-8.15282e-124
-5.04847e-30
-7.13203e-38
-4.97841e-61
1.36846e-43
4.28663e-21
3.22394e-30
2.61569e-30
3.49756e-24
1.92065e-18
6.42541e-20
1.44854e-20
7.34515e-26
1.03252e-25
2.12272e-20
3.96287e-26
3.86043e-26
2.61809e-33
5.29162e-20
6.21564e-20
5.53356e-21
2.12149e-27
4.24298e-27
2.93437e-20
1.498e-20
2.32907e-28
2.32916e-28
9.74411e-29
9.74414e-29
3.98449e-21
5.94016e-20
1.46263e-21
2.51898e-49
4.90451e-43
9.80902e-43
1.66087e-42
2.40413e-56
1.25149e-21
1.7938e-20
9.17556e-21
5.18072e-38
1.03759e-37
8.02455e-37
1.6005e-29
2.31085e-23
-7.60734e-87
-9.27679e-94
-3.70636e-100
1.91353e-21
8.85409e-22
1.29084e-35
1.29084e-35
2.51846e-35
3.47933e-22
6.09177e-29
1.28316e-29
1.28316e-29
1.28316e-29
1.28316e-29
1.28316e-29
1.30414e-29
4.00311e-22
8.86687e-22
1.40385e-28
1.40385e-28
2.6569e-28
2.53211e-21
9.66127e-30
9.66158e-30
2.90093e-27
4.80352e-20
1.52975e-19
6.54483e-20
1.58447e-20
7.55764e-21
4.81887e-29
4.80758e-29
4.81888e-29
4.81888e-29
4.81888e-29
4.81888e-29
4.91322e-29
4.85474e-29
4.72853e-29
4.85474e-29
1.83652e-23
9.2268e-29
4.9071e-42
5.89437e-42
1.17887e-41
1.17887e-41
2.3467e-41
4.13369e-42
-6.91495e-46
7.1483e-22
5.29094e-35
3.22868e-21
3.55271e-20
2.10772e-20
2.39518e-34
2.39523e-34
2.39523e-34
2.39523e-34
3.56228e-34
1.20034e-20
1.47192e-19
9.69227e-20
2.61569e-30
3.49756e-24
1.00685e-23
2.60894e-24
7.02587e-25
8.31096e-25
6.9171e-26
1.43771e-25
3.96293e-26
9.2648e-26
5.72489e-33
6.80223e-27
4.23348e-25
1.45012e-25
2.12155e-27
1.79003e-26
1.79732e-26
9.34863e-27
1.79462e-26
4.45688e-28
3.9592e-28
9.74414e-29
3.21354e-28
7.03993e-27
2.42438e-26
1.9555e-27
9.27305e-28
1.09369e-28
6.88841e-29
1.52011e-35
1.39215e-28
3.64658e-27
1.91478e-28
7.67273e-28
1.47723e-29
3.37888e-38
1.0189e-35
1.55627e-28
-5.61582e-93
-5.65555e-100
-1.337e-106
3.78418e-28
2.16319e-28
3.45242e-29
2.58167e-35
2.57539e-28
7.72773e-28
1.08584e-28
5.66297e-28
1.38395e-28
1.3461e-29
7.46908e-29
3.21421e-28
1.35765e-28
8.98584e-28
8.17635e-28
8.42036e-28
6.745e-28
6.34837e-28
3.85027e-27
1.16487e-27
7.38283e-28
2.5635e-29
5.58218e-27
2.2202e-26
2.19052e-26
5.8323e-27
2.8316e-27
6.15943e-28
1.13119e-27
4.9586e-28
9.84276e-29
1.81538e-27
4.97329e-27
9.30664e-29
1.98741e-28
1.45322e-28
1.80626e-28
6.20914e-28
2.72553e-28
3.54151e-28
3.85527e-27
3.36647e-27
1.24761e-27
1.52167e-27
9.52135e-28
4.28466e-29
8.8407e-28
1.05819e-34
4.17557e-27
1.31577e-26
4.05008e-26
5.42567e-29
4.87782e-34
3.61754e-32
1.30689e-26
1.2045e-24
1.15795e-24
7.79407e-25
4.80065e-25
5.05079e-30
1.02719e-28
3.46967e-33
2.65787e-29
5.81515e-30
9.65404e-30
1.03784e-31
2.13974e-31
2.55511e-31
2.41923e-31
7.12877e-38
7.10663e-33
1.4598e-33
3.55701e-31
9.73472e-33
2.74988e-32
1.43366e-38
8.3414e-41
2.44983e-40
4.9464e-34
5.33674e-34
6.22273e-35
2.04261e-35
9.93458e-34
6.50195e-33
4.9452e-34
3.41467e-34
3.27693e-35
2.57907e-35
1.24511e-42
1.56818e-63
1.56818e-63
3.36891e-35
2.99674e-34
5.93007e-36
1.65782e-43
4.78376e-42
8.98415e-35
3.59213e-44
0
0
1.1773e-34
1.37361e-34
4.27827e-35
4.76125e-41
2.18539e-34
5.83915e-34
1.16671e-34
6.03393e-34
2.22224e-34
5.33987e-35
9.63295e-35
1.95553e-34
2.35572e-34
4.58209e-34
6.26049e-34
8.24909e-34
7.12755e-34
1.03818e-33
2.1945e-33
2.07802e-33
1.48347e-33
2.17478e-34
2.27691e-33
8.52107e-33
9.10171e-33
2.69047e-33
9.88642e-34
1.83926e-34
2.06398e-34
1.82415e-34
3.18832e-35
7.36352e-34
2.30129e-33
5.19459e-34
1.07593e-33
7.3483e-34
4.57825e-34
7.36123e-34
5.00381e-34
4.49858e-34
2.81037e-33
2.87536e-33
2.48038e-33
3.4645e-33
2.21186e-33
1.03857e-35
3.46404e-34
8.15577e-41
3.5548e-33
1.02773e-32
4.01805e-32
4.26605e-35
9.13033e-45
2.07624e-38
3.41063e-32
5.73921e-30
3.32265e-30
4.46978e-30
2.24799e-30
1.09513e-35
3.74154e-33
1.77792e-41
3.32306e-35
5.42657e-36
3.61985e-35
1.62369e-37
3.47419e-43
6.88477e-40
2.97628e-37
4.60962e-44
4.34001e-39
1.23623e-39
1.59446e-45
1.83799e-45
1.32549e-38
7.59241e-45
1.24571e-47
2.0605e-48
1.79379e-41
4.7361e-41
1.26939e-41
4.72327e-42
7.79914e-49
4.58978e-56
1.90122e-70
9.07284e-57
9.29475e-50
1.04634e-42
2.95811e-49
2.15484e-56
1.56818e-63
1.24797e-76
2.89452e-42
2.10411e-44
2.10753e-76
-4.16132e-92
-8.53566e-99
3.39588e-67
6.65602e-103
2.70724e-96
4.9404e-97
0
8.72956e-132
4.11345e-65
1.41336e-58
7.10585e-59
1.06991e-55
7.5915e-49
8.31539e-42
2.70645e-41
5.22969e-41
1.01171e-40
1.5554e-40
1.87496e-40
2.89399e-40
3.08894e-40
3.42359e-40
7.07231e-40
1.18018e-39
1.16126e-39
8.01228e-40
1.52177e-40
5.7369e-48
1.09412e-55
2.02428e-83
1.84008e-94
1.84008e-94
7.20449e-56
6.36862e-49
1.02304e-41
3.33247e-42
1.75313e-49
1.63529e-47
2.22336e-40
4.02611e-40
3.62501e-40
2.04935e-40
2.01546e-40
3.9434e-40
1.97554e-40
2.53295e-40
7.12432e-40
1.49616e-39
2.70501e-39
7.81431e-40
3.27143e-46
1.57356e-43
3.89646e-50
8.05328e-53
1.72532e-46
1.74671e-39
1.73993e-41
6.17787e-48
4.11484e-44
1.65372e-38
2.79705e-36
8.73853e-36
2.08721e-36
3.4717e-36
9.3469e-42
7.95287e-38
1.56262e-50
2.67802e-45
5.10443e-42
7.77846e-41
2.31313e-43
7.0747e-50
2.9968e-46
5.08147e-52
1.10547e-49
8.76503e-45
7.52955e-46
4.93785e-52
1.76169e-52
2.55167e-45
8.5248e-60
8.47356e-54
2.62569e-55
2.18425e-48
9.65705e-48
3.05752e-48
5.12969e-49
2.62537e-56
3.69243e-63
1.90122e-70
1.54163e-63
3.94377e-56
2.60412e-49
8.84571e-56
7.02317e-63
1.15859e-69
1.24797e-76
1.86934e-50
-3.33873e-85
-1.68558e-91
-3.20977e-98
-5.73124e-105
2.59326e-75
2.16641e-110
6.46967e-103
9.8808e-97
4.77698e-90
4.75295e-97
8.4609e-72
2.04823e-65
3.92906e-65
1.35089e-61
5.43519e-55
2.88027e-48
9.30176e-48
2.12192e-47
4.29629e-47
7.73414e-47
1.05357e-46
1.11547e-46
9.17379e-47
8.16548e-47
1.82868e-46
4.25702e-46
3.52585e-46
1.41141e-46
1.30886e-47
9.38202e-55
6.70101e-67
1.38439e-74
1.61951e-82
8.69553e-90
3.84815e-63
5.50181e-56
3.40936e-49
4.64328e-50
5.01326e-60
5.76948e-54
2.47485e-56
4.59057e-48
6.88256e-47
1.7311e-47
1.65476e-47
1.05878e-47
6.12709e-47
8.47139e-47
8.53321e-47
3.42131e-46
1.42212e-45
6.13862e-46
7.64094e-53
2.81165e-50
3.55492e-57
8.45419e-58
8.64977e-52
1.56356e-45
8.03943e-52
3.80338e-57
1.25805e-50
2.76835e-44
9.49375e-43
6.71905e-42
2.6871e-42
2.48048e-42
1.06824e-48
3.67645e-43
1.2649e-55
6.03428e-51
2.48921e-50
5.00937e-47
3.4656e-49
9.21096e-56
4.71041e-52
2.5675e-58
3.66078e-64
4.24759e-51
6.34507e-52
1.81845e-58
1.76486e-59
1.66722e-66
2.11968e-149
6.53526e-61
2.87731e-67
4.18202e-74
1.78548e-62
2.43516e-55
6.56935e-56
4.82637e-63
5.13226e-70
1.43147e-77
9.2307e-71
8.03078e-64
9.93138e-57
4.54682e-63
8.62414e-70
4.47391e-76
3.20936e-83
5.2341e-57
-1.40497e-91
-4.82285e-98
-9.24763e-105
-1.21525e-111
6.08225e-82
5.32313e-90
1.85866e-109
5.20055e-103
1.61672e-96
2.6086e-103
1.30182e-78
1.17635e-71
2.57218e-71
6.21569e-68
2.02402e-61
6.97781e-55
1.38684e-54
2.18272e-54
5.75783e-54
1.69503e-53
3.26293e-53
4.19157e-53
3.90559e-53
2.59044e-53
5.7597e-53
1.67778e-52
1.71522e-52
7.48054e-53
6.5185e-54
9.56131e-61
4.30902e-73
1.99073e-81
1.72206e-89
9.95351e-97
7.69106e-70
1.75616e-62
8.57276e-56
1.1453e-56
5.29068e-64
4.46693e-60
4.69225e-63
8.09721e-55
4.50565e-53
9.52405e-54
6.78853e-54
4.92429e-54
3.71714e-53
8.49189e-53
8.70798e-53
1.57597e-52
3.7485e-52
5.70134e-52
9.62802e-60
5.12146e-57
2.28741e-63
8.29016e-64
1.02739e-57
1.23881e-51
9.41283e-58
3.00276e-62
3.66088e-56
2.1745e-50
1.73295e-48
1.47856e-48
3.36029e-48
1.07039e-48
2.61323e-55
4.73855e-94
5.07023e-61
1.51942e-56
3.80687e-56
1.12898e-61
2.36895e-56
3.64353e-62
7.70505e-58
2.97768e-66
3.76932e-72
4.6696e-78
7.28694e-59
1.15599e-64
1.00965e-65
3.38903e-73
1.16021e-157
9.32705e-163
7.83424e-169
2.61141e-169
4.55073e-194
3.19809e-188
-1.07022e-196
6.75073e-182
2.80368e-78
6.71413e-84
7.46409e-77
5.26945e-70
4.0054e-63
8.59063e-71
7.83903e-78
2.67128e-84
1.92675e-91
4.6018e-98
-1.20941e-98
-6.6841e-105
-1.27273e-111
-7.18276e-120
-4.68144e-126
3.32834e-97
2.2062e-116
2.70842e-110
3.00002e-104
3.51857e-126
2.0709e-119
2.47731e-85
3.58361e-78
1.71185e-74
2.63523e-68
8.29861e-70
5.6457e-63
1.25123e-62
7.40531e-69
9.44083e-63
9.17022e-70
2.45682e-63
1.12607e-60
7.08408e-61
7.08771e-68
4.91933e-60
1.97307e-59
7.43848e-60
5.41998e-62
1.07096e-67
1.71966e-76
1.15455e-88
7.7741e-97
2.3389e-128
1.44282e-105
3.90953e-70
2.63131e-63
1.27514e-79
2.24715e-71
7.35745e-67
4.15812e-70
2.00531e-69
1.0105e-61
2.14968e-60
1.50362e-60
1.26499e-60
5.90094e-60
1.03567e-59
3.35589e-59
5.63368e-59
1.04704e-58
1.14219e-58
4.25134e-65
6.31044e-77
3.05612e-70
4.83343e-70
2.03351e-63
1.38642e-57
1.02017e-63
1.12387e-69
2.25216e-62
1.08482e-56
6.47355e-55
1.07693e-54
1.30372e-54
6.21905e-56
7.64462e-62
9.58803e-89
2.56115e-67
2.06366e-62
1.25476e-61
9.97782e-68
9.03824e-74
1.03494e-70
6.70979e-64
4.19025e-72
1.70767e-78
8.35584e-91
6.48287e-98
2.75179e-104
1.06688e-72
1.801e-79
3.95204e-88
1.29651e-142
1.30265e-149
2.10233e-156
4.31199e-163
3.20944e-132
6.57358e-125
7.22173e-118
1.72682e-110
7.00134e-91
2.46472e-83
2.27828e-76
2.85869e-69
2.17362e-76
4.05868e-84
1.83936e-91
1.24061e-98
4.81687e-105
-3.61914e-105
-1.11406e-111
-4.28296e-119
-9.06024e-126
-3.66196e-132
-1.12217e-138
7.88914e-140
7.93816e-133
3.55457e-126
1.07696e-119
4.91746e-113
2.48438e-106
1.57542e-98
2.77732e-91
2.26125e-84
1.69562e-76
5.27233e-69
5.00835e-69
3.86372e-76
6.13807e-84
1.1515e-80
1.58377e-73
7.67219e-67
5.30492e-67
2.39624e-74
3.48326e-81
5.57735e-82
7.28456e-75
2.44903e-68
8.46409e-76
3.35972e-83
1.03857e-90
2.41206e-115
4.76688e-143
1.65608e-165
1.65046e-106
6.59443e-114
7.67734e-114
2.04895e-108
3.67403e-101
6.31175e-82
6.73336e-75
8.27418e-68
6.34841e-67
4.80732e-67
5.77063e-67
7.39317e-67
2.91495e-66
1.10131e-65
4.16446e-65
7.4225e-65
4.98005e-65
6.17831e-71
4.97085e-77
4.08894e-83
1.20567e-76
2.1019e-70
1.37486e-64
3.29769e-71
5.66449e-79
1.13509e-84
5.50111e-63
1.92112e-61
4.68346e-61
2.53283e-61
1.30023e-67
7.19401e-69
3.69591e-101
1.51626e-74
5.78856e-69
1.82185e-67
1.04038e-73
1.29315e-80
1.0431e-78
3.68742e-84
3.60262e-78
1.69973e-84
2.13283e-92
2.44901e-99
8.60209e-106
9.75524e-113
1.06748e-119
1.61199e-96
9.38021e-136
9.26115e-143
1.86922e-149
2.01771e-156
7.59145e-156
7.13539e-117
8.874e-110
5.71166e-103
3.35708e-96
3.36545e-89
2.2947e-82
1.7215e-75
3.10049e-82
4.94491e-89
2.0041e-96
4.09906e-104
2.46108e-111
-3.25323e-111
-7.94707e-118
-1.47928e-124
-1.75609e-131
-2.54808e-138
-4.79787e-145
-1.54094e-151
6.53216e-139
2.64133e-131
1.28274e-124
1.06401e-117
9.53387e-111
2.56757e-103
5.63033e-96
7.95246e-89
9.52765e-82
5.1923e-75
4.7093e-75
1.74473e-82
8.00707e-90
1.25262e-87
2.34846e-80
8.37678e-73
7.06955e-73
5.26626e-80
1.07929e-87
1.56036e-88
5.17503e-81
3.12483e-74
8.27178e-84
8.32298e-92
2.42535e-99
2.04525e-107
5.02807e-138
5.42666e-161
4.44467e-207
1.3279e-114
1.0417e-107
3.40155e-101
3.78692e-94
9.71072e-87
4.91321e-80
1.1123e-73
7.81336e-73
6.2029e-73
1.02423e-72
1.34101e-72
3.20815e-72
1.27255e-71
4.83776e-71
1.29639e-70
8.206e-71
3.8613e-77
1.65015e-83
7.22814e-90
9.59646e-84
2.19604e-76
1.07648e-82
4.05207e-78
4.3017e-85
4.63871e-91
2.5079e-97
4.48325e-68
9.99263e-68
4.61256e-67
5.26572e-73
1.41225e-75
6.42077e-87
6.03871e-81
7.46129e-87
5.84936e-74
1.00326e-79
1.77562e-86
3.56426e-85
4.04144e-91
8.9577e-85
1.08361e-90
1.62715e-97
6.81451e-105
1.47427e-111
5.35148e-118
1.75797e-125
1.02236e-132
7.18147e-140
2.48847e-148
2.92551e-155
1.60493e-155
7.9625e-148
1.99275e-176
7.19381e-132
4.07291e-110
5.0903e-103
3.57545e-96
1.01571e-88
1.57471e-81
1.36676e-88
1.19386e-95
5.82003e-103
3.98112e-110
2.11418e-117
-1.8935e-117
-7.83675e-124
-1.47879e-130
-3.40913e-137
-5.10808e-144
-5.35993e-151
-7.66579e-158
-1.32558e-164
2.21906e-137
2.3866e-130
1.10413e-123
3.71208e-117
1.25279e-110
4.82086e-104
1.96304e-96
8.25446e-89
1.84845e-81
1.86037e-81
1.70796e-88
5.07159e-96
8.3581e-94
2.78506e-86
3.71154e-79
2.84179e-79
6.75935e-86
1.95773e-93
6.84475e-95
9.74352e-88
2.50579e-80
5.24389e-88
2.5167e-95
8.15235e-103
5.50606e-110
8.11257e-118
6.6086e-204
4.8676e-197
1.31845e-121
8.77718e-114
5.47432e-107
4.65949e-100
6.66079e-93
7.63336e-86
1.5455e-79
7.37506e-79
4.11933e-79
5.63005e-79
1.04539e-78
4.83754e-78
1.6137e-77
5.11696e-77
1.50564e-76
8.26905e-77
3.56395e-83
6.41956e-90
4.46969e-96
2.54707e-90
3.18314e-83
5.36664e-89
5.92245e-84
7.60529e-91
3.00048e-97
1.64773e-103
7.14275e-82
4.85457e-75
5.58235e-73
3.28079e-79
2.77274e-83
9.93151e-93
6.75196e-87
3.88171e-93
6.95908e-99
4.84037e-99
1.29694e-92
6.50784e-91
2.44014e-97
5.90035e-92
4.20017e-98
5.27007e-104
4.3255e-111
4.89524e-118
1.24672e-124
1.15855e-132
1.95092e-139
5.69282e-146
6.59053e-153
5.64172e-154
8.93015e-147
2.19576e-139
1.08198e-131
1.40011e-124
2.07495e-117
6.6593e-110
7.7638e-103
7.06209e-96
3.41795e-88
1.39983e-94
5.03151e-102
2.32481e-109
1.06222e-116
6.98568e-124
-7.47901e-124
-4.06807e-130
-1.03028e-136
-8.69705e-144
-1.49442e-150
-1.3275e-157
-1.49707e-164
-1.23619e-171
-2.15514e-178
3.37686e-138
7.47882e-130
2.28422e-122
1.69297e-115
1.27679e-108
1.33834e-101
1.46735e-94
8.10919e-88
6.24387e-88
4.14136e-95
4.10357e-102
1.83229e-99
1.13663e-92
9.29675e-86
7.17663e-86
1.23184e-92
9.54833e-100
4.89301e-101
2.58656e-94
1.90118e-87
4.04181e-94
8.76911e-102
5.13499e-109
9.62699e-116
1.86841e-122
5.744e-130
1.21684e-202
9.6375e-196
1.08208e-121
4.78964e-114
1.28017e-107
1.36269e-100
9.78808e-93
5.08132e-86
3.17399e-85
9.32592e-86
4.45081e-86
2.44239e-85
1.36678e-84
9.30196e-85
2.2344e-85
4.73292e-83
7.33146e-83
3.19087e-89
3.3921e-96
6.47837e-103
3.63593e-97
3.15583e-103
2.22556e-97
2.61211e-90
1.36174e-96
6.52022e-103
6.64096e-100
7.96457e-93
1.90118e-86
2.08809e-79
2.44336e-86
1.74015e-90
2.63333e-111
2.62427e-105
2.81753e-99
3.46e-105
6.1537e-108
2.78871e-101
2.48755e-97
1.57583e-103
3.96679e-98
1.8181e-104
9.39352e-111
8.26724e-118
5.74354e-125
2.18155e-131
1.29703e-139
1.05555e-148
2.25811e-155
4.73427e-162
1.98824e-168
5.0005e-176
1.71175e-183
9.93285e-191
0
0
6.41412e-118
3.42786e-110
1.58148e-130
3.64848e-123
4.09915e-116
4.84491e-109
4.88246e-116
3.84184e-123
4.85219e-131
6.95479e-139
-4.25924e-137
-1.14266e-143
-1.141e-150
-7.47225e-158
-1.07514e-164
-4.43139e-172
-9.4863e-179
-1.98447e-185
-2.46567e-192
-1.32764e-199
1.68145e-130
2.85079e-122
2.29606e-115
2.77757e-108
3.10276e-101
1.95689e-94
1.86164e-94
1.28131e-101
6.6101e-109
4.44656e-106
5.30106e-99
2.73797e-92
2.18019e-92
4.54326e-99
3.34503e-106
1.31859e-107
1.2268e-100
5.34666e-94
1.08508e-100
1.45694e-107
3.47888e-115
7.70691e-123
1.63818e-129
2.54626e-136
6.70401e-210
1.19541e-203
1.04915e-210
3.8618e-218
0
0
0
3.45405e-93
7.94296e-92
5.07705e-92
3.33025e-92
8.07273e-92
9.50344e-91
9.36678e-91
2.39603e-91
2.40327e-89
3.2817e-90
4.19642e-96
1.1191e-102
3.92958e-109
5.87791e-115
1.63348e-108
6.64973e-103
6.27828e-97
8.31009e-103
1.1482e-109
5.86398e-106
4.8265e-99
1.12716e-92
5.26386e-86
1.33794e-92
1.51537e-97
3.00547e-118
1.12097e-111
1.68468e-105
1.83689e-111
1.94042e-114
1.15544e-107
5.64469e-104
3.44208e-110
9.07592e-105
2.9339e-111
1.87418e-117
7.1012e-124
7.56562e-131
2.06617e-138
1.42302e-146
3.02512e-155
2.58372e-162
8.83771e-170
3.53813e-177
1.34054e-183
7.66921e-192
4.71309e-198
1.02404e-246
3.1574e-255
1.30707e-262
3.38076e-270
4.55221e-154
4.05879e-130
1.27622e-123
2.49e-301
6.28761e-309
1.70985e-132
4.64389e-138
9.49869e-146
-2.5698e-144
-2.87094e-151
-4.48304e-158
-4.86068e-165
-6.18964e-172
-2.05752e-179
0
0
0
0
0
6.78968e-130
7.38594e-123
3.97271e-116
2.75519e-109
9.02302e-102
1.85426e-101
1.71077e-108
3.25132e-116
3.63353e-113
8.39243e-106
5.14096e-99
4.40701e-99
4.28101e-106
7.94716e-114
1.28513e-114
1.17179e-107
4.79753e-101
2.65e-108
9.38005e-115
4.73135e-122
4.89527e-130
3.15458e-137
9.00795e-159
0
0
0
2.4709e-226
0
0
8.49057e-144
2.20131e-129
4.29668e-106
2.89522e-99
8.12308e-99
1.32173e-98
1.15586e-97
1.34216e-97
6.72279e-98
8.53621e-96
3.76163e-96
4.23311e-102
1.23223e-108
5.77911e-116
1.50705e-121
1.51635e-116
6.56167e-109
2.7301e-103
3.2646e-109
1.12708e-116
2.12012e-113
5.18591e-106
7.14553e-101
6.85102e-94
1.27544e-196
1.55211e-104
2.49238e-125
4.26002e-119
1.41442e-112
1.21731e-118
6.51865e-120
7.65235e-114
3.48789e-111
5.84588e-117
4.13378e-111
7.15384e-118
1.45763e-125
1.86986e-132
2.0207e-139
2.17647e-146
1.2368e-153
1.09921e-160
3.41649e-169
2.05062e-176
7.00967e-184
1.29708e-191
6.29712e-201
2.61692e-233
1.30906e-239
1.19504e-246
2.45541e-254
4.46887e-263
1.92932e-270
1.29854e-277
9.97192e-131
1.20961e-293
4.48923e-302
3.00161e-309
1.51176e-146
1.21991e-152
-4.60913e-151
-1.21308e-158
0
0
0
-1.16527e-186
0
0
0
0
0
0
0
0
0
0
8.7031e-183
7.75156e-175
5.57242e-168
3.34264e-161
2.67444e-114
1.62081e-106
8.63297e-108
0
0
0
1.74354e-313
1.36732e-305
1.87486e-297
9.91143e-137
1.47075e-129
4.19936e-137
1.8521e-144
9.64436e-152
0
0
0
0
0
0
0
1.76996e-144
3.98585e-113
2.53987e-106
4.42946e-106
2.55124e-106
7.69764e-105
2.5432e-104
2.94511e-104
6.38435e-103
3.45382e-110
1.01648e-109
1.06673e-115
4.0118e-122
8.26639e-128
4.64697e-123
4.70816e-117
1.24039e-110
6.72378e-117
5.85853e-124
2.16157e-121
4.62863e-113
1.01395e-120
7.83222e-144
0
0
3.90659e-155
3.93105e-149