/*--------------------------------*- C++ -*----------------------------------*\
| =========                 |                                                 |
| \\      /  F ield         | OpenFOAM: The Open Source CFD Toolbox           |
|  \\    /   O peration     | Version:  2406                                  |
|   \\  /    A nd           | Website:  www.openfoam.com                      |
|    \\/     M anipulation  |                                                 |
\*---------------------------------------------------------------------------*/
FoamFile
{
    version     2.0;
    format      ascii;
    arch        "LSB;label=32;scalar=64";
    class       surfaceScalarField;
    location    "2";
    object      alphaPhi0.grout;
}
// * * * * * * * * * * * * * * * * * * * * * * * * * * * * * * * * * * * * * //

dimensions      [0 3 -1 0 0 0 0];

oriented        oriented;

internalField   nonuniform List<scalar> 
19800
(
1.37628e-13
1.30319e-13
1.06435e-13
9.68276e-14
1.36282e-13
9.45718e-14
2.46812e-13
8.12607e-14
3.34827e-13
6.23941e-14
3.11958e-13
5.61132e-14
3.00583e-13
9.18649e-14
4.39839e-13
1.10776e-13
5.13336e-13
6.82069e-14
4.35532e-13
2.6167e-14
3.38023e-13
3.4084e-14
2.95856e-13
6.21288e-14
2.60194e-13
6.6965e-14
1.79996e-13
4.67666e-14
6.1652e-14
2.32869e-14
-6.56129e-14
8.78095e-15
-1.81323e-13
7.28233e-16
-2.75554e-13
-7.15106e-15
-3.43543e-13
-1.68222e-14
-3.83801e-13
-2.54218e-14
-3.93193e-13
-2.91204e-14
-3.69747e-13
-2.67883e-14
-3.16038e-13
-1.95567e-14
-2.40046e-13
-9.07229e-15
-1.52033e-13
3.48903e-15
-6.24409e-14
1.78694e-14
2.08019e-14
3.44303e-14
9.30168e-14
5.21379e-14
1.47001e-13
6.95319e-14
1.77946e-13
8.69907e-14
1.87931e-13
1.04303e-13
1.79548e-13
1.1907e-13
1.53583e-13
1.29558e-13
1.13802e-13
1.3575e-13
6.72206e-14
1.37786e-13
2.06758e-14
1.35972e-13
-2.02833e-14
1.30789e-13
-5.20894e-14
1.21448e-13
-7.41794e-14
1.0661e-13
-8.89709e-14
8.74267e-14
-1.00663e-13
6.80006e-14
-1.13915e-13
5.21045e-14
-1.30402e-13
4.04413e-14
-1.46666e-13
3.03972e-14
-1.58261e-13
1.79476e-14
-1.65067e-13
1.22504e-15
-1.69331e-13
-1.70854e-14
-1.69057e-13
-3.16849e-14
-1.56737e-13
-3.92039e-14
-1.25449e-13
-4.02218e-14
-7.45278e-14
-3.68686e-14
-8.7065e-15
-2.95427e-14
6.64797e-14
-1.7022e-14
1.46479e-13
3.8326e-16
2.25443e-13
1.90366e-14
2.94625e-13
3.41704e-14
3.44839e-13
4.35323e-14
3.70492e-13
4.82245e-14
3.70626e-13
5.01092e-14
3.46383e-13
4.91644e-14
2.98529e-13
4.38176e-14
2.28123e-13
3.35637e-14
1.39362e-13
2.0704e-14
4.11204e-14
9.28278e-15
-5.46933e-14
2.39884e-15
-1.36607e-13
5.8142e-16
-1.96154e-13
2.54136e-15
-2.28288e-13
7.12896e-15
-2.30655e-13
1.4353e-14
-2.03337e-13
2.45644e-14
-1.49556e-13
3.68322e-14
-7.63917e-14
4.82353e-14
5.75817e-15
5.48598e-14
8.53069e-14
5.38409e-14
1.5233e-13
4.50414e-14
2.00745e-13
3.12855e-14
2.28872e-13
1.70528e-14
2.3845e-13
6.4906e-15
2.32855e-13
1.95451e-15
2.15359e-13
3.82012e-15
1.87893e-13
1.13458e-14
1.50602e-13
2.37584e-14
1.02441e-13
4.07913e-14
4.27069e-14
6.25496e-14
-2.71203e-14
8.87005e-14
-1.02454e-13
1.1746e-13
-1.76161e-13
1.44639e-13
-2.40516e-13
1.64291e-13
-2.89355e-13
1.7062e-13
-3.20268e-13
1.61415e-13
-3.35307e-13
1.39381e-13
-3.3936e-13
1.12115e-13
-3.34378e-13
8.84039e-14
-3.1472e-13
7.5651e-14
-2.70089e-13
7.51027e-14
-1.99485e-13
7.93364e-14
-1.19783e-13
7.39318e-14
-6.71907e-14
5.73054e-14
-2.66443e-14
3.91149e-14
1.66519e-14
1.04519e-13
8.23058e-14
1.53728e-13
1.34207e-13
1.95161e-13
1.32041e-13
3.55715e-13
9.98215e-14
4.89466e-13
9.14791e-14
5.12557e-13
1.16214e-13
4.98001e-13
9.27079e-14
6.25737e-13
4.24505e-14
7.22036e-13
4.43162e-15
6.61577e-13
-1.12295e-14
5.39643e-13
-1.20808e-14
4.48259e-13
-1.22521e-14
3.64442e-13
-2.16962e-14
2.39077e-13
-3.82225e-14
7.05325e-14
-5.32395e-14
-1.13475e-13
-6.16737e-14
-2.86361e-13
-6.40073e-14
-4.30137e-13
-6.13095e-14
-5.33125e-13
-5.22495e-14
-5.90429e-13
-3.54493e-14
-5.98451e-13
-1.12422e-14
-5.56066e-13
1.81723e-14
-4.68133e-13
5.05696e-14
-3.47116e-13
8.48667e-14
-2.0864e-13
1.20726e-13
-6.79834e-14
1.56686e-13
6.17984e-14
1.90564e-13
1.72825e-13
2.21915e-13
2.56685e-13
2.50724e-13
3.06339e-13
2.75938e-13
3.22306e-13
2.95856e-13
3.08872e-13
3.08519e-13
2.69257e-13
3.12994e-13
2.08833e-13
3.10145e-13
1.37274e-13
3.00563e-13
6.47053e-14
2.83406e-13
-1.59817e-15
2.58833e-13
-5.69675e-14
2.28903e-13
-9.83886e-14
1.95098e-13
-1.26081e-13
1.5757e-13
-1.45472e-13
1.18572e-13
-1.65446e-13
8.33668e-14
-1.915e-13
5.58439e-14
-2.20429e-13
3.45841e-14
-2.44017e-13
1.46387e-14
-2.57452e-13
-6.87396e-15
-2.61153e-13
-2.75153e-14
-2.54408e-13
-4.16744e-14
-2.30922e-13
-4.50886e-14
-1.82655e-13
-3.71649e-14
-1.06815e-13
-2.03624e-14
-8.03638e-15
1.15321e-15
1.04971e-13
2.243e-14
2.22984e-13
3.8823e-14
3.36563e-13
4.74371e-14
4.35034e-13
4.7829e-14
5.07476e-13
4.11271e-14
5.45603e-13
2.83827e-14
5.45697e-13
9.90513e-15
5.08048e-13
-1.37079e-14
4.35409e-13
-4.00365e-14
3.32659e-13
-6.46105e-14
2.07843e-13
-8.24799e-14
7.28286e-14
-9.031e-14
-5.77823e-14
-8.73191e-14
-1.6919e-13
-7.45696e-14
-2.49005e-13
-5.36078e-14
-2.88965e-13
-2.58403e-14
-2.85737e-13
6.85658e-15
-2.41147e-13
4.10439e-14
-1.61981e-13
7.1389e-14
-5.91049e-14
9.17328e-14
5.42762e-14
9.70838e-14
1.65002e-13
8.53882e-14
2.62252e-13
5.81591e-14
3.38939e-13
1.983e-14
3.91848e-13
-2.36426e-14
4.20818e-13
-6.62588e-14
4.27507e-13
-1.0308e-13
4.14059e-13
-1.30733e-13
3.81824e-13
-1.47247e-13
3.30637e-13
-1.51428e-13
2.59204e-13
-1.42271e-13
1.66741e-13
-1.19123e-13
5.49542e-14
-8.27237e-14
-7.04106e-14
-3.67696e-14
-1.9949e-13
1.16414e-14
-3.19272e-13
5.32718e-14
-4.16794e-13
8.04325e-14
-4.83055e-13
9.03042e-14
-5.1737e-13
8.6973e-14
-5.25537e-13
7.89788e-14
-5.13151e-13
7.53534e-14
-4.76815e-13
7.96703e-14
-4.09738e-13
8.70297e-14
-3.12824e-13
8.32515e-14
-1.9854e-13
5.40149e-14
-1.16493e-13
9.78454e-15
-6.03071e-14
5.19872e-15
7.239e-15
1.12698e-13
1.44566e-13
1.47058e-13
1.94655e-13
1.54639e-13
1.49449e-13
3.39662e-13
9.65211e-14
5.00677e-13
3.86091e-14
4.72454e-13
2.94777e-14
4.3494e-13
1.20705e-14
5.81002e-13
-4.24247e-14
7.01744e-13
-1.12353e-13
6.54497e-13
-1.58642e-13
5.347e-13
-1.69553e-13
4.40395e-13
-1.66722e-13
3.55664e-13
-1.69968e-13
2.35232e-13
-1.78127e-13
7.51859e-14
-1.78678e-13
-1.00577e-13
-1.64074e-13
-2.66419e-13
-1.3533e-13
-4.03242e-13
-9.66732e-14
-4.99901e-13
-4.97663e-14
-5.52566e-13
5.58398e-15
-5.58376e-13
6.83839e-14
-5.15602e-13
1.35105e-13
-4.28161e-13
2.01558e-13
-3.08334e-13
2.64426e-13
-1.73307e-13
3.22001e-13
-3.90833e-14
3.73946e-13
8.3358e-14
4.18619e-13
1.86986e-13
4.53936e-13
2.6271e-13
4.79601e-13
3.0341e-13
4.96155e-13
3.09969e-13
5.02939e-13
2.87838e-13
4.98493e-13
2.41855e-13
4.82415e-13
1.77043e-13
4.55958e-13
1.01494e-13
4.21285e-13
2.58597e-14
3.80814e-13
-4.10163e-14
3.36933e-13
-9.49785e-14
2.91004e-13
-1.34322e-13
2.42928e-13
-1.57588e-13
1.92476e-13
-1.6778e-13
1.4195e-13
-1.75472e-13
9.70064e-14
-1.91301e-13
6.33641e-14
-2.15219e-13
4.20106e-14
-2.3699e-13
2.85927e-14
-2.47187e-13
1.83797e-14
-2.43849e-13
1.11412e-14
-2.27823e-13
1.03147e-14
-1.96065e-13
1.78219e-14
-1.42933e-13
3.08506e-14
-6.66792e-14
4.39371e-14
2.80608e-14
5.31191e-14
1.33868e-13
5.7153e-14
2.44116e-13
5.52576e-14
3.51988e-13
4.51624e-14
4.4769e-13
2.42245e-14
5.19057e-13
-7.81791e-15
5.56032e-13
-4.77413e-14
5.54616e-13
-9.04935e-14
5.16765e-13
-1.31662e-13
4.47376e-13
-1.68308e-13
3.52098e-13
-1.9784e-13
2.37878e-13
-2.16701e-13
1.1473e-13
-2.20619e-13
-3.93817e-15
-2.06437e-13
-1.03528e-13
-1.7402e-13
-1.71778e-13
-1.26775e-13
-2.01631e-13
-7.05955e-14
-1.92195e-13
-1.22234e-14
-1.47857e-13
4.18396e-14
-7.64595e-14
8.5459e-14
1.24976e-14
1.12566e-13
1.09201e-13
1.17348e-13
2.04529e-13
9.5446e-14
2.90901e-13
4.57273e-14
3.62864e-13
-2.84209e-14
4.17189e-13
-1.19209e-13
4.5251e-13
-2.16015e-13
4.68743e-13
-3.07663e-13
4.66415e-13
-3.8454e-13
4.45866e-13
-4.40008e-13
4.06423e-13
-4.70846e-13
3.46145e-13
-4.76693e-13
2.62534e-13
-4.58737e-13
1.54476e-13
-4.18756e-13
2.46199e-14
-3.59068e-13
-1.18209e-13
-2.83739e-13
-2.58872e-13
-1.99516e-13
-3.7859e-13
-1.16564e-13
-4.62286e-13
-4.70646e-14
-5.0512e-13
-2.22568e-15
-5.145e-13
1.48536e-14
-5.01305e-13
1.46478e-14
-4.71065e-13
1.86647e-14
-4.23024e-13
4.05964e-14
-3.55369e-13
6.78525e-14
-2.5721e-13
7.15391e-14
-1.33726e-13
4.18558e-14
-6.15386e-14
3.63313e-14
2.36957e-14
9.12452e-14
1.97093e-13
9.53e-14
3.01634e-13
9.38125e-14
2.98858e-13
2.57251e-13
2.40234e-13
4.55982e-13
1.84538e-13
4.14242e-13
1.51649e-13
3.42388e-13
1.12165e-13
4.77164e-13
5.42338e-14
6.23931e-13
-2.22906e-14
6.13622e-13
-9.72308e-14
5.14119e-13
-1.52023e-13
4.24432e-13
-1.88181e-13
3.45687e-13
-2.15033e-13
2.42015e-13
-2.34804e-13
1.05787e-13
-2.4391e-13
-4.69651e-14
-2.39993e-13
-1.94716e-13
-2.23519e-13
-3.17346e-13
-1.95558e-13
-4.02891e-13
-1.55451e-13
-4.48702e-13
-1.0227e-13
-4.54003e-13
-3.73952e-14
-4.17388e-13
3.4542e-14
-3.41779e-13
1.08727e-13
-2.3759e-13
1.82515e-13
-1.20115e-13
2.54127e-13
-5.76398e-15
3.22074e-13
9.49965e-14
3.84266e-13
1.77509e-13
4.37924e-13
2.33979e-13
4.81424e-13
2.56849e-13
5.14849e-13
2.46934e-13
5.37254e-13
2.10829e-13
5.45994e-13
1.54764e-13
5.4023e-13
8.46943e-14
5.21457e-13
8.85891e-15
4.90036e-13
-6.28255e-14
4.45293e-13
-1.23367e-13
3.89843e-13
-1.70345e-13
3.29358e-13
-2.02137e-13
2.66429e-13
-2.15101e-13
1.98175e-13
-2.09782e-13
1.22322e-13
-1.9749e-13
4.4598e-14
-1.93685e-13
-2.19918e-14
-2.03321e-13
-6.61653e-14
-2.1661e-13
-8.60444e-14
-2.20345e-13
-8.77288e-14
-2.09578e-13
-7.77996e-14
-1.86594e-13
-5.85261e-14
-1.5233e-13
-2.94331e-14
-1.02979e-13
8.41336e-15
-3.46918e-14
5.02657e-14
5.12152e-14
8.88183e-14
1.48579e-13
1.16561e-13
2.50008e-13
1.27404e-13
3.48479e-13
1.17433e-13
4.36037e-13
8.55514e-14
5.03094e-13
3.40911e-14
5.40629e-13
-3.13218e-14
5.43567e-13
-1.03008e-13
5.12248e-13
-1.72939e-13
4.51242e-13
-2.33885e-13
3.67338e-13
-2.79687e-13
2.68597e-13
-3.05194e-13
1.64503e-13
-3.06673e-13
6.59754e-14
-2.82877e-13
-1.57427e-14
-2.36163e-13
-7.12109e-14
-1.72691e-13
-9.49622e-14
-1.0129e-13
-8.67175e-14
-3.14956e-14
-5.11382e-14
2.81584e-14
3.72901e-15
7.08688e-14
6.87056e-14
9.14737e-14
1.35671e-13
8.63348e-14
1.99018e-13
5.37844e-14
2.5597e-13
-4.96923e-15
3.05782e-13
-8.50809e-14
3.48408e-13
-1.78024e-13
3.83411e-13
-2.72566e-13
4.09536e-13
-3.56773e-13
4.24742e-13
-4.20693e-13
4.26316e-13
-4.5872e-13
4.11011e-13
-4.70499e-13
3.75296e-13
-4.59615e-13
3.1589e-13
-4.30883e-13
2.3056e-13
-3.87713e-13
1.19888e-13
-3.31403e-13
-1.06994e-14
-2.62168e-13
-1.49428e-13
-1.82048e-13
-2.80005e-13
-9.76809e-14
-3.85622e-13
-2.2545e-14
-4.54262e-13
2.646e-14
-4.80522e-13
3.8396e-14
-4.67271e-13
2.15659e-14
-4.27897e-13
3.77549e-15
-3.86343e-13
1.08617e-14
-3.52617e-13
3.78861e-14
-3.00755e-13
6.15336e-14
-1.54182e-13
7.51944e-14
-6.50824e-14
8.84225e-14
5.98044e-14
8.4291e-14
3.01354e-13
8.90222e-14
4.31976e-13
4.50688e-14
4.41927e-13
1.97413e-13
3.83709e-13
4.03914e-13
3.20283e-13
3.52188e-13
2.64714e-13
2.62092e-13
2.04789e-13
3.77429e-13
1.33652e-13
5.24655e-13
4.01761e-14
5.34183e-13
-6.02489e-14
4.55845e-13
-1.43428e-13
3.80742e-13
-2.0529e-13
3.14456e-13
-2.53986e-13
2.26351e-13
-2.92219e-13
1.07921e-13
-3.15579e-13
-2.71291e-14
-3.21351e-13
-1.58301e-13
-3.11514e-13
-2.64626e-13
-2.89808e-13
-3.34507e-13
-2.57277e-13
-3.67701e-13
-2.12457e-13
-3.66391e-13
-1.5488e-13
-3.29324e-13
-8.81285e-14
-2.57356e-13
-1.81353e-14
-1.59966e-13
5.08365e-14
-5.17977e-14
1.1685e-13
5.0665e-14
1.78964e-13
1.36781e-13
2.35527e-13
2.0328e-13
2.83737e-13
2.4417e-13
3.21496e-13
2.51281e-13
3.49383e-13
2.243e-13
3.68167e-13
1.71585e-13
3.75713e-13
1.01342e-13
3.69823e-13
1.86402e-14
3.51465e-13
-6.88387e-14
3.21697e-13
-1.48275e-13
2.78652e-13
-2.10568e-13
2.2131e-13
-2.56643e-13
1.54179e-13
-2.89778e-13
8.40107e-14
-3.05373e-13
1.28772e-14
-2.96479e-13
-6.21811e-14
-2.67997e-13
-1.41333e-13
-2.3747e-13
-2.15598e-13
-2.19032e-13
-2.70361e-13
-2.10772e-13
-2.95063e-13
-2.00393e-13
-2.88474e-13
-1.79144e-13
-2.55529e-13
-1.46547e-13
-2.01777e-13
-1.04539e-13
-1.31965e-13
-5.23912e-14
-5.21042e-14
1.15414e-14
2.94739e-14
8.58947e-14
1.03579e-13
1.66081e-13
1.61947e-13
2.47081e-13
1.97484e-13
3.24802e-13
2.03975e-13
3.94618e-13
1.77204e-13
4.49909e-13
1.17462e-13
4.83267e-13
3.12813e-14
4.89563e-13
-6.95656e-14
4.68086e-13
-1.71397e-13
4.22305e-13
-2.62044e-13
3.58182e-13
-3.32443e-13
2.82676e-13
-3.76337e-13
2.03116e-13
-3.89573e-13
1.27098e-13
-3.70401e-13
6.22257e-14
-3.20861e-13
1.52939e-14
-2.4797e-13
-9.07362e-15
-1.63236e-13
-9.86389e-15
-8.02038e-14
9.65925e-15
-1.12246e-14
4.27775e-14
3.48428e-14
8.15904e-14
5.32153e-14
1.19784e-13
4.26575e-14
1.54564e-13
4.89838e-15
1.86851e-13
-5.56052e-14
2.19762e-13
-1.31895e-13
2.56197e-13
-2.15056e-13
2.96638e-13
-2.95012e-13
3.38073e-13
-3.61547e-13
3.74366e-13
-4.05761e-13
3.97947e-13
-4.22078e-13
4.02038e-13
-4.10023e-13
3.8237e-13
-3.74708e-13
3.37336e-13
-3.25158e-13
2.67116e-13
-2.71006e-13
1.73013e-13
-2.18397e-13
5.82969e-14
-1.675e-13
-7.09265e-14
-1.13099e-13
-2.04952e-13
-5.07246e-14
-3.30266e-13
1.53114e-14
-4.27769e-13
6.77819e-14
-4.75042e-13
8.65603e-14
-4.58828e-13
6.80262e-14
-3.97926e-13
3.56005e-14
-3.44871e-13
1.98977e-14
-3.27627e-13
2.83901e-14
-3.05162e-13
5.16319e-14
-1.61532e-13
1.00827e-13
-6.57034e-14
1.36486e-13
9.81056e-14
7.29278e-14
2.90261e-13
1.05078e-13
4.45663e-13
8.42463e-15
4.13854e-13
1.43154e-13
3.44875e-13
3.43021e-13
2.6458e-13
2.79886e-13
1.78093e-13
1.75485e-13
9.82013e-14
2.67038e-13
2.42295e-14
4.04988e-13
-6.53328e-14
4.27577e-13
-1.63716e-13
3.68426e-13
-2.44564e-13
3.07676e-13
-2.98436e-13
2.54432e-13
-3.32511e-13
1.83317e-13
-3.51627e-13
8.44374e-14
-3.53003e-13
-3.24481e-14
-3.33671e-13
-1.48355e-13
-2.96103e-13
-2.40202e-13
-2.46379e-13
-2.94637e-13
-1.89047e-13
-3.12651e-13
-1.24845e-13
-3.00172e-13
-5.36366e-14
-2.58146e-13
2.15832e-14
-1.85936e-13
9.50288e-14
-9.0882e-14
1.61265e-13
1.32585e-14
2.17197e-13
1.09497e-13
2.62017e-13
1.86447e-13
2.9536e-13
2.41583e-13
3.15824e-13
2.71258e-13
3.22317e-13
2.67582e-13
3.16604e-13
2.27888e-13
3.01589e-13
1.60458e-13
2.77997e-13
7.61101e-14
2.45999e-13
-1.99531e-14
2.08238e-13
-1.22221e-13
1.671e-13
-2.16751e-13
1.21044e-13
-2.89487e-13
6.7432e-14
-3.39585e-13
8.76714e-15
-3.74591e-13
-4.77863e-14
-3.9415e-13
-9.79026e-14
-3.8832e-13
-1.44784e-13
-3.53375e-13
-1.93945e-13
-3.01701e-13
-2.43929e-13
-2.51428e-13
-2.84244e-13
-2.09794e-13
-3.02725e-13
-1.70945e-13
-2.93725e-13
-1.27322e-13
-2.59336e-13
-7.79034e-14
-2.05082e-13
-2.56357e-14
-1.36566e-13
2.82084e-14
-5.97211e-14
8.44031e-14
1.80045e-14
1.42279e-13
8.82816e-14
1.98399e-13
1.43709e-13
2.48979e-13
1.78596e-13
2.92408e-13
1.88336e-13
3.28811e-13
1.69139e-13
3.57694e-13
1.19472e-13
3.76625e-13
4.23317e-14
3.82208e-13
-5.38358e-14
3.72196e-13
-1.56716e-13
3.4698e-13
-2.53304e-13
3.09653e-13
-3.32662e-13
2.64916e-13
-3.86995e-13
2.17563e-13
-4.114e-13
1.7141e-13
-4.03641e-13
1.29242e-13
-3.64861e-13
9.35568e-14
-3.008e-13
6.70303e-14
-2.22118e-13
5.18025e-14
-1.42845e-13
4.7958e-14
-7.733e-14
5.27521e-14
-3.71071e-14
6.17929e-14
-2.89193e-14
7.16805e-14
-5.41622e-14
8.22268e-14
-1.09337e-13
9.67013e-14
-1.87134e-13
1.20086e-13
-2.77934e-13
1.56435e-13
-3.71387e-13
2.06422e-13
-4.57518e-13
2.6576e-13
-5.27225e-13
3.25097e-13
-5.72659e-13
3.7194e-13
-5.8805e-13
3.94347e-13
-5.71122e-13
3.84707e-13
-5.24434e-13
3.41745e-13
-4.55897e-13
2.69885e-13
-3.77248e-13
1.77123e-13
-3.00214e-13
7.16902e-14
-2.30898e-13
-4.1433e-14
-1.66643e-13
-1.62178e-13
-9.90031e-14
-2.89054e-13
-2.46787e-14
-4.06014e-13
4.50908e-14
-4.75733e-13
8.7851e-14
-4.63778e-13
9.14019e-14
-3.85426e-13
6.99553e-14
-3.14812e-13
4.99083e-14
-2.99385e-13
4.47397e-14
-2.76442e-13
6.20136e-14
-1.50898e-13
1.26943e-13
-6.00314e-14
1.75937e-13
1.2356e-13
9.17049e-14
2.79026e-13
8.77286e-14
4.29423e-13
-3.5818e-14
3.66945e-13
7.23533e-14
2.82324e-13
2.56239e-13
1.90108e-13
1.9239e-13
8.06202e-14
8.87371e-14
-1.53101e-14
1.64247e-13
-9.32806e-14
2.92967e-13
-1.78286e-13
3.29233e-13
-2.67804e-13
2.93734e-13
-3.36666e-13
2.52687e-13
-3.74737e-13
2.16161e-13
-3.90136e-13
1.64689e-13
-3.90074e-13
8.82569e-14
-3.72513e-13
-8.21346e-15
-3.32774e-13
-1.09068e-13
-2.72095e-13
-1.90057e-13
-1.97936e-13
-2.34706e-13
-1.18522e-13
-2.43406e-13
-3.75243e-14
-2.2488e-13
4.4742e-14
-1.82649e-13
1.26112e-13
-1.15878e-13
2.01307e-13
-2.97501e-14
2.64171e-13
6.41101e-14
3.10326e-13
1.49167e-13
3.38499e-13
2.13362e-13
3.4931e-13
2.54616e-13
3.42745e-13
2.71717e-13
3.18816e-13
2.57846e-13
2.80876e-13
2.08762e-13
2.33961e-13
1.32283e-13
1.80638e-13
4.09888e-14
1.22652e-13
-6.03426e-14
6.52741e-14
-1.69313e-13
1.45016e-14
-2.72518e-13
-2.96012e-14
-3.51243e-13
-7.23769e-14
-4.00688e-13
-1.16021e-13
-4.31139e-13
-1.54634e-13
-4.48996e-13
-1.80251e-13
-4.46217e-13
-1.92521e-13
-4.12499e-13
-1.99551e-13
-3.51713e-13
-2.08864e-13
-2.80167e-13
-2.19526e-13
-2.11082e-13
-2.23628e-13
-1.46243e-13
-2.13523e-13
-8.20586e-14
-1.86433e-13
-1.81287e-14
-1.43841e-13
4.22544e-14
-8.93574e-14
9.66728e-14
-2.81609e-14
1.45279e-13
3.29864e-14
1.88245e-13
8.70444e-14
2.23616e-13
1.28718e-13
2.48632e-13
1.55021e-13
2.62643e-13
1.63791e-13
2.68188e-13
1.52121e-13
2.693e-13
1.16889e-13
2.68871e-13
5.73518e-14
2.67265e-13
-2.24466e-14
2.62944e-13
-1.13601e-13
2.54326e-13
-2.04746e-13
2.41424e-13
-2.85194e-13
2.26006e-13
-3.46869e-13
2.10089e-13
-3.84515e-13
1.9401e-13
-3.95192e-13
1.75947e-13
-3.78409e-13
1.53519e-13
-3.37225e-13
1.26054e-13
-2.7927e-13
9.53413e-14
-2.16352e-13
6.42435e-14
-1.62263e-13
3.48261e-14
-1.29652e-13
8.1031e-15
-1.27205e-13
-1.44184e-14
-1.57944e-13
-2.91945e-14
-2.18826e-13
-3.07653e-14
-3.01708e-13
-1.34602e-14
-3.95512e-13
2.64685e-14
-4.88927e-13
8.89664e-14
-5.7252e-13
1.68658e-13
-6.39381e-13
2.54211e-13
-6.84363e-13
3.29717e-13
-7.02916e-13
3.78459e-13
-6.90821e-13
3.87872e-13
-6.45774e-13
3.53562e-13
-5.70347e-13
2.81238e-13
-4.74342e-13
1.85372e-13
-3.73147e-13
8.33929e-14
-2.81198e-13
-1.49569e-14
-2.03188e-13
-1.15327e-13
-1.31437e-13
-2.31288e-13
-5.43056e-14
-3.57442e-13
2.74478e-14
-4.48676e-13
9.45402e-14
-4.4932e-13
1.25103e-13
-3.67205e-13
1.19486e-13
-2.8871e-13
9.73434e-14
-2.72414e-13
7.8904e-14
-2.35024e-13
9.26632e-14
-1.3215e-13
1.59939e-13
-6.30705e-14
2.11247e-13
1.39557e-13
1.09736e-13
3.619e-13
4.53074e-14
4.92586e-13
-9.60575e-14
4.34758e-13
-1.2346e-14
3.51836e-13
1.48062e-13
2.55499e-13
9.16949e-14
1.3041e-13
8.67746e-17
2.0658e-14
6.94641e-14
-6.66886e-14
1.94748e-13
-1.60435e-13
2.48729e-13
-2.60726e-13
2.40883e-13
-3.42051e-13
2.22421e-13
-3.918e-13
2.03474e-13
-4.18156e-13
1.71815e-13
-4.31281e-13
1.19503e-13
-4.31293e-13
4.60298e-14
-4.11838e-13
-3.86679e-14
-3.7038e-13
-1.11248e-13
-3.12261e-13
-1.51425e-13
-2.468e-13
-1.56717e-13
-1.80105e-13
-1.37455e-13
-1.13325e-13
-9.99095e-14
-4.74156e-14
-4.41123e-14
1.39588e-14
2.63828e-14
6.49767e-14
1.02813e-13
1.0035e-13
1.7046e-13
1.17799e-13
2.17012e-13
1.18047e-13
2.40693e-13
1.01829e-13
2.43187e-13
6.93113e-14
2.1916e-13
2.37924e-14
1.62648e-13
-2.90521e-14
8.10673e-14
-8.62776e-14
-1.02438e-14
-1.47156e-13
-1.06452e-13
-2.07025e-13
-2.10479e-13
-2.57148e-13
-3.1332e-13
-2.93082e-13
-3.93167e-13
-3.19566e-13
-4.38126e-13
-3.43925e-13
-4.56984e-13
-3.65794e-13
-4.6328e-13
-3.76736e-13
-4.56755e-13
-3.70045e-13
-4.26613e-13
-3.48117e-13
-3.68831e-13
-3.19153e-13
-2.92821e-13
-2.88703e-13
-2.11482e-13
-2.56054e-13
-1.30968e-13
-2.17298e-13
-5.20631e-14
-1.69436e-13
2.31111e-14
-1.11617e-13
8.96274e-14
-4.49737e-14
1.43792e-13
2.66857e-14
1.85728e-13
9.6284e-14
2.17235e-13
1.55099e-13
2.38318e-13
1.96175e-13
2.46788e-13
2.16562e-13
2.41197e-13
2.16414e-13
2.23872e-13
1.96243e-13
2.01091e-13
1.55411e-13
1.80287e-13
9.34232e-14
1.66521e-13
1.26682e-14
1.60764e-13
-8.00277e-14
1.61002e-13
-1.74518e-13
1.64913e-13
-2.60296e-13
1.71603e-13
-3.29226e-13
1.8077e-13
-3.76555e-13
1.9022e-13
-4.00358e-13
1.94523e-13
-4.00707e-13
1.86715e-13
-3.79662e-13
1.61927e-13
-3.42007e-13
1.19881e-13
-2.95684e-13
6.44864e-14
-2.5101e-13
1.7309e-15
-2.18657e-13
-6.16497e-14
-2.07142e-13
-1.18019e-13
-2.20725e-13
-1.58727e-13
-2.58253e-13
-1.75422e-13
-3.13306e-13
-1.622e-13
-3.7585e-13
-1.17048e-13
-4.35122e-13
-4.22507e-14
-4.82794e-13
5.54045e-14
-5.1492e-13
1.64272e-13
-5.31545e-13
2.68176e-13
-5.3402e-13
3.48427e-13
-5.21734e-13
3.87575e-13
-4.90906e-13
3.74593e-13
-4.37351e-13
3.1061e-13
-3.61936e-13
2.12393e-13
-2.74548e-13
1.07374e-13
-1.91229e-13
1.71087e-14
-1.24405e-13
-6.17545e-14
-7.24287e-14
-1.55522e-13
-2.06715e-14
-2.77416e-13
4.2734e-14
-3.86242e-13
1.09308e-13
-4.09327e-13
1.54579e-13
-3.39806e-13
1.63194e-13
-2.65856e-13
1.41973e-13
-2.45012e-13
1.14943e-13
-1.9454e-13
1.30039e-13
-1.16894e-13
1.98541e-13
-8.48579e-14
2.42106e-13
1.5707e-13
8.91098e-14
4.02114e-13
7.87373e-15
5.27439e-13
-1.58623e-13
4.85967e-13
-1.02258e-13
4.27089e-13
2.56316e-14
3.41829e-13
-2.24909e-14
2.2133e-13
-9.87225e-14
1.15576e-13
-3.51346e-14
3.41175e-14
8.53031e-14
-5.55658e-14
1.55751e-13
-1.57787e-13
1.76224e-13
-2.48772e-13
1.8067e-13
-3.12822e-13
1.76948e-13
-3.55597e-13
1.61026e-13
-3.88816e-13
1.3045e-13
-4.15494e-13
8.1161e-14
-4.29381e-13
1.58515e-14
-4.23989e-13
-4.59867e-14
-4.00062e-13
-8.14933e-14
-3.65148e-13
-8.38973e-14
-3.26478e-13
-6.32724e-14
-2.86563e-13
-2.82777e-14
-2.46029e-13
1.90302e-14
-2.06917e-13
7.5573e-14
-1.73826e-13
1.35293e-13
-1.52151e-13
1.86217e-13
-1.4503e-13
2.16355e-13
-1.52147e-13
2.23737e-13
-1.72486e-13
2.12729e-13
-2.05658e-13
1.79953e-13
-2.48292e-13
1.17426e-13
-2.94058e-13
3.11765e-14
-3.39601e-13
-5.99506e-14
-3.86017e-13
-1.48006e-13
-4.31935e-13
-2.40126e-13
-4.69068e-13
-3.35376e-13
-4.89094e-13
-4.13901e-13
-4.93381e-13
-4.56683e-13
-4.92007e-13
-4.65267e-13
-4.9223e-13
-4.54912e-13
-4.90935e-13
-4.3393e-13
-4.79325e-13
-3.97295e-13
-4.52432e-13
-3.38923e-13
-4.12288e-13
-2.62299e-13
-3.63566e-13
-1.76715e-13
-3.08986e-13
-8.8619e-14
-2.4893e-13
-8.36299e-16
-1.83003e-13
8.216e-14
-1.10556e-13
1.52545e-13
-3.10043e-14
2.03578e-13
5.42101e-14
2.34119e-13
1.39258e-13
2.47835e-13
2.14269e-13
2.48507e-13
2.69102e-13
2.3677e-13
2.97572e-13
2.11456e-13
2.98672e-13
1.738e-13
2.74405e-13
1.30196e-13
2.2695e-13
9.07682e-14
1.57969e-13
6.47304e-14
7.02871e-14
5.62115e-14
-3.01006e-14
6.3607e-14
-1.3389e-13
8.2427e-14
-2.30602e-13
1.08608e-13
-3.11576e-13
1.39144e-13
-3.71952e-13
1.69859e-13
-4.10718e-13
1.9331e-13
-4.29408e-13
1.99797e-13
-4.30766e-13
1.8127e-13
-4.18296e-13
1.35008e-13
-3.96539e-13
6.44506e-14
-3.71228e-13
-2.23639e-14
-3.48674e-13
-1.14454e-13
-3.34466e-13
-1.98712e-13
-3.32053e-13
-2.61178e-13
-3.41636e-13
-2.89909e-13
-3.59609e-13
-2.78344e-13
-3.78929e-13
-2.26886e-13
-3.90909e-13
-1.41973e-13
-3.88407e-13
-3.39008e-14
-3.69156e-13
8.49468e-14
-3.37123e-13
2.00776e-13
-3.00316e-13
2.98132e-13
-2.65619e-13
3.59938e-13
-2.3383e-13
3.70304e-13
-1.98865e-13
3.22336e-13
-1.53071e-13
2.27913e-13
-9.5534e-14
1.19097e-13
-3.66228e-14
3.07172e-14
7.94473e-15
-2.93694e-14
3.12539e-14
-9.21198e-14
4.50469e-14
-1.91236e-13
7.03208e-14
-3.02609e-13
1.14325e-13
-3.48152e-13
1.58744e-13
-3.02569e-13
1.77277e-13
-2.43191e-13
1.61356e-13
-2.12362e-13
1.35042e-13
-1.53886e-13
1.57111e-13
-1.11838e-13
2.31931e-13
-1.17225e-13
2.66316e-13
1.80112e-13
5.84751e-14
3.28539e-13
-1.40239e-14
4.48529e-13
-2.01563e-13
4.17953e-13
-1.81296e-13
3.87973e-13
-8.99923e-14
3.24002e-13
-1.30706e-13
2.26353e-13
-1.90543e-13
1.45628e-13
-1.35118e-13
9.1921e-14
-2.58424e-14
3.16789e-14
5.35299e-14
-4.56851e-14
9.74705e-14
-1.21715e-13
1.22084e-13
-1.79475e-13
1.29377e-13
-2.20435e-13
1.2246e-13
-2.55586e-13
1.07022e-13
-2.90762e-13
7.91761e-14
-3.218e-13
3.49742e-14
-3.40398e-13
-1.25191e-14
-3.42588e-13
-4.05819e-14
-3.322e-13
-3.84531e-14
-3.15957e-13
-1.44557e-14
-2.9785e-13
2.15723e-14
-2.79438e-13
6.51955e-14
-2.62144e-13
1.12582e-13
-2.49118e-13
1.59643e-13
-2.44945e-13
1.97465e-13
-2.52978e-13
2.14962e-13
-2.73158e-13
2.09978e-13
-3.04112e-13
1.89427e-13
-3.44797e-13
1.52204e-13
-3.9099e-13
8.78405e-14
-4.34305e-13
-9.61726e-16
-4.68838e-13
-9.28165e-14
-4.95963e-13
-1.73839e-13
-5.18657e-13
-2.51553e-13
-5.32636e-13
-3.33842e-13
-5.28287e-13
-4.08533e-13
-5.02313e-13
-4.53848e-13
-4.63816e-13
-4.61661e-13
-4.26625e-13
-4.41709e-13
-3.97672e-13
-4.05652e-13
-3.74162e-13
-3.55291e-13
-3.49598e-13
-2.87781e-13
-3.19679e-13
-2.05341e-13
-2.8303e-13
-1.14943e-13
-2.39503e-13
-2.17831e-14
-1.89645e-13
7.18206e-14
-1.34582e-13
1.61096e-13
-7.46373e-14
2.35904e-13
-8.18083e-15
2.85201e-13
6.66263e-14
3.04166e-13
1.4789e-13
2.96451e-13
2.27784e-13
2.69765e-13
2.94782e-13
2.29777e-13
3.38691e-13
1.78306e-13
3.54347e-13
1.16898e-13
3.416e-13
5.15303e-14
3.02734e-13
-6.60428e-15
2.40327e-13
-4.5394e-14
1.57299e-13
-5.76957e-14
5.85025e-14
-4.41063e-14
-4.81844e-14
-1.09342e-14
-1.52729e-13
3.40757e-14
-2.45569e-13
8.41986e-14
-3.20426e-13
1.32806e-13
-3.75617e-13
1.713e-13
-4.13271e-13
1.89272e-13
-4.37301e-13
1.7768e-13
-4.51606e-13
1.32609e-13
-4.59311e-13
5.68274e-14
-4.6281e-13
-4.1062e-14
-4.6389e-13
-1.48053e-13
-4.63672e-13
-2.47794e-13
-4.62557e-13
-3.22448e-13
-4.60195e-13
-3.56607e-13
-4.55112e-13
-3.42146e-13
-4.43963e-13
-2.81133e-13
-4.21362e-13
-1.84854e-13
-3.81507e-13
-6.95062e-14
-3.21646e-13
4.9111e-14
-2.4548e-13
1.59007e-13
-1.63667e-13
2.51289e-13
-8.98014e-14
3.15877e-13
-3.32492e-14
3.38615e-13
6.60169e-15
3.06459e-13
3.96037e-14
2.21439e-13
7.59822e-14
1.11465e-13
1.15254e-13
2.00246e-14
1.43714e-13
-2.88334e-14
1.47316e-13
-5.95009e-14
1.29859e-13
-1.20631e-13
1.15137e-13
-2.14087e-13
1.24966e-13
-2.71632e-13
1.54318e-13
-2.53316e-13
1.73371e-13
-2.12606e-13
1.59759e-13
-1.6916e-13
1.36851e-13
-1.03969e-13
1.657e-13
-1.15359e-13
2.46331e-13
-1.43047e-13
2.80296e-13
2.03779e-13
5.24685e-14
2.27741e-13
-2.71013e-14
3.25174e-13
-2.20388e-13
3.00128e-13
-2.39813e-13
2.884e-13
-1.79914e-13
2.44454e-13
-2.09766e-13
1.71097e-13
-2.49355e-13
1.16056e-13
-2.0056e-13
8.95853e-14
-1.06859e-13
6.11443e-14
-2.80843e-14
1.51918e-14
3.07637e-14
-3.78646e-14
7.03881e-14
-8.2606e-14
8.40971e-14
-1.161e-13
7.90218e-14
-1.45921e-13
6.97002e-14
-1.79092e-13
5.60196e-14
-2.14712e-13
3.00988e-14
-2.45321e-13
-2.25364e-15
-2.64024e-13
-2.14265e-14
-2.70501e-13
-1.45922e-14
-2.69328e-13
1.21107e-14
-2.6514e-13
4.90987e-14
-2.61003e-13
9.03887e-14
-2.58983e-13
1.30854e-13
-2.61487e-13
1.67462e-13
-2.71979e-13
1.9427e-13
-2.93458e-13
2.01642e-13
-3.26011e-13
1.87632e-13
-3.68215e-13
1.62047e-13
-4.18832e-13
1.2703e-13
-4.7333e-13
6.96837e-14
-5.21219e-13
-1.34151e-14
-5.5208e-13
-1.01876e-13
-5.64157e-13
-1.75324e-13
-5.62926e-13
-2.36856e-13
-5.50261e-13
-3.00308e-13
-5.19408e-13
-3.64846e-13
-4.6357e-13
-4.13069e-13
-3.86779e-13
-4.30471e-13
-3.03556e-13
-4.17333e-13
-2.29023e-13
-3.81155e-13
-1.7094e-13
-3.25492e-13
-1.2934e-13
-2.50717e-13
-1.00037e-13
-1.60984e-13
-7.72364e-14
-6.42665e-14
-5.51937e-14
3.39067e-14
-3.026e-14
1.32276e-13
-1.89619e-15
2.27892e-13
2.9286e-14
3.10539e-13
6.47307e-14
3.65404e-13
1.08338e-13
3.8199e-13
1.62812e-13
3.60489e-13
2.2534e-13
3.09929e-13
2.86931e-13
2.40843e-13
3.3616e-13
1.59982e-13
3.6412e-13
7.14439e-14
3.6692e-13
-1.83133e-14
3.44758e-13
-9.76684e-14
2.99509e-13
-1.52684e-13
2.33326e-13
-1.73423e-13
1.4921e-13
-1.58551e-13
5.24898e-14
-1.14961e-13
-4.86546e-14
-5.3665e-14
-1.44699e-13
1.41172e-14
-2.27708e-13
7.80457e-14
-2.93867e-13
1.278e-13
-3.44017e-13
1.53049e-13
-3.82064e-13
1.45613e-13
-4.12576e-13
1.02388e-13
-4.38951e-13
2.67311e-14
-4.62592e-13
-7.22312e-14
-4.82765e-13
-1.80948e-13
-4.96949e-13
-2.82384e-13
-5.01873e-13
-3.57492e-13
-4.95014e-13
-3.88876e-13
-4.75499e-13
-3.66355e-13
-4.43457e-13
-2.91703e-13
-3.98262e-13
-1.79384e-13
-3.37504e-13
-5.19745e-14
-2.58411e-13
6.81823e-14
-1.61552e-13
1.6686e-13
-5.44382e-14
2.40056e-13
4.84796e-14
2.87993e-13
1.31397e-13
3.05698e-13
1.86237e-13
2.80766e-13
2.18419e-13
2.05659e-13
2.42322e-13
9.69233e-14
2.66968e-13
-1.79036e-15
2.8477e-13
-5.07045e-14
2.77782e-13
-5.80448e-14
2.40066e-13
-7.67982e-14
1.91856e-13
-1.35781e-13
1.64654e-13
-1.91463e-13
1.68552e-13
-1.97924e-13
1.76413e-13
-1.74782e-13
1.55892e-13
-1.15913e-13
1.28325e-13
-4.35524e-14
1.57191e-13
-1.16215e-13
2.33916e-13
-1.51498e-13
2.80444e-13
2.19247e-13
5.99557e-14
1.71967e-13
-4.15449e-14
2.40873e-13
-2.2832e-13
2.22822e-13
-2.81529e-13
2.2413e-13
-2.45418e-13
2.01211e-13
-2.6076e-13
1.51653e-13
-2.76903e-13
1.16072e-13
-2.29728e-13
1.04432e-13
-1.51779e-13
9.34466e-14
-8.10365e-14
6.63136e-14
-1.66056e-14
2.57058e-14
3.2294e-14
-1.64929e-14
4.95224e-14
-5.38165e-14
4.22477e-14
-8.85259e-14
3.19445e-14
-1.25724e-13
2.44841e-14
-1.66837e-13
1.1546e-14
-2.06987e-13
-7.05778e-15
-2.38868e-13
-1.65626e-14
-2.59134e-13
-4.70232e-15
-2.69448e-13
2.36673e-14
-2.73776e-13
5.99834e-14
-2.76293e-13
9.80407e-14
-2.80442e-13
1.31833e-13
-2.88996e-13
1.58725e-13
-3.0476e-13
1.7526e-13
-3.30226e-13
1.73347e-13
-3.65468e-13
1.51506e-13
-4.09202e-13
1.22837e-13
-4.60755e-13
9.44882e-14
-5.17047e-13
5.30346e-14
-5.67722e-13
-1.27129e-14
-5.9843e-13
-8.85708e-14
-6.01683e-13
-1.50869e-13
-5.81674e-13
-1.95134e-13
-5.45723e-13
-2.35373e-13
-4.93756e-13
-2.80788e-13
-4.19855e-13
-3.23972e-13
-3.22558e-13
-3.51378e-13
-2.10781e-13
-3.56329e-13
-1.00076e-13
-3.38316e-13
-5.07295e-15
-2.9608e-13
6.52732e-14
-2.28282e-13
1.08929e-13
-1.39562e-13
1.30391e-13
-4.03277e-14
1.38539e-13
6.08978e-14
1.42277e-13
1.61935e-13
1.46527e-13
2.6183e-13
1.52189e-13
3.52551e-13
1.59846e-13
4.1797e-13
1.72814e-13
4.42245e-13
1.95905e-13
4.1962e-13
2.31033e-13
3.56687e-13
2.74016e-13
2.66274e-13
3.15592e-13
1.59914e-13
3.45704e-13
4.5746e-14
3.57558e-13
-6.79538e-14
3.48841e-13
-1.69101e-13
3.20158e-13
-2.42826e-13
2.72842e-13
-2.76933e-13
2.08219e-13
-2.67399e-13
1.28712e-13
-2.19914e-13
3.93547e-14
-1.47119e-13
-5.21394e-14
-6.4297e-14
-1.3739e-13
1.36365e-14
-2.10263e-13
7.33215e-14
-2.68711e-13
1.03776e-13
-3.14494e-13
9.80539e-14
-3.51328e-13
5.51666e-14
-3.82783e-13
-1.93127e-14
-4.10717e-13
-1.14541e-13
-4.34326e-13
-2.16392e-13
-4.49945e-13
-3.08692e-13
-4.52097e-13
-3.73994e-13
-4.35869e-13
-3.95719e-13
-3.99444e-13
-3.62768e-13
-3.44953e-13
-2.75125e-13
-2.76771e-13
-1.47021e-13
-1.98365e-13
-4.50827e-15