/*--------------------------------*- C++ -*----------------------------------*\
| =========                 |                                                 |
| \\      /  F ield         | OpenFOAM: The Open Source CFD Toolbox           |
|  \\    /   O peration     | Version:  2406                                  |
|   \\  /    A nd           | Website:  www.openfoam.com                      |
|    \\/     M anipulation  |                                                 |
\*---------------------------------------------------------------------------*/
FoamFile
{
    version     2.0;
    format      ascii;
    arch        "LSB;label=32;scalar=64";
    class       volScalarField;
    location    "2";
    object      p;
}
// * * * * * * * * * * * * * * * * * * * * * * * * * * * * * * * * * * * * * //

dimensions      [1 -1 -2 0 0 0 0];

internalField   nonuniform List<scalar> 
10000
(
1843.48
1846.62
1850.83
1854.12
1859.95
1868.85
1878.27
1887.8
1899.73
1913.48
1925.58
1934.85
1942.55
1949.02
1952.92
1952.96
1948.99
1941.56
1931.44
1919.37
1906.15
1892.77
1880.33
1869.85
1862.09
1857.42
1855.96
1857.55
1861.85
1868.25
1876
1884.31
1892.54
1900.13
1906.63
1911.75
1915.43
1917.75
1918.84
1918.87
1918.06
1916.55
1914.38
1911.5
1907.97
1904
1899.84
1895.59
1891.28
1887.02
1883.19
1880.3
1878.83
1879.11
1881.39
1885.72
1891.96
1899.68
1908.29
1917.1
1925.42
1932.61
1938.09
1941.42
1942.38
1941.03
1937.7
1932.94
1927.36
1921.6
1916.25
1911.85
1908.84
1907.54
1908.11
1910.52
1914.59
1919.99
1926.35
1933.25
1940.23
1946.86
1952.66
1957.15
1959.87
1960.46
1958.68
1954.57
1948.37
1940.5
1931.47
1921.7
1911.48
1900.99
1890.58
1880.95
1873.12
1868
1865.71
1865.32
1709.46
1709.53
1713.32
1717.57
1723.7
1732.15
1741.76
1751.87
1763.4
1776.19
1788.21
1798.22
1806.38
1812.62
1816.04
1815.79
1811.72
1804.25
1794.05
1781.87
1768.59
1755.22
1742.86
1732.53
1725
1720.65
1719.59
1721.62
1726.33
1733.09
1741.14
1749.67
1757.99
1765.55
1771.92
1776.84
1780.27
1782.28
1783.03
1782.66
1781.39
1779.43
1776.89
1773.79
1770.11
1765.9
1761.35
1756.66
1752.01
1747.63
1743.89
1741.2
1740.01
1740.66
1743.33
1748.04
1754.61
1762.61
1771.45
1780.4
1788.73
1795.78
1801.02
1804.08
1804.83
1803.37
1800.01
1795.28
1789.78
1784.16
1778.98
1774.76
1771.86
1770.55
1770.95
1773.07
1776.78
1781.88
1788.02
1794.82
1801.82
1808.54
1814.48
1819.16
1822.15
1823.1
1821.78
1818.1
1812.18
1804.31
1794.98
1784.75
1774.16
1763.62
1753.5
1744.22
1736.31
1730.47
1727.49
1727.33
1576.6
1576.48
1579.17
1582.65
1588.68
1597.17
1605.77
1614.4
1625.16
1637.82
1649.7
1659.35
1667.08
1673.03
1676.43
1676.41
1672.7
1665.69
1656.03
1644.51
1631.99
1619.42
1607.87
1598.36
1591.64
1588.12
1587.8
1590.47
1595.68
1602.78
1610.97
1619.44
1627.52
1634.66
1640.46
1644.68
1647.27
1648.36
1648.15
1646.85
1644.7
1641.98
1638.85
1635.27
1631.18
1626.61
1621.79
1616.98
1612.39
1608.25
1604.88
1602.66
1601.94
1602.98
1605.92
1610.79
1617.39
1625.32
1633.95
1642.58
1650.51
1657.15
1662.07
1664.98
1665.79
1664.58
1661.67
1657.5
1652.64
1647.61
1642.93
1638.97
1636.05
1634.42
1634.24
1635.61
1638.49
1642.75
1648.15
1654.33
1660.89
1667.36
1673.27
1678.16
1681.59
1683.14
1682.46
1679.36
1673.82
1666.17
1656.99
1647
1636.8
1626.77
1617.08
1608.05
1600.23
1594.25
1590.89
1590.12
1443.37
1444.08
1446.1
1448.47
1453.31
1461
1468.69
1475.88
1485.1
1496.64
1507.93
1517.22
1524.64
1530.41
1533.95
1534.43
1531.54
1525.56
1517.12
1507.01
1496.06
1485.13
1475.18
1467.18
1461.87
1459.6
1460.33
1463.77
1469.44
1476.71
1484.76
1492.8
1500.15
1506.35
1511.04
1514.02
1515.31
1515.08
1513.58
1511.02
1507.66
1503.85
1499.86
1495.75
1491.39
1486.75
1481.98
1477.34
1473.06
1469.36
1466.49
1464.75
1464.44
1465.74
1468.73
1473.39
1479.55
1486.87
1494.81
1502.74
1510.02
1516.11
1520.65
1523.45
1524.46
1523.79
1521.67
1518.48
1514.65
1510.61
1506.75
1503.37
1500.65
1498.75
1497.82
1497.97
1499.29
1501.79
1505.41
1509.93
1515.07
1520.42
1525.54
1530
1533.4
1535.37
1535.58
1533.73
1529.64
1523.41
1515.44
1506.42
1497.1
1488.03
1479.42
1471.32
1464.2
1458.72
1455.42
1454.13
1312.25
1313.29
1315.15
1316.35
1319.83
1326.23
1332.51
1337.99
1345.3
1355.1
1365.12
1373.6
1380.48
1385.98
1389.61
1390.64
1388.7
1383.94
1376.96
1368.54
1359.49
1350.55
1342.57
1336.42
1332.78
1331.97
1333.9
1338.23
1344.45
1351.89
1359.78
1367.3
1373.83
1378.92
1382.29
1383.78
1383.44
1381.54
1378.4
1374.25
1369.37
1364.14
1358.96
1354.06
1349.39
1344.89
1340.57
1336.6
1333.15
1330.38
1328.46
1327.61
1328
1329.73
1332.77
1337.04
1342.39
1348.6
1355.3
1361.99
1368.19
1373.48
1377.58
1380.37
1381.84
1382.05
1381.14
1379.31
1376.82
1373.95
1370.96
1368.05
1365.36
1363
1361.1
1359.84
1359.41
1360
1361.71
1364.53
1368.27
1372.61
1377.09
1381.26
1384.7
1387.08
1388.11
1387.52
1385.03
1380.48
1373.98
1366.05
1357.6
1349.51
1342.14
1335.23
1328.87
1323.89
1320.76
1319.29
1183.54
1184.24
1186.06
1186.21
1188.23
1193.11
1197.85
1201.56
1206.78
1214.46
1222.77
1230.05
1236.11
1241.06
1244.53
1245.88
1244.7
1241.04
1235.42
1228.59
1221.35
1214.38
1208.39
1204.12
1202.18
1202.84
1205.99
1211.21
1217.97
1225.59
1233.32
1240.35
1246.06
1250.05
1252.1
1252.07
1250.04
1246.36
1241.44
1235.6
1229.11
1222.36
1215.86
1209.98
1204.87
1200.48
1196.81
1193.91
1191.84
1190.62
1190.27
1190.84
1192.4
1194.92
1198.27
1202.28
1206.79
1211.65
1216.7
1221.71
1226.4
1230.53
1233.93
1236.55
1238.41
1239.55
1239.97
1239.67
1238.67
1237.04
1234.89
1232.34
1229.51
1226.54
1223.63
1221.02
1219.03
1217.97
1218.1
1219.58
1222.34
1226.12
1230.46
1234.79
1238.58
1241.42
1243.05
1243.32
1242.05
1238.98
1233.89
1226.98
1219.08
1211.51
1205.07
1199.4
1193.99
1189.64
1186.69
1185.23
1054.65
1055.42
1056.45
1055.47
1055.85
1058.99
1062.09
1064.19
1067.54
1073.22
1079.88
1086.05
1091.42
1095.99
1099.46
1101.3
1101.09
1098.74
1094.63
1089.49
1084.08
1079.04
1074.95
1072.42
1071.97
1073.82
1077.81
1083.52
1090.39
1097.77
1104.94
1111.14
1115.78
1118.54
1119.24
1117.79
1114.27
1109.05
1102.67
1095.53
1087.89
1080.08
1072.61
1065.95
1060.41
1056.07
1052.95
1051.04
1050.33
1050.68
1051.96
1054.06
1056.89
1060.32
1064.14
1068.07
1071.9
1075.53
1078.95
1082.17
1085.17
1087.9
1090.38
1092.62
1094.68
1096.59
1098.22
1099.4
1099.88
1099.47
1098.08
1095.73
1092.51
1088.63
1084.4
1080.21
1076.51
1073.76
1072.36
1072.59
1074.55
1078.06
1082.67
1087.71
1092.44
1096.25
1098.77
1099.94
1099.76
1098.1
1094.56
1088.89
1081.66
1074.4
1068.43
1063.68
1059.29
1055.74
1053.03
1051.53
924.935
926.188
926.095
923.76
922.347
923.546
924.938
925.521
927.181
931.053
936.181
941.372
946.219
950.592
954.216
956.688
957.607
956.766
954.372
951.041
947.505
944.365
942.102
941.183
942.011
944.75
949.226
955.002
961.524
968.201
974.379
979.374
982.659
984.003
983.345
980.625
975.899
969.532
962.11
954.141
945.929
937.742
929.98
923.112
917.497
913.32
910.67
909.584
910.002
911.717
914.428
917.855
921.775
925.975
930.181
934.066
937.36
939.95
941.912
943.443
944.765
946.064
947.49
949.167
951.189
953.553
956.094
958.47
960.23
960.929
960.243
958.026
954.338
949.441
943.775
937.91
932.474
928.07
925.216
924.295
925.504
928.782
933.758
939.746
945.835
951.111
954.938
957.158
957.984
957.553
955.528
951.346
945.155
938.371
932.683
928.471
924.959
922.251
919.785
918.021
795.961
797.089
796.425
792.895
789.786
788.964
788.548
787.571
787.544
789.535
792.965
796.929
800.986
804.874
808.32
811.048
812.728
813.078
812.141
810.392
808.493
807.002
806.318
806.786
808.69
812.121
816.878
822.521
828.521
834.347
839.436
843.178
845.112
845.1
843.203
839.442
833.845
826.706
818.608
810.15
801.735
793.633
786.168
779.734
774.673
771.194
769.418
769.415
771.133
774.32
778.546
783.339
788.307
793.138
797.533
801.171
803.781
805.256
805.734
805.561
805.17
804.961
805.239
806.207
807.972
810.504
813.586
816.785
819.509
821.129
821.123
819.189
815.306
809.751
803.07
796.001
789.351
783.865
780.137
778.567
779.357
782.494
787.706
794.394
801.615
808.235
813.291
816.399
817.852
818.114
817.124
814.237
809.229
803.188
797.861
794.004
791.262
789.366
787.044
784.869
667.47
667.997
667.279
663.018
658.612
656.013
653.929
651.506
649.897
650.043
651.668
654.162
657.106
660.119
662.908
665.309
667.108
668.022
667.977
667.303
666.568
666.268
666.731
668.199
670.847
674.693
679.506
684.851
690.229
695.193
699.284
701.967
702.822
701.774
699
694.617
688.642
681.252
672.937
664.32
655.91
648.066
641.122
635.444
631.337
628.984
628.483
629.899
633.188
638.08
644.046
650.428
656.619
662.161
666.709
669.976
671.744
671.964
670.847
668.871
666.656
664.808
663.789
663.877
665.167
667.576
670.813
674.379
677.605
679.768
680.237
678.605
674.78
669.024
661.939
654.387
647.325
641.63
637.942
636.605
637.699
641.114
646.595
653.671
661.529
669.002
674.873
678.465
679.999
680.24
679.548
677.445
673.467
668.294
663.473
660.027
658.098
657.092
654.839
652.345
537.386
537.762
536.996
532.439
527.264
523.407
520.113
516.693
513.966
512.702
512.826
514.004
515.879
517.979
519.961
521.743
523.242
524.23
524.581
524.512
524.48
524.902
526.027
528.008
530.932
534.755
539.233
543.946
548.449
552.407
555.502
557.307
557.427
555.801
552.673
548.258
542.583
535.69
527.88
519.67
511.586
504.072
497.55
492.45
489.115
487.732
488.373
491.073
495.795
502.283
509.967
518.043
525.685
532.222
537.195
540.304
541.387
540.465
537.834
534.079
529.987
526.357
523.828
522.778
523.306
525.259
528.252
531.703
534.891
537.062
537.563
535.967
532.16
526.397
519.298
511.788
504.932
499.724
496.862
496.629
498.909
503.345
509.524
517.016
525.208
533.096
539.4
543.158
544.393
544.039
542.943
541.008
537.725
533.351
529.071
526.101
525.092
525.127
523.034
520.562
405.284
405.991
404.969
400.334
394.811
390.2
386.169
382.216
378.882
376.737
375.807
375.973
376.978
378.296
379.529
380.634
381.638
382.402
382.802
382.985
383.313
384.104
385.519
387.616
390.405
393.804
397.57
401.31
404.648
407.384
409.391
410.397
410.06
408.292
405.34
401.482
396.779
391.167
384.719
377.728
370.595
363.748
357.676
352.922
349.959
349.067
350.348
353.825
359.465
367.053
376.045
385.576
394.647
402.364
408.081
411.413
412.197
410.504
406.685
401.406
395.57
390.143
385.95
383.512
382.987
384.184
386.629
389.642
392.436
394.239
394.422
392.604
388.714
383.028
376.169
369.06
362.801
358.459
356.814
358.14
362.164
368.221
375.582
383.679
392.042
399.966
406.331
410.025
410.786
409.535
407.54
405.246
402.274
398.506
394.639
392.041
391.925
393.058
391.368
389.338
272.53
273.379
272.061
267.495
261.933
256.95
252.501
248.276
244.61
241.884
240.134
239.399
239.539
240.032
240.449
240.769
241.103
241.399
241.565
241.72
242.158
243.107
244.617
246.644
249.117
251.925
254.837
257.496
259.587
261.038
261.935
262.213
261.629
260.063
257.697
254.814
251.506
247.659
243.165
238.069
232.548
226.892
221.554
217.155
214.332
213.539
214.989
218.738
224.762
232.884
242.623
253.132
263.329
272.142
278.726
282.551
283.398
281.341
276.757
270.345
263.065
255.995
250.118
246.122
244.288
244.464
246.138
248.55
250.839
252.202
252.029
250.004
246.142
240.777
234.531
228.269
223.022
219.835
219.529
222.437
228.24
236.046
244.754
253.496
261.797
269.268
275.156
278.417
278.543
276.268
273.13
270.147
267.245
263.951
260.38
257.947
258.508
260.589
259.553
258.235
139.834
140.407
138.979
134.758
129.528
124.583
120.046
115.756
111.922
108.766
106.274
104.586
103.69
103.125
102.481
101.785
101.228
100.83
100.529
100.437
100.81
101.802
103.355
105.3
107.477
109.745
111.9
113.624
114.648
114.999
114.95
114.67
114.062
112.993
111.538
109.895
108.138
106.131
103.665
100.607
96.9213
92.7068
88.2925
84.2925
81.4707
80.4897
81.7472
85.3957
91.4323
99.6968
109.757
120.818
131.783
141.472
148.871
153.293
154.421
152.301
147.314
140.16
131.806
123.37
115.929
110.319
106.973
105.854
106.496
108.126
109.838
110.789
110.366
108.307
104.718
100.016
94.8435
89.9845
86.3072
84.6918
85.8848
90.26
97.5652
106.846
116.723
125.955
133.893
140.37
145.107
147.376
146.568
143.16
138.775
134.979
132.11
129.391
126.224
123.917
124.891
127.637
127.379
126.744
6.51501
6.74087
5.43476
1.88912
-2.57747
-6.99545
-11.187
-15.235
-19.0032
-22.4021
-25.5224
-28.1706
-30.2334
-32.0771
-34.0387
-35.9925
-37.6351
-38.8746
-39.7596
-40.1996
-39.9664
-38.9565
-37.3272
-35.3795
-33.3837
-31.5132
-29.9327
-28.9004
-28.6419
-29.0677
-29.7633
-30.3428
-30.7203
-31.0013
-31.2342
-31.3781
-31.4706
-31.7143
-32.3842
-33.7103
-35.849
-38.8478
-42.5164
-46.3102
-49.4013
-50.9354
-50.2832
-47.1254
-41.4006
-33.2635
-23.1362
-11.7842
-0.294074
10.0951
18.238
23.2943
24.8359
22.8581
17.7378
10.1756
1.12438
-8.31324
-17.0357
-24.1261
-29.0224
-31.6178
-32.2603
-31.6535
-30.683
-30.2055
-30.8434
-32.8395
-36.0185
-39.8664
-43.6827
-46.7349
-48.3477
-47.9231
-44.9556
-39.1483
-30.6623
-20.3497
-9.67951
-0.203521
7.14014
12.2436
15.2769
15.9914
13.8768
9.17534
3.46428
-1.2198
-4.01079
-5.89624
-8.28888
-10.1928
-8.88502
-5.70752
-5.22458
-5.43864
-128.157
-128.086
-129.113
-131.789
-135.183
-138.677
-142.124
-145.614
-149.061
-152.485
-156.066
-159.576
-162.787
-165.968
-169.363
-172.704
-175.518
-177.611
-179.033
-179.752
-179.584
-178.466
-176.636
-174.526
-172.537
-170.891
-169.707
-169.161
-169.411
-170.324
-171.39
-172.047
-172.016
-171.323
-170.105
-168.507
-166.758
-165.218
-164.274
-164.231
-165.291
-167.555
-170.911
-174.889
-178.65
-181.195
-181.655
-179.487
-174.496
-166.805
-156.846
-145.39
-133.528
-122.543
-113.686
-107.942
-105.868
-107.538
-112.585
-120.294
-129.712
-139.758
-149.355
-157.576
-163.794
-167.789
-169.772
-170.32
-170.231
-170.322
-171.213
-173.154
-175.943
-178.992
-181.511
-182.744
-182.15
-179.437
-174.474
-167.216
-157.823
-146.962
-135.982
-126.571
-119.958
-116.344
-115.24
-116.374
-120.013
-126.09
-133.178
-138.855
-141.638
-142.53
-143.737
-144.743
-142.903
-139.328
-138.233
-138.307
-264.078
-264.03
-264.701
-266.485
-268.723
-271.126
-273.629
-276.397
-279.387
-282.719
-286.654
-290.92
-295.164
-299.573
-304.326
-309.011
-312.942
-315.764
-317.523
-318.284
-317.952
-316.509
-314.253
-311.741
-309.511
-307.861
-306.882
-306.651
-307.241
-308.461
-309.745
-310.397
-309.962
-308.351
-305.72
-302.359
-298.706
-295.337
-292.836
-291.631
-291.964
-293.921
-297.387
-301.921
-306.693
-310.618
-312.626
-311.928
-308.141
-301.297
-291.818
-280.493
-268.436
-256.97
-247.434
-240.952
-238.225
-239.428
-244.228
-251.89
-261.43
-271.762
-281.831
-290.737
-297.853
-302.905
-306.007
-307.605
-308.366
-309.017
-310.147
-312.022
-314.472
-316.893
-318.419
-318.203
-315.715
-310.878
-303.954
-295.299
-285.238
-274.297
-263.561
-254.633
-248.909
-246.754
-247.504
-250.425
-255.47
-262.719
-271.008
-277.691
-280.638
-280.641
-280.471
-280.148
-277.402
-273.251
-271.648
-271.687
-400.827
-400.769
-401.05
-402.006
-403.176
-404.526
-406.109
-408.186
-410.756
-414.033
-418.352
-423.359
-428.531
-433.968
-439.843
-445.66
-450.512
-453.834
-455.633
-456.094
-455.263
-453.195
-450.236
-447.039
-444.278
-442.346
-441.334
-441.235
-442.022
-443.445
-444.892
-445.577
-444.904
-442.659
-438.964
-434.175
-428.876
-423.847
-419.901
-417.663
-417.466
-419.376
-423.216
-428.515
-434.439
-439.864
-443.591
-444.623
-442.37
-436.728
-428.068
-417.179
-405.189
-393.45
-383.366
-376.172
-372.716
-373.306
-377.686
-385.126
-394.606
-404.999
-415.238
-424.441
-432.009
-437.674
-441.508
-443.865
-445.286
-446.373
-447.642
-449.369
-451.453
-453.367
-454.239
-453.128
-449.394
-442.997
-434.48
-424.634
-414.117
-403.459
-393.471
-385.495
-380.918
-380.223
-382.665
-387.117
-393.188
-401.074
-410.009
-417.371
-420.518
-419.881
-418.442
-416.639
-412.653
-407.664
-405.551
-405.439
-538.303
-538.185
-538.073
-538.291
-538.572
-539.037
-539.883
-541.444
-543.739
-547.086
-551.913
-557.741
-563.797
-570.051
-576.717
-583.314
-588.775
-592.3
-593.807
-593.6
-591.91
-588.908
-584.99
-580.874
-577.344
-574.889
-573.618
-573.464
-574.312
-575.854
-577.447
-578.244
-577.545
-575.035
-570.776
-565.129
-558.736
-552.496
-547.413
-544.33
-543.731
-545.711
-550.026
-556.126
-563.143
-569.937
-575.248
-577.95
-577.286
-573.01
-565.413
-555.256
-543.66
-531.975
-521.623
-513.901
-509.771
-509.676
-513.476
-520.5
-529.721
-539.973
-550.146
-559.349
-567.001
-572.866
-577.027
-579.803
-581.642
-583.018
-584.337
-585.837
-587.494
-588.925
-589.375
-587.885
-583.665
-576.532
-567.089
-556.447
-545.666
-535.458
-526.479
-519.766
-516.549
-517.349
-521.371
-527.14
-533.864
-541.759
-550.519
-557.832
-560.845
-559.685
-557.227
-554.088
-548.748
-542.755
-540.036
-539.521
-676.644
-676.391
-675.923
-675.542
-675.174
-675.013
-675.41
-676.718
-678.924
-682.455
-687.889
-694.625
-701.56
-708.441
-715.528
-722.467
-728.14
-731.536
-732.439
-731.24
-728.382
-724.19
-719.128
-713.965
-709.563
-706.483
-704.849
-704.545
-705.38
-707.004
-708.756
-709.754
-709.222
-706.763
-702.396
-696.466
-689.605
-682.738
-676.962
-673.294
-672.394
-674.448
-679.188
-685.981
-693.895
-701.766
-708.322
-712.382
-713.094
-710.108
-703.636
-694.4
-683.496
-672.244
-662.033
-654.152
-649.599
-648.916
-652.077
-658.515
-667.253
-677.12
-686.978
-695.906
-703.322
-709.023
-713.132
-715.991
-718.014
-719.577
-720.946
-722.263
-723.52
-724.488
-724.631
-723.114
-719.072
-712.086
-702.586
-691.763
-680.988
-671.257
-663.236
-657.738
-655.8
-657.94
-663.361
-670.301
-677.501
-685.003
-692.859
-699.243
-701.459
-699.575
-696.263
-692.073
-685.536
-678.584
-675.149
-673.983
-815.883
-815.481
-814.738
-813.966
-813.238
-812.772
-813.091
-814.481
-816.799
-820.567
-826.592
-834.219
-841.987
-849.316
-856.457
-863.267
-868.717
-871.658
-871.716
-869.316
-865.095
-859.56
-853.265
-847.028
-841.777
-838.125
-836.196
-835.806
-836.687
-838.456
-840.455
-841.785
-841.611
-839.466
-835.336
-829.559
-822.744
-815.771
-809.733
-805.731
-804.577
-806.587
-811.538
-818.755
-827.247
-835.819
-843.195
-848.191
-849.92
-847.978
-842.526
-834.252
-824.225
-813.726
-804.082
-796.508
-791.958
-790.985
-793.637
-799.446
-807.53
-816.772
-826.043
-834.41
-841.282
-846.472
-850.157
-852.745
-854.691
-856.333
-857.823
-859.146
-860.208
-860.855
-860.785
-859.423
-855.985
-849.874
-841.207
-830.991
-820.683
-811.513
-804.262
-799.635
-798.523
-801.47
-807.789
-815.595
-823.18
-830.213
-836.837
-841.66
-842.39
-839.349
-835.145
-830.147
-822.758
-815.123
-810.92
-808.965
-955.89
-955.409
-954.531
-953.618
-952.832
-952.4
-953.036
-954.89
-957.539
-961.542
-968
-976.338
-984.789
-992.367
-999.228
-1005.47
-1010.28
-1012.49
-1011.58
-1007.94
-1002.35
-995.486
-987.989
-980.735
-974.719
-970.619
-968.556
-968.265
-969.376
-971.461
-973.877
-975.734
-976.148
-974.578
-970.966
-965.649
-959.225
-952.514
-946.535
-942.376
-940.934
-942.659
-947.432
-954.618
-963.215
-972.012
-979.744
-985.24
-987.617
-986.446
-981.854
-974.5
-965.429
-955.891
-947.142
-940.301
-936.219
-935.375
-937.812
-943.121
-950.516
-958.974
-967.432
-974.982
-981.035
-985.411
-988.327
-990.275
-991.812
-993.339
-994.966
-996.529
-997.752
-998.406
-998.321
-997.21
-994.533
-989.684
-982.497
-973.635
-964.394
-956.067
-949.526
-945.427
-944.548
-947.496
-953.838
-961.822
-969.499
-976.1
-981.571
-984.698
-983.584
-978.991
-973.724
-968.042
-960.218
-952.335
-947.417
-944.694
-1096.5
-1096.05
-1095.24
-1094.45
-1093.88
-1093.76
-1095.05
-1097.73
-1100.93
-1105.13
-1111.76
-1120.47
-1129.32
-1136.91
-1143.21
-1148.51
-1152.35
-1153.65
-1151.78
-1147.07
-1140.34
-1132.4
-1123.92
-1115.82
-1109.16
-1104.71
-1102.64
-1102.62
-1104.16
-1106.76
-1109.79
-1112.38
-1113.63
-1112.91
-1110.08
-1105.46
-1099.65
-1093.42
-1087.69
-1083.47
-1081.65
-1082.78
-1086.88
-1093.43
-1101.49
-1109.91
-1117.47
-1123.02
-1125.71
-1125.1
-1121.27
-1114.84
-1106.81
-1098.37
-1090.74
-1084.94
-1081.7
-1081.37
-1083.94
-1088.98
-1095.77
-1103.39
-1110.89
-1117.44
-1122.48
-1125.83
-1127.73
-1128.73
-1129.51
-1130.61
-1132.24
-1134.15
-1135.89
-1137.01
-1137.28
-1136.58
-1134.67
-1131.11
-1125.61
-1118.51
-1110.81
-1103.67
-1097.97
-1094.3
-1093.28
-1095.53
-1100.92
-1108.09
-1115.2
-1121.22
-1125.77
-1127.49
-1124.67
-1118.44
-1111.98
-1105.66
-1097.81
-1090.18
-1084.73
-1081.41
-1237.57
-1237.24
-1236.75
-1236.35
-1236.22
-1236.59
-1238.73
-1242.46
-1246.37
-1250.74
-1257.22
-1265.82
-1274.66
-1282.01
-1287.52
-1291.65
-1294.3
-1294.61
-1291.92
-1286.45
-1279.05
-1270.52
-1261.54
-1252.95
-1245.85
-1241.13
-1239.07
-1239.36
-1241.41
-1244.64
-1248.4
-1251.88
-1254.15
-1254.5
-1252.69
-1248.98
-1243.93
-1238.29
-1232.89
-1228.63
-1226.35
-1226.62
-1229.57
-1234.85
-1241.68
-1249.02
-1255.78
-1260.89
-1263.56
-1263.34
-1260.27
-1254.86
-1248.02
-1240.88
-1234.57
-1230.02
-1227.85
-1228.32
-1231.28
-1236.27
-1242.58
-1249.38
-1255.84
-1261.25
-1265.14
-1267.37
-1268.14
-1268.03
-1267.79
-1268.15
-1269.48
-1271.64
-1274.07
-1276.08
-1277.18
-1277.22
-1276.14
-1273.74
-1269.77
-1264.39
-1258.29
-1252.46
-1247.72
-1244.55
-1243.35
-1244.63
-1248.43
-1253.89
-1259.57
-1264.55
-1268.26
-1269.06
-1265.06
-1257.51
-1249.93
-1243.02
-1235.48
-1228.58
-1222.9
-1219.25
-1378.89
-1378.79
-1378.82
-1379.07
-1379.56
-1380.49
-1383.49
-1388.31
-1392.99
-1397.44
-1403.43
-1411.41
-1419.76
-1426.54
-1431.13
-1433.99
-1435.37
-1434.73
-1431.43
-1425.62
-1418.08
-1409.62
-1400.79
-1392.29
-1385.13
-1380.3
-1378.24
-1378.74
-1381.21
-1385
-1389.46
-1393.81
-1397.16
-1398.71
-1398.1
-1395.45
-1391.27
-1386.26
-1381.19
-1376.88
-1374.05
-1373.28
-1374.76
-1378.29
-1383.29
-1388.93
-1394.27
-1398.43
-1400.69
-1400.66
-1398.32
-1394.07
-1388.66
-1383.07
-1378.3
-1375.19
-1374.26
-1375.67
-1379.18
-1384.27
-1390.2
-1396.19
-1401.54
-1405.68
-1408.31
-1409.33
-1408.97
-1407.75
-1406.43
-1405.82
-1406.53
-1408.63
-1411.64
-1414.71
-1417.06
-1418.29
-1418.3
-1417.03
-1414.37
-1410.38
-1405.59
-1400.83
-1396.87
-1394.16
-1392.92
-1393.37
-1395.52
-1398.83
-1402.4
-1405.75
-1408.47
-1408.75
-1404.29
-1396.04
-1387.65
-1380.26
-1373.32
-1367.51
-1361.94
-1358.24
-1520.19
-1520.43
-1521.1
-1522.23
-1523.48
-1524.95
-1528.65
-1534.39
-1539.72
-1544.12
-1549.29
-1556.13
-1563.45
-1569.36
-1572.94
-1574.58
-1574.79
-1573.36
-1569.73
-1563.98
-1556.82
-1549.02
-1541.03
-1533.29
-1526.61
-1521.95
-1519.92
-1520.5
-1523.18
-1527.32
-1532.28
-1537.34
-1541.64
-1544.38
-1545.02
-1543.54
-1540.3
-1535.93
-1531.16
-1526.71
-1523.28
-1521.37
-1521.23
-1522.79
-1525.66
-1529.21
-1532.72
-1535.5
-1537.01
-1536.93
-1535.23
-1532.19
-1528.39
-1524.59
-1521.59
-1520.08
-1520.49
-1522.89
-1527
-1532.24
-1537.84
-1543.05
-1547.24
-1550.01
-1551.21
-1550.92
-1549.41
-1547.16
-1544.84
-1543.27
-1543.15
-1544.84
-1548.07
-1552.02
-1555.72
-1558.46
-1559.91
-1559.97
-1558.57
-1555.76
-1551.92
-1547.78
-1544.16
-1541.59
-1540.26
-1540.15
-1541.04
-1542.39
-1543.66
-1544.98
-1546.47
-1546.43
-1542.19
-1534.05
-1525.37
-1517.73
-1511.56
-1507.03
-1501.89
-1498.39
-1661.29
-1661.9
-1663.2
-1665.32
-1667.42
-1669.37
-1673.51
-1679.78
-1685.48
-1689.63
-1693.7
-1698.91
-1704.7
-1709.4
-1711.93
-1712.52
-1711.84
-1709.93
-1706.36
-1701.07
-1694.7
-1687.99
-1681.3
-1674.87
-1669.18
-1665.05
-1663.17
-1663.71
-1666.36
-1670.57
-1675.74
-1681.21
-1686.22
-1689.96
-1691.8
-1691.52
-1689.28
-1685.57
-1681.05
-1676.41
-1672.29
-1669.19
-1667.42
-1667.01
-1667.72
-1669.14
-1670.74
-1672.04
-1672.66
-1672.37
-1671.19
-1669.33
-1667.17
-1665.26
-1664.16
-1664.35
-1666.11
-1669.47
-1674.1
-1679.42
-1684.68
-1689.12
-1692.15
-1693.49
-1693.16
-1691.41
-1688.66
-1685.41
-1682.24
-1679.85
-1678.92
-1679.97
-1682.99
-1687.38
-1692.15
-1696.37
-1699.42
-1701.01
-1701.02
-1699.41
-1696.43
-1692.65
-1688.93
-1686.01
-1684.29
-1683.73
-1683.85
-1683.85
-1683.22
-1682.53
-1682.62
-1682.34
-1678.85
-1671.63
-1663.29
-1655.77
-1650.5
-1647.28
-1642.78
-1639.65
-1802.06
-1802.96
-1804.76
-1807.87
-1810.81
-1813.14
-1817.38
-1823.68
-1829.32
-1832.96
-1835.67
-1838.89
-1842.68
-1845.85
-1847.3
-1847.06
-1845.87
-1843.96
-1840.95
-1836.62
-1831.43
-1826.05
-1820.87
-1815.95
-1811.53
-1808.17
-1806.53
-1806.97
-1809.39
-1813.37
-1818.43
-1823.99
-1829.39
-1833.87
-1836.75
-1837.62
-1836.42
-1833.44
-1829.21
-1824.35
-1819.5
-1815.19
-1811.82
-1809.53
-1808.26
-1807.78
-1807.72
-1807.77
-1807.64
-1807.23
-1806.57
-1805.81
-1805.23
-1805.15
-1805.9
-1807.74
-1810.77
-1814.92
-1819.88
-1825.1
-1829.88
-1833.51
-1835.43
-1835.37
-1833.48
-1830.17
-1826.05
-1821.74
-1817.79
-1814.74
-1813.18
-1813.58
-1816.15
-1820.5
-1825.82
-1831.12
-1835.58
-1838.7
-1840.22
-1839.99
-1838.04
-1834.74
-1830.83
-1827.26
-1824.76
-1823.6
-1823.28
-1822.66
-1820.9
-1818.62
-1817.39
-1816.9
-1814.48
-1808.81
-1801.48
-1794.51
-1790.26
-1788.29
-1784.55
-1781.87
-1942.41
-1943.43
-1945.54
-1949.49
-1953.18
-1955.77
-1959.76
-1965.51
-1970.56
-1973.37
-1974.55
-1975.52
-1976.99
-1978.35
-1978.66
-1977.8
-1976.46
-1975.05
-1973.19
-1970.42
-1966.87
-1963.08
-1959.42
-1955.96
-1952.74
-1950.13
-1948.7
-1948.91
-1950.86
-1954.36
-1959.03
-1964.39
-1969.89
-1974.83
-1978.53
-1980.44
-1980.29
-1978.13
-1974.31
-1969.35
-1963.85
-1958.4
-1953.5
-1949.47
-1946.45
-1944.38
-1943.07
-1942.29
-1941.84
-1941.62
-1941.65
-1942.02
-1942.92
-1944.5
-1946.91
-1950.18
-1954.25
-1958.95
-1963.95
-1968.79
-1972.86
-1975.55
-1976.34
-1974.98
-1971.62
-1966.78
-1961.21
-1955.7
-1950.89
-1947.27
-1945.23
-1945.15
-1947.23
-1951.3
-1956.72
-1962.58
-1968.01
-1972.37
-1975.27
-1976.47
-1975.83
-1973.42
-1969.7
-1965.59
-1962.17
-1960.2
-1959.52
-1958.85
-1956.79
-1953.66
-1951.4
-1950.7
-1949.44
-1945.7
-1939.89
-1933.89
-1930.75
-1929.89
-1926.94
-1924.7
-2082.26
-2083.2
-2085.4
-2089.97
-2094.21
-2096.94
-2100.36
-2105.02
-2108.95
-2110.6
-2110.11
-2108.76
-2107.73
-2107.1
-2106.21
-2104.85
-2103.63
-2103.06
-2102.82
-2102.17
-2100.8
-2098.94
-2096.88
-2094.72
-2092.48
-2090.39
-2088.94
-2088.69
-2089.93
-2092.67
-2096.71
-2101.65
-2107.01
-2112.17
-2116.45
-2119.24
-2120.08
-2118.82
-2115.58
-2110.73
-2104.82
-2098.46
-2092.26
-2086.72
-2082.2
-2078.86
-2076.69
-2075.54
-2075.24
-2075.63
-2076.65
-2078.28
-2080.59
-2083.62
-2087.36
-2091.73
-2096.52
-2101.45
-2106.19
-2110.33
-2113.41
-2114.95
-2114.55
-2111.98
-2107.34
-2101.13
-2094.16
-2087.36
-2081.54
-2077.21
-2074.69
-2074.23
-2075.93
-2079.67
-2084.97
-2091.04
-2097.03
-2102.23
-2106.2
-2108.69
-2109.49
-2108.41
-2105.53
-2101.47
-2097.4
-2094.6
-2093.53
-2093.1
-2091.46
-2088.25
-2085.44
-2084.56
-2084.31
-2082.52
-2078.44
-2073.68
-2071.65
-2071.72
-2069.5
-2067.63
-2221.52
-2222.22
-2224.35
-2229.25
-2233.82
-2236.58
-2239.21
-2242.34
-2244.66
-2244.83
-2242.6
-2238.98
-2235.49
-2232.85
-2230.76
-2228.98
-2227.99
-2228.37
-2229.9
-2231.67
-2232.89
-2233.31
-2233.02
-2232.11
-2230.63
-2228.79
-2227.07
-2226.08
-2226.35
-2228.1
-2231.28
-2235.63
-2240.7
-2245.9
-2250.56
-2254.01
-2255.7
-2255.29
-2252.73
-2248.22
-2242.23
-2235.35
-2228.26
-2221.62
-2215.98
-2211.72
-2209.03
-2207.88
-2208.1
-2209.48
-2211.77
-2214.81
-2218.5
-2222.75
-2227.48
-2232.51
-2237.59
-2242.4
-2246.57
-2249.74
-2251.58
-2251.79
-2250.12
-2246.4
-2240.68
-2233.37
-2225.22
-2217.2
-2210.24
-2204.98
-2201.78
-2200.8
-2202.1
-2205.51
-2210.63
-2216.78
-2223.13
-2228.93
-2233.69
-2237.23
-2239.39
-2239.89
-2238.49
-2235.3
-2231.26
-2227.93
-2226.49
-2226.4
-2225.62
-2223.02
-2220.16
-2219.16
-2219.68
-2219.54
-2217.09
-2213.56
-2212.49
-2213.23
-2211.57
-2209.92
-2360.17
-2360.55
-2362.52
-2367.44
-2372.1
-2374.81
-2376.55
-2377.88
-2378.22
-2376.62
-2372.62
-2366.9
-2361.14
-2356.63
-2353.49
-2351.44
-2350.77
-2352.04
-2355.17
-2359.23
-2363.05
-2365.9
-2367.5
-2367.85
-2367.02
-2365.26
-2363.09
-2361.21
-2360.33
-2360.92
-2363.12
-2366.77
-2371.47
-2376.63
-2381.53
-2385.47
-2387.79
-2388.06
-2386.09
-2382.01
-2376.17
-2369.17
-2361.7
-2354.5
-2348.29
-2343.6
-2340.79
-2339.96
-2340.97
-2343.54
-2347.28
-2351.81
-2356.83
-2362.11
-2367.46
-2372.7
-2377.6
-2381.87
-2385.16
-2387.16
-2387.62
-2386.38
-2383.36
-2378.53
-2371.93
-2363.84
-2354.85
-2345.86
-2337.82
-2331.48
-2327.31
-2325.53
-2326.18
-2329.11
-2333.95
-2340.11
-2346.78
-2353.14
-2358.63
-2363.07
-2366.43
-2368.55
-2369.02
-2367.47
-2364.32
-2361.05
-2359.41
-2359.62
-2359.85
-2358.3
-2355.83
-2354.83
-2355.83
-2356.86
-2355.67
-2353.15
-2352.77
-2353.86
-2352.53
-2350.86
-2498.32
-2498.4
-2500.15
-2504.82
-2509.35
-2511.95
-2512.78
-2512.26
-2510.42
-2506.86
-2501.06
-2493.44
-2485.69
-2479.56
-2475.62
-2473.58
-2473.42
-2475.57
-2480.04
-2485.96
-2492.01
-2497.03
-2500.4
-2501.92
-2501.66
-2499.91
-2497.23
-2494.44
-2492.4
-2491.8
-2492.98
-2495.93
-2500.27
-2505.38
-2510.49
-2514.8
-2517.57
-2518.29
-2516.72
-2512.93
-2507.28
-2500.36
-2492.91
-2485.71
-2479.53
-2475.01
-2472.59
-2472.44
-2474.47
-2478.34
-2483.55
-2489.54
-2495.79
-2501.89
-2507.56
-2512.61
-2516.89
-2520.21
-2522.34
-2523
-2522.01
-2519.3
-2514.95
-2509.04
-2501.68
-2493.06
-2483.6
-2474.01
-2465.14
-2457.8
-2452.54
-2449.69
-2449.38
-2451.52
-2455.84
-2461.85
-2468.81
-2475.81
-2482.15
-2487.53
-2492.02
-2495.67
-2498.12
-2498.71
-2497.22
-2494.71
-2493.16
-2493.62
-2494.73
-2494.34
-2492.52
-2491.59
-2492.77
-2494.47
-2494.08
-2492.2
-2492.18
-2493.32
-2492.07
-2490.22
-2636.21
-2636.07
-2637.59
-2641.8
-2646.01
-2648.43
-2648.46
-2646.2
-2642.21
-2636.63
-2629.06
-2619.74
-2610.28
-2602.79
-2598.26
-2596.5
-2597.17
-2600.36
-2606.01
-2613.38
-2621.09
-2627.78
-2632.54
-2634.98
-2635.12
-2633.3
-2630.14
-2626.54
-2623.48
-2621.81
-2622.06
-2624.35
-2628.36
-2633.45
-2638.78
-2643.41
-2646.53
-2647.53
-2646.14
-2642.43
-2636.81
-2629.96
-2622.68
-2615.83
-2610.18
-2606.39
-2604.89
-2605.84
-2609.13
-2614.38
-2621
-2628.29
-2635.59
-2642.32
-2648.07
-2652.64
-2655.97
-2658.04
-2658.77
-2658.02
-2655.62
-2651.57
-2645.98
-2639.07
-2631.02
-2622
-2612.3
-2602.41
-2593.05
-2584.95
-2578.7
-2574.73
-2573.28
-2574.38
-2577.9
-2583.52
-2590.63
-2598.32
-2605.69
-2612.24
-2617.95
-2623.03
-2627.39
-2630.28
-2630.96
-2629.82
-2628.73
-2629.35
-2631.04
-2631.57
-2630.36
-2629.43
-2630.5
-2632.35
-2632.25
-2630.67
-2630.71
-2631.64
-2630.31
-2628.35
-2774.18
-2773.92
-2775.27
-2778.88
-2782.62
-2784.83
-2784.2
-2780.5
-2774.6
-2767.11
-2757.93
-2747.15
-2736.25
-2727.54
-2722.48
-2721.08
-2722.76
-2727.18
-2734.04
-2742.6
-2751.51
-2759.35
-2765.03
-2768.05
-2768.4
-2766.44
-2762.88
-2758.66
-2754.83
-2752.35
-2751.87