/*--------------------------------*- C++ -*----------------------------------*\
| =========                 |                                                 |
| \\      /  F ield         | OpenFOAM: The Open Source CFD Toolbox           |
|  \\    /   O peration     | Version:  2406                                  |
|   \\  /    A nd           | Website:  www.openfoam.com                      |
|    \\/     M anipulation  |                                                 |
\*---------------------------------------------------------------------------*/
FoamFile
{
    version     2.0;
    format      ascii;
    arch        "LSB;label=32;scalar=64";
    class       volScalarField;
    location    "2";
    object      p_rgh;
}
// * * * * * * * * * * * * * * * * * * * * * * * * * * * * * * * * * * * * * //

dimensions      [1 -1 -2 0 0 0 0];

internalField   nonuniform List<scalar> 
10000
(
1912.15
1915.29
1919.5
1922.79
1928.62
1937.52
1946.94
1956.47
1968.4
1982.15
1994.25
2003.52
2011.22
2017.69
2021.59
2021.63
2017.66
2010.23
2000.11
1988.04
1974.82
1961.44
1949
1938.52
1930.76
1926.09
1924.63
1926.22
1930.52
1936.92
1944.67
1952.98
1961.21
1968.8
1975.3
1980.42
1984.1
1986.42
1987.51
1987.54
1986.73
1985.22
1983.05
1980.17
1976.64
1972.67
1968.51
1964.26
1959.95
1955.69
1951.86
1948.97
1947.5
1947.78
1950.06
1954.39
1960.63
1968.35
1976.96
1985.77
1994.09
2001.28
2006.76
2010.09
2011.05
2009.7
2006.37
2001.61
1996.03
1990.27
1984.92
1980.52
1977.51
1976.21
1976.78
1979.19
1983.26
1988.66
1995.02
2001.92
2008.9
2015.53
2021.33
2025.82
2028.54
2029.13
2027.35
2023.24
2017.04
2009.17
2000.14
1990.37
1980.15
1969.66
1959.25
1949.62
1941.79
1936.67
1934.38
1933.99
1915.47
1915.54
1919.33
1923.58
1929.71
1938.16
1947.77
1957.88
1969.41
1982.2
1994.22
2004.23
2012.39
2018.63
2022.05
2021.8
2017.73
2010.26
2000.06
1987.88
1974.6
1961.23
1948.87
1938.54
1931.01
1926.66
1925.6
1927.63
1932.34
1939.1
1947.15
1955.68
1964
1971.56
1977.93
1982.85
1986.28
1988.29
1989.04
1988.67
1987.4
1985.44
1982.9
1979.8
1976.12
1971.91
1967.36
1962.67
1958.02
1953.64
1949.9
1947.21
1946.02
1946.67
1949.34
1954.05
1960.62
1968.62
1977.46
1986.41
1994.74
2001.79
2007.03
2010.09
2010.84
2009.38
2006.02
2001.29
1995.79
1990.17
1984.99
1980.77
1977.87
1976.56
1976.96
1979.08
1982.79
1987.89
1994.03
2000.83
2007.83
2014.55
2020.49
2025.17
2028.16
2029.11
2027.79
2024.11
2018.19
2010.32
2000.99
1990.76
1980.17
1969.63
1959.51
1950.23
1942.32
1936.48
1933.5
1933.34
1919.95
1919.83
1922.52
1926
1932.03
1940.52
1949.13
1957.75
1968.51
1981.17
1993.05
2002.7
2010.43
2016.38
2019.78
2019.76
2016.05
2009.04
1999.38
1987.86
1975.34
1962.77
1951.22
1941.71
1934.99
1931.47
1931.15
1933.82
1939.03
1946.13
1954.32
1962.79
1970.87
1978.01
1983.81
1988.03
1990.62
1991.71
1991.5
1990.2
1988.05
1985.33
1982.2
1978.62
1974.53
1969.96
1965.14
1960.33
1955.74
1951.6
1948.23
1946.01
1945.29
1946.33
1949.27
1954.14
1960.74
1968.67
1977.3
1985.93
1993.86
2000.5
2005.42
2008.33
2009.14
2007.93
2005.02
2000.85
1995.99
1990.96
1986.28
1982.32
1979.4
1977.77
1977.59
1978.96
1981.84
1986.1
1991.5
1997.68
2004.24
2010.71
2016.62
2021.51
2024.94
2026.49
2025.81
2022.71
2017.17
2009.52
2000.34
1990.35
1980.15
1970.12
1960.43
1951.4
1943.58
1937.6
1934.24
1933.47
1924.06
1924.77
1926.79
1929.16
1934
1941.69
1949.38
1956.57
1965.79
1977.33
1988.62
1997.91
2005.33
2011.1
2014.64
2015.12
2012.23
2006.25
1997.81
1987.7
1976.75
1965.82
1955.87
1947.87
1942.56
1940.29
1941.02
1944.46
1950.13
1957.4
1965.45
1973.49
1980.84
1987.04
1991.73
1994.71
1996
1995.77
1994.27
1991.71
1988.35
1984.54
1980.55
1976.44
1972.08
1967.44
1962.67
1958.03
1953.75
1950.05
1947.18
1945.44
1945.13
1946.43
1949.42
1954.08
1960.24
1967.56
1975.5
1983.43
1990.71
1996.8
2001.34
2004.14
2005.15
2004.48
2002.36
1999.17
1995.34
1991.3
1987.44
1984.06
1981.34
1979.44
1978.51
1978.66
1979.98
1982.48
1986.1
1990.62
1995.76
2001.11
2006.23
2010.69
2014.09
2016.06
2016.27
2014.42
2010.33
2004.1
1996.13
1987.11
1977.79
1968.72
1960.11
1952.01
1944.89
1939.41
1936.11
1934.82
1930.28
1931.32
1933.18
1934.38
1937.86
1944.26
1950.54
1956.02
1963.33
1973.13
1983.15
1991.63
1998.51
2004.01
2007.64
2008.67
2006.73
2001.97
1994.99
1986.57
1977.52
1968.58
1960.6
1954.45
1950.81
1950
1951.93
1956.26
1962.48
1969.92
1977.81
1985.33
1991.86
1996.95
2000.32
2001.81
2001.47
1999.57
1996.43
1992.28
1987.4
1982.17
1976.99
1972.09
1967.42
1962.92
1958.6
1954.63
1951.18
1948.41
1946.49
1945.64
1946.03
1947.76
1950.8
1955.07
1960.42
1966.63
1973.33
1980.02
1986.22
1991.51
1995.61
1998.4
1999.87
2000.08
1999.17
1997.34
1994.85
1991.98
1988.99
1986.08
1983.39
1981.03
1979.13
1977.87
1977.44
1978.03
1979.74
1982.56
1986.3
1990.64
1995.12
1999.29
2002.73
2005.11
2006.14
2005.55
2003.06
1998.51
1992.01
1984.08
1975.63
1967.54
1960.17
1953.26
1946.9
1941.92
1938.79
1937.32
1938.91
1939.61
1941.43
1941.58
1943.6
1948.48
1953.22
1956.93
1962.15
1969.83
1978.14
1985.42
1991.48
1996.43
1999.9
2001.25
2000.07
1996.41
1990.79
1983.96
1976.72
1969.75
1963.76
1959.49
1957.55
1958.21
1961.36
1966.58
1973.34
1980.96
1988.69
1995.72
2001.43
2005.42
2007.47
2007.44
2005.41
2001.73
1996.81
1990.97
1984.48
1977.73
1971.23
1965.35
1960.24
1955.85
1952.18
1949.28
1947.21
1945.99
1945.64
1946.21
1947.77
1950.29
1953.64
1957.65
1962.16
1967.02
1972.07
1977.08
1981.77
1985.9
1989.3
1991.92
1993.78
1994.92
1995.34
1995.04
1994.04
1992.41
1990.26
1987.71
1984.88
1981.91
1979
1976.39
1974.4
1973.34
1973.47
1974.95
1977.71
1981.49
1985.83
1990.16
1993.95
1996.79
1998.42
1998.69
1997.42
1994.35
1989.26
1982.35
1974.45
1966.88
1960.44
1954.77
1949.36
1945.01
1942.06
1940.6
1947.36
1948.13
1949.16
1948.18
1948.56
1951.7
1954.8
1956.9
1960.25
1965.93
1972.59
1978.76
1984.13
1988.7
1992.17
1994.01
1993.8
1991.45
1987.34
1982.2
1976.79
1971.75
1967.66
1965.13
1964.68
1966.53
1970.52
1976.23
1983.1
1990.48
1997.65
2003.85
2008.49
2011.25
2011.95
2010.5
2006.98
2001.76
1995.38
1988.24
1980.6
1972.79
1965.32
1958.66
1953.12
1948.78
1945.66
1943.75
1943.04
1943.39
1944.67
1946.77
1949.6
1953.03
1956.85
1960.78
1964.61
1968.24
1971.66
1974.88
1977.88
1980.61
1983.09
1985.33
1987.39
1989.3
1990.93
1992.11
1992.59
1992.18
1990.79
1988.44
1985.22
1981.34
1977.11
1972.92
1969.22
1966.47
1965.07
1965.3
1967.26
1970.77
1975.38
1980.42
1985.15
1988.96
1991.48
1992.65
1992.47
1990.81
1987.27
1981.6
1974.37
1967.11
1961.14
1956.39
1952
1948.45
1945.74
1944.24
1954.99
1956.24
1956.14
1953.81
1952.4
1953.6
1954.99
1955.57
1957.23
1961.1
1966.23
1971.42
1976.27
1980.64
1984.27
1986.74
1987.66
1986.82
1984.42
1981.09
1977.55
1974.41
1972.15
1971.23
1972.06
1974.8
1979.28
1985.05
1991.57
1998.25
2004.43
2009.42
2012.71
2014.05
2013.39
2010.67
2005.95
1999.58
1992.16
1984.19
1975.98
1967.79
1960.03
1953.16
1947.55
1943.37
1940.72
1939.63
1940.05
1941.77
1944.48
1947.9
1951.82
1956.03
1960.23
1964.12
1967.41
1970
1971.96
1973.49
1974.81
1976.11
1977.54
1979.22
1981.24
1983.6
1986.14
1988.52
1990.28
1990.98
1990.29
1988.08
1984.39
1979.49
1973.82
1967.96
1962.52
1958.12
1955.27
1954.35
1955.55
1958.83
1963.81
1969.8
1975.89
1981.16
1984.99
1987.21
1988.03
1987.6
1985.58
1981.4
1975.2
1968.42
1962.73
1958.52
1955.01
1952.3
1949.83
1948.07
1963.35
1964.48
1963.81
1960.29
1957.18
1956.35
1955.94
1954.96
1954.93
1956.93
1960.36
1964.32
1968.38
1972.26
1975.71
1978.44
1980.12
1980.47
1979.53
1977.78
1975.88
1974.39
1973.71
1974.18
1976.08
1979.51
1984.27
1989.91
1995.91
2001.74
2006.83
2010.57
2012.5
2012.49
2010.59
2006.83
2001.24
1994.1
1986
1977.54
1969.12
1961.02
1953.56
1947.12
1942.06
1938.58
1936.81
1936.8
1938.52
1941.71
1945.94
1950.73
1955.7
1960.53
1964.92
1968.56
1971.17
1972.65
1973.12
1972.95
1972.56
1972.35
1972.63
1973.6
1975.36
1977.89
1980.98
1984.18
1986.9
1988.52
1988.51
1986.58
1982.7
1977.14
1970.46
1963.39
1956.74
1951.26
1947.53
1945.96
1946.75
1949.88
1955.1
1961.78
1969
1975.63
1980.68
1983.79
1985.24
1985.5
1984.51
1981.63
1976.62
1970.58
1965.25
1961.39
1958.65
1956.76
1954.43
1952.26
1972.2
1972.73
1972.01
1967.75
1963.34
1960.74
1958.66
1956.24
1954.63
1954.77
1956.4
1958.89
1961.84
1964.85
1967.64
1970.04
1971.84
1972.75
1972.71
1972.03
1971.3
1971
1971.46
1972.93
1975.58
1979.42
1984.24
1989.58
1994.96
1999.92
2004.01
2006.7
2007.55
2006.5
2003.73
1999.35
1993.37
1985.98
1977.67
1969.05
1960.64
1952.8
1945.85
1940.17
1936.07
1933.71
1933.21
1934.63
1937.92
1942.81
1948.78
1955.16
1961.35
1966.89
1971.44
1974.71
1976.47
1976.69
1975.58
1973.6
1971.39
1969.54
1968.52
1968.61
1969.9
1972.31
1975.54
1979.11
1982.34
1984.5
1984.97
1983.34
1979.51
1973.75
1966.67
1959.12
1952.06
1946.36
1942.67
1941.34
1942.43
1945.84
1951.32
1958.4
1966.26
1973.73
1979.6
1983.19
1984.73
1984.97
1984.28
1982.18
1978.2
1973.02
1968.2
1964.76
1962.83
1961.82
1959.57
1957.07
1979.46
1979.83
1979.07
1974.51
1969.33
1965.48
1962.18
1958.76
1956.04
1954.77
1954.9
1956.07
1957.95
1960.05
1962.03
1963.81
1965.31
1966.3
1966.65
1966.58
1966.55
1966.97
1968.1
1970.08
1973
1976.83
1981.3
1986.02
1990.52
1994.48
1997.57
1999.38
1999.5
1997.87
1994.74
1990.33
1984.65
1977.76
1969.95
1961.74
1953.66
1946.14
1939.62
1934.52
1931.18
1929.8
1930.44
1933.14
1937.87
1944.35
1952.04
1960.11
1967.75
1974.29
1979.26
1982.37
1983.46
1982.54
1979.9
1976.15
1972.06
1968.43
1965.9
1964.85
1965.38
1967.33
1970.32
1973.77
1976.96
1979.13
1979.63
1978.04
1974.23
1968.47
1961.37
1953.86
1947
1941.79
1938.93
1938.7
1940.98
1945.41
1951.59
1959.09
1967.28
1975.17
1981.47
1985.23
1986.46
1986.11
1985.01
1983.08
1979.79
1975.42
1971.14
1968.17
1967.16
1967.2
1965.1
1962.63
1984.69
1985.4
1984.38
1979.74
1974.22
1969.61
1965.58
1961.63
1958.29
1956.15
1955.22
1955.38
1956.39
1957.71
1958.94
1960.04
1961.05
1961.81
1962.21
1962.4
1962.72
1963.51
1964.93
1967.03
1969.82
1973.21
1976.98
1980.72
1984.06
1986.79
1988.8
1989.81
1989.47
1987.7
1984.75
1980.89
1976.19
1970.58
1964.13
1957.14
1950
1943.16
1937.09
1932.33
1929.37
1928.48
1929.76
1933.23
1938.87
1946.46
1955.45
1964.99
1974.06
1981.77
1987.49
1990.82
1991.61
1989.91
1986.1
1980.82
1974.98
1969.55
1965.36
1962.92
1962.4
1963.59
1966.04
1969.05
1971.85
1973.65
1973.83
1972.01
1968.12
1962.44
1955.58
1948.47
1942.21
1937.87
1936.22
1937.55
1941.57
1947.63
1954.99
1963.09
1971.45
1979.38
1985.74
1989.43
1990.2
1988.94
1986.95
1984.66
1981.68
1977.92
1974.05
1971.45
1971.34
1972.47
1970.78
1968.75
1989.28
1990.13
1988.81
1984.25
1978.68
1973.7
1969.25
1965.03
1961.36
1958.63
1956.88
1956.15
1956.29
1956.78
1957.2
1957.52
1957.85
1958.15
1958.32
1958.47
1958.91
1959.86
1961.37
1963.39
1965.87
1968.68
1971.59
1974.25
1976.34
1977.79
1978.68
1978.96
1978.38
1976.81
1974.45
1971.56
1968.26
1964.41
1959.92
1954.82
1949.3
1943.64
1938.3
1933.91
1931.08
1930.29
1931.74
1935.49
1941.51
1949.63
1959.37
1969.88
1980.08
1988.89
1995.48
1999.3
2000.15
1998.09
1993.51
1987.09
1979.81
1972.75
1966.87
1962.87
1961.04
1961.21
1962.89
1965.3
1967.59
1968.95
1968.78
1966.75
1962.89
1957.53
1951.28
1945.02
1939.77
1936.59
1936.28
1939.19
1944.99
1952.8
1961.5
1970.25
1978.55
1986.02
1991.91
1995.17
1995.29
1993.02
1989.88
1986.9
1984
1980.7
1977.13
1974.7
1975.26
1977.34
1976.3
1974.98
1993.92
1994.5
1993.07
1988.85
1983.62
1978.67
1974.14
1969.85
1966.01
1962.86
1960.36
1958.68
1957.78
1957.22
1956.57
1955.88
1955.32
1954.92
1954.62
1954.53
1954.9
1955.89
1957.45
1959.39
1961.57
1963.84
1965.99
1967.71
1968.74
1969.09
1969.04
1968.76
1968.15
1967.08
1965.63
1963.98
1962.23
1960.22
1957.76
1954.7
1951.01
1946.8
1942.38
1938.38
1935.56
1934.58
1935.84
1939.49
1945.52
1953.79
1963.85
1974.91
1985.87
1995.56
2002.96
2007.38
2008.51
2006.39
2001.4
1994.25
1985.9
1977.46
1970.02
1964.41
1961.06
1959.94
1960.59
1962.22
1963.93
1964.88
1964.46
1962.4
1958.81
1954.11
1948.93
1944.07
1940.4
1938.78
1939.97
1944.35
1951.66
1960.94
1970.81
1980.05
1987.98
1994.46
1999.2
2001.47
2000.66
1997.25
1992.87
1989.07
1986.2
1983.48
1980.31
1978.01
1978.98
1981.73
1981.47
1980.83
1997.95
1998.17
1996.86
1993.32
1988.85
1984.43
1980.24
1976.19
1972.43
1969.03
1965.91
1963.26
1961.2
1959.35
1957.39
1955.44
1953.79
1952.56
1951.67
1951.23
1951.46
1952.47
1954.1
1956.05
1958.05
1959.92
1961.5
1962.53
1962.79
1962.36
1961.67
1961.09
1960.71
1960.43
1960.2
1960.05
1959.96
1959.72
1959.05
1957.72
1955.58
1952.58
1948.91
1945.12
1942.03
1940.49
1941.15
1944.3
1950.03
1958.17
1968.29
1979.65
1991.14
2001.53
2009.67
2014.72
2016.27
2014.29
2009.17
2001.61
1992.55
1983.12
1974.39
1967.3
1962.41
1959.81
1959.17
1959.78
1960.75
1961.22
1960.59
1958.59
1955.41
1951.56
1947.75
1944.7
1943.08
1943.51
1946.47
1952.28
1960.77
1971.08
1981.75
1991.23
1998.57
2003.67
2006.71
2007.42
2005.31
2000.61
1994.89
1990.21
1987.42
1985.53
1983.14
1981.24
1982.54
1985.72
1986.21
1985.99
2000.61
2000.68
1999.66
1996.98
1993.59
1990.09
1986.65
1983.16
1979.71
1976.28
1972.7
1969.19
1965.98
1962.8
1959.41
1956.07
1953.25
1951.16
1949.74
1949.02
1949.19
1950.3
1952.13
1954.24
1956.23
1957.88
1959.06
1959.61
1959.36
1958.45
1957.38
1956.72
1956.75
1957.45
1958.66
1960.26
1962.01
1963.55
1964.5
1964.54
1963.48
1961.22
1957.86
1953.88
1950.12
1947.58
1947.11
1949.28
1954.27
1961.96
1971.92
1983.38
1995.24
2006.23
2015.08
2020.83
2022.9
2021.23
2016.18
2008.48
1999.06
1989.01
1979.42
1971.19
1964.98
1960.98
1959
1958.45
1958.54
1958.45
1957.56
1955.62
1952.83
1949.78
1947.26
1946.03
1946.62
1949.33
1954.3
1961.55
1970.95
1981.81
1992.79
2002.2
2008.81
2012.43
2013.53
2012.4
2008.76
2002.68
1995.59
1989.91
1987.13
1986.24
1985.03
1984.03
1985.87
1989.44
1990.54
1990.46
2002.03
2002.08
2001.41
1999.62
1997.39
1994.98
1992.48
1989.71
1986.72
1983.39
1979.46
1975.19
1970.95
1966.54
1961.78
1957.1
1953.17
1950.35
1948.59
1947.83
1948.16
1949.6
1951.86
1954.37
1956.6
1958.25
1959.23
1959.46
1958.87
1957.65
1956.36
1955.71
1956.15
1957.76
1960.39
1963.75
1967.4
1970.77
1973.27
1974.48
1974.15
1972.19
1968.72
1964.19
1959.42
1955.49
1953.48
1954.18
1957.97
1964.81
1974.29
1985.62
1997.67
2009.14
2018.68
2025.16
2027.89
2026.68
2021.88
2014.22
2004.68
1994.35
1984.28
1975.37
1968.26
1963.2
1960.1
1958.51
1957.74
1957.09
1955.96
1954.09
1951.64
1949.22
1947.69
1947.91
1950.39
1955.23
1962.16
1970.81
1980.87
1991.81
2002.55
2011.48
2017.2
2019.36
2018.61
2015.68
2010.64
2003.39
1995.1
1988.42
1985.47
1985.47
1985.64
1985.96
1988.71
1992.86
1994.46
1994.42
2002.62
2002.68
2002.4
2001.44
2000.27
1998.92
1997.34
1995.26
1992.69
1989.42
1985.1
1980.09
1974.92
1969.48
1963.61
1957.79
1952.94
1949.62
1947.82
1947.36
1948.19
1950.26
1953.21
1956.41
1959.17
1961.1
1962.12
1962.21
1961.43
1960.01
1958.56
1957.87
1958.55
1960.79
1964.49
1969.27
1974.57
1979.6
1983.55
1985.79
1985.98
1984.07
1980.23
1974.94
1969.01
1963.59
1959.86
1958.83
1961.08
1966.72
1975.38
1986.27
1998.26
2010
2020.08
2027.28
2030.73
2030.14
2025.76
2018.32
2008.84
1998.45
1988.21
1979.01
1971.44
1965.78
1961.94
1959.58
1958.16
1957.08
1955.81
1954.08
1952
1950.08
1949.21
1950.32
1954.06
1960.45
1968.97
1978.82
1989.33
1999.99
2009.98
2017.95
2022.53
2023.23
2020.78
2016.33
2010.26
2002.38
1993.44
1986.08
1982.93
1983.57
1985.01
1986.81
1990.8
1995.79
1997.9
1998.01
2002.49
2002.61
2002.72
2002.5
2002.22
2001.75
2000.91
1999.35
1997.05
1993.7
1988.88
1983.05
1976.99
1970.74
1964.07
1957.48
1952.01
1948.49
1946.98
1947.19
1948.88
1951.88
1955.8
1959.92
1963.45
1965.9
1967.17
1967.33
1966.48
1964.94
1963.34
1962.55
1963.24
1965.76
1970.01
1975.66
1982.05
1988.29
1993.38
1996.46
1997.06
1995.08
1990.76
1984.66
1977.65
1970.85
1965.54
1962.84
1963.5
1967.78
1975.38
1985.53
1997.13
2008.82
2019.17
2026.89
2031.02
2031.11
2027.31
2020.29
2011.07
2000.82
1990.64
1981.44
1973.79
1967.92
1963.76
1960.99
1959.15
1957.77
1956.45
1954.95
1953.3
1951.86
1951.41
1952.91
1957.12
1964.26
1973.7
1984.34
1995.12
2005.33
2014.31
2021.02
2024.24
2023.44
2019.42
2013.65
2006.93
1999.03
1990.27
1982.96
1979.94
1981.11
1983.56
1986.7
1992.04
1998.04
2000.75
2001.27
2001.49
2001.74
2002.21
2002.59
2002.96
2003.12
2002.72
2001.41
1999.21
1995.67
1990.24
1983.51
1976.57
1969.69
1962.6
1955.66
1949.99
1946.59
1945.69
1946.89
1949.75
1953.94
1959
1964.17
1968.57
1971.65
1973.28
1973.59
1972.75
1971.13
1969.37
1968.38
1968.91
1971.37
1975.73
1981.66
1988.52
1995.39
2001.17
2004.84
2005.74
2003.68
1998.94
1992.15
1984.24
1976.36
1969.81
1965.75
1965.04
1968.02
1974.49
1983.73
1994.63
2005.89
2016.1
2023.98
2028.53
2029.21
2026.05
2019.61
2010.88
2001.01
1991.15
1982.22
1974.81
1969.11
1965
1962.14
1960.12
1958.55
1957.18
1955.87
1954.61
1953.64
1953.5
1955.02
1959.06
1966.04
1975.54
1986.37
1997.14
2006.87
2014.89
2020.39
2022.33
2020.19
2014.77
2007.83
2000.63
1993.13
1985.27
1978.89
1976.67
1978.55
1981.87
1986.06
1992.59
1999.55
2002.98
2004.15
1999.59
1999.99
2000.73
2001.5
2002.23
2002.7
2002.38
2000.99
1998.67
1994.9
1988.88
1981.25
1973.48
1966.15
1959.01
1952.2
1946.75
1943.81
1943.75
1946.15
1950.38
1955.91
1962.21
1968.44
1973.69
1977.34
1979.27
1979.66
1978.78
1977.01
1975.02
1973.69
1973.86
1976
1980.13
1985.91
1992.73
1999.7
2005.74
2009.74
2010.89
2008.88
2003.93
1996.72
1988.22
1979.65
1972.28
1967.28
1965.55
1967.49
1972.94
1981.22
1991.25
2001.74
2011.39
2018.96
2023.51
2024.48
2021.83
2016.02
2007.94
1998.7
1989.43
1981.06
1974.19
1969
1965.31
1962.72
1960.78
1959.14
1957.65
1956.32
1955.26
1954.61
1954.68
1956.05
1959.49
1965.6
1974.26
1984.48
1994.79
2003.96
2011.21
2015.83
2016.95
2014
2007.68
1999.87
1992.29
1985.26
1978.63
1973.81
1973.08
1976.12
1980.32
1985.32
1992.71
2000.35
2004.55
2006.51
1996.92
1997.4
1998.28
1999.19
1999.98
2000.41
1999.77
1997.92
1995.27
1991.27
1984.81
1976.47
1968.02
1960.44
1953.58
1947.34
1942.53
1940.32
1941.23
1944.87
1950.46
1957.32
1964.82
1972.07
1978.09
1982.19
1984.25
1984.55
1983.43
1981.35
1978.93
1977.08
1976.66
1978.23
1981.84
1987.16
1993.58
2000.3
2006.27
2010.43
2011.88
2010.15
2005.38
1998.19
1989.6
1980.8
1973.07
1967.57
1965.19
1966.36
1970.96
1978.31
1987.38
1996.92
2005.67
2012.51
2016.59
2017.43
2015
2009.69
2002.29
1993.84
1985.38
1977.83
1971.77
1967.4
1964.48
1962.54
1961
1959.47
1957.84
1956.28
1955.06
1954.4
1954.49
1955.6
1958.28
1963.13
1970.31
1979.18
1988.42
1996.74
2003.28
2007.38
2008.26
2005.31
1998.97
1990.99
1983.31
1976.71
1971.24
1968.11
1969.23
1973.82
1979.09
1984.77
1992.59
2000.47
2005.39
2008.12
1993.65
1994.1
1994.91
1995.7
1996.27
1996.39
1995.1
1992.42
1989.22
1985.02
1978.39
1969.68
1960.83
1953.24
1946.94
1941.64
1937.8
1936.5
1938.37
1943.08
1949.81
1957.75
1966.23
1974.33
1980.99
1985.44
1987.51
1987.53
1985.99
1983.39
1980.36
1977.77
1976.52
1977.24
1980.07
1984.69
1990.5
1996.73
2002.46
2006.68
2008.5
2007.37
2003.27
1996.72
1988.66
1980.24
1972.68
1967.13
1964.44
1965.05
1968.88
1975.31
1983.34
1991.78
1999.41
2005.21
2008.45
2008.78
2006.21
2001.17
1994.38
1986.76
1979.26
1972.71
1967.67
1964.32
1962.42
1961.42
1960.64
1959.54
1957.91
1956
1954.26
1953.14
1952.87
1953.57
1955.48
1959.04
1964.54
1971.64
1979.34
1986.48
1992.18
1995.85
1996.87
1994.62
1989.23
1982.06
1974.95
1968.93
1964.38
1962.66
1965.48
1971.71
1978.17
1984.49
1992.34
1999.97
2005.42
2008.74
1989.92
1990.25
1990.74
1991.14
1991.27
1990.9
1988.76
1985.03
1981.12
1976.75
1970.27
1961.67
1952.83
1945.48
1939.97
1935.84
1933.19
1932.88
1935.57
1941.04
1948.44
1956.97
1965.95
1974.54
1981.64
1986.36
1988.42
1988.13
1986.08
1982.85
1979.09
1975.61
1973.34
1972.99
1974.8
1978.51
1983.56
1989.2
1994.6
1998.86
2001.14
2000.87
1997.92
1992.64
1985.81
1978.47
1971.71
1966.6
1963.93
1964.15
1967.22
1972.63
1979.47
1986.61
1992.92
1997.47
1999.64
1999.17
1996.21
1991.22
1984.91
1978.11
1971.65
1966.24
1962.35
1960.12
1959.35
1959.46
1959.7
1959.34
1958.01
1955.85
1953.42
1951.41
1950.31
1950.27
1951.35
1953.75
1957.72
1963.1
1969.2
1975.03
1979.77
1982.94
1984.14
1982.86
1979.06
1973.6
1967.92
1962.94
1959.23
1958.43
1962.43
1969.98
1977.56
1984.47
1992.01
1998.91
2004.59
2008.24
1985.94
1986.04
1986.01
1985.76
1985.27
1984.34
1981.34
1976.52
1971.84
1967.39
1961.4
1953.42
1945.07
1938.29
1933.7
1930.84
1929.46
1930.1
1933.4
1939.21
1946.75
1955.21
1964.04
1972.54
1979.7
1984.53
1986.59
1986.09
1983.62
1979.83
1975.37
1971.02
1967.67
1966.12
1966.73
1969.38
1973.56
1978.57
1983.64
1987.95
1990.78
1991.55
1990.07
1986.54
1981.54
1975.9
1970.56
1966.4
1964.14
1964.17
1966.51
1970.76
1976.17
1981.76
1986.53
1989.64
1990.57
1989.16
1985.65
1980.56
1974.63
1968.64
1963.29
1959.15
1956.52
1955.5
1955.86
1957.08
1958.4
1959.01
1958.3
1956.2
1953.19
1950.12
1947.77
1946.54
1946.53
1947.8
1950.46
1954.45
1959.24
1964
1967.96
1970.67
1971.91
1971.46
1969.31
1966
1962.43
1959.08
1956.36
1956.08
1960.54
1968.79
1977.18
1984.57
1991.51
1997.32
2002.89
2006.59
1981.98
1981.74
1981.07
1979.94
1978.69
1977.22
1973.52
1967.78
1962.45
1958.05
1952.88
1946.04
1938.72
1932.81
1929.23
1927.59
1927.38
1928.81
1932.44
1938.19
1945.35
1953.15
1961.14
1968.88
1975.56
1980.22
1982.25
1981.68
1978.99
1974.85
1969.89
1964.83
1960.53
1957.79
1957.15
1958.63
1961.87
1966.24
1971.01
1975.46
1978.89
1980.8
1980.94
1979.38
1976.51
1972.96
1969.45
1966.67
1965.16
1965.24
1966.94
1969.98
1973.78
1977.58
1980.58
1982.09
1981.68
1979.28
1975.17
1969.93
1964.33
1959.12
1954.93
1952.16
1950.96
1951.25
1952.76
1955.01
1957.33
1958.9
1959.02
1957.33
1954.1
1950.15
1946.45
1943.71
1942.26
1942.2
1943.6
1946.41
1950.25
1954.39
1958.01
1960.58
1961.91
1962.02
1961.13
1959.78
1958.51
1957.19
1955.7
1955.74
1959.98
1968.12
1976.8
1984.44
1990.61
1995.14
2000.28
2003.78
1978.22
1977.61
1976.31
1974.19
1972.09
1970.14
1966
1959.73
1954.03
1949.88
1945.81
1940.6
1934.81
1930.11
1927.58
1926.99
1927.67
1929.58
1933.15
1938.44
1944.81
1951.52
1958.21
1964.64
1970.33
1974.46
1976.34
1975.8
1973.15
1968.94
1963.77
1958.3
1953.29
1949.55
1947.71
1947.99
1950.23
1953.94
1958.46
1963.1
1967.22
1970.32
1972.09
1972.5
1971.79
1970.37
1968.77
1967.47
1966.85
1967.14
1968.32
1970.18
1972.34
1974.25
1975.35
1975.16
1973.4
1970.04
1965.41
1960.09
1954.83
1950.39
1947.36
1946.02
1946.35
1948.1
1950.85
1954.1
1957.27
1959.66
1960.59
1959.54
1956.52
1952.13
1947.36
1943.14
1940.09
1938.5
1938.49
1940.1
1943.08
1946.86
1950.58
1953.5
1955.22
1955.78
1955.66
1955.66
1956.29
1956.98
1956.89
1957.17
1960.66
1967.88
1976.22
1983.74
1989.01
1992.23
1996.73
1999.86
1974.79
1973.89
1972.09
1968.98
1966.04
1963.71
1959.47
1953.17
1947.53
1943.89
1941.18
1937.96
1934.17
1931
1929.55
1929.79
1930.98
1932.89
1935.9
1940.23
1945.42
1950.8
1955.98
1960.9
1965.32
1968.68
1970.32
1969.88
1967.46
1963.48
1958.42
1952.86
1947.46
1942.98
1940.1
1939.23
1940.43
1943.41
1947.64
1952.5
1957.35
1961.66
1965.03
1967.32
1968.59
1969.07
1969.13
1969.08
1969.21
1969.62
1970.28
1971.04
1971.62
1971.7
1970.95
1969.11
1966.08
1961.93
1956.97
1951.75
1946.97
1943.34
1941.42
1941.48
1943.37
1946.68
1950.8
1955.11
1959.06
1962.11
1963.67
1963.27
1960.7
1956.35
1951.03
1945.73
1941.27
1938.15
1936.63
1936.86
1938.81
1942.11
1946.02
1949.59
1952.09
1953.25
1953.57
1954.19
1955.95
1958.23
1959.46
1959.95
1962.37
1968.04
1975.37
1982.34
1986.59
1988.56
1992.3
1994.98
1971.78
1970.76
1968.65
1964.7
1961.01
1958.42
1954.43
1948.68
1943.63
1940.82
1939.64
1938.67
1937.2
1935.84
1935.53
1936.39
1937.73
1939.14
1941
1943.77
1947.32
1951.11
1954.77
1958.23
1961.45
1964.06
1965.49
1965.28
1963.33
1959.83
1955.16
1949.8
1944.3
1939.36
1935.66
1933.75
1933.9
1936.06
1939.88
1944.84
1950.34
1955.79
1960.69
1964.72
1967.74
1969.81
1971.12
1971.9
1972.35
1972.57
1972.54
1972.17
1971.27
1969.69
1967.28
1964.01
1959.94
1955.24
1950.24
1945.4
1941.33
1938.64
1937.85
1939.21
1942.57
1947.41
1952.98
1958.49
1963.3
1966.92
1968.96
1969.04
1966.96
1962.89
1957.47
1951.61
1946.18
1941.82
1938.92
1937.72
1938.36
1940.77
1944.49
1948.6
1952.02
1953.99
1954.67
1955.34
1957.4
1960.53
1962.79
1963.49
1964.75
1968.49
1974.3
1980.29
1983.44
1984.3
1987.25
1989.49
1969.27
1968.33
1966.13
1961.56
1957.32
1954.59
1951.17
1946.51
1942.58
1940.93
1941.42
1942.77
1943.8
1944.43
1945.32
1946.68
1947.9
1948.47
1948.71
1949.36
1950.73
1952.59
1954.65
1956.81
1959.05
1961.14
1962.59
1962.84
1961.6
1958.86
1954.82
1949.88
1944.52
1939.36
1935.08
1932.29
1931.45
1932.71
1935.95
1940.8
1946.71
1953.07
1959.27
1964.81
1969.33
1972.66
1974.84
1975.99
1976.29
1975.9
1974.88
1973.25
1970.94
1967.91
1964.17
1959.8
1955.01
1950.08
1945.34
1941.2
1938.12
1936.58
1936.98
1939.55
1944.19
1950.4
1957.37
1964.17
1969.99
1974.32
1976.84
1977.3
1975.6
1971.86
1966.56
1960.49
1954.5
1949.3
1945.33
1942.84
1942.04
1943.12
1946
1950.06
1954.13
1956.93
1958
1958.43
1960.07
1963.28
1966.09
1966.97
1967.22
1969.01
1973.09
1977.85
1979.88
1979.81
1982.03
1983.9
1967.35
1966.65
1964.52
1959.62
1955.05
1952.29
1949.66
1946.53
1944.21
1944.04
1946.27
1949.89
1953.38
1956.02
1958.11
1959.89
1960.88
1960.5
1958.97
1957.2
1955.98
1955.56
1955.85
1956.76
1958.24
1960.08
1961.8
1962.79
1962.52
1960.77
1957.59
1953.24
1948.17
1942.97
1938.31
1934.86
1933.17
1933.58
1936.14
1940.65
1946.64
1953.52
1960.61
1967.25
1972.89
1977.15
1979.84
1980.99
1980.77
1979.39
1977.1
1974.06
1970.37
1966.12
1961.39
1956.36
1951.28
1946.47
1942.3
1939.13
1937.29
1937.08
1938.75
1942.47
1948.19
1955.5
1963.65
1971.67
1978.63
1983.89
1987.09
1988.07
1986.77
1983.36
1978.24
1972.09
1965.74
1959.94
1955.18
1951.64
1949.48
1948.98
1950.38
1953.57
1957.61
1960.94
1962.38
1962.47
1963.25
1965.85
1968.71
1969.71
1969.19
1969.33
1971.78
1975.31
1976.38
1975.64
1977.3
1978.95
1966.04
1965.66
1963.69
1958.77
1954.11
1951.4
1949.66
1948.33
1947.99
1949.59
1953.59
1959.31
1965.07
1969.58
1972.72
1974.77
1975.44
1974.17
1971.04
1966.98
1963.16
1960.31
1958.71
1958.36
1959.19
1960.95
1963.12
1965
1965.88
1965.29
1963.09
1959.44
1954.74
1949.58
1944.68
1940.74
1938.42
1938.15
1940.12
1944.2
1950.04
1957.04
1964.51
1971.71
1977.92
1982.61
1985.42
1986.25
1985.24
1982.67
1978.93
1974.4
1969.38
1964.1
1958.75
1953.51
1948.61
1944.34
1941.05
1939.05
1938.59
1939.83
1942.85
1947.68
1954.28
1962.37
1971.36
1980.35
1988.39
1994.73
1998.9
2000.68
2000.03
1997.1
1992.26
1986.1
1979.43
1973.07
1967.58
1963.14
1959.78
1957.66
1957.19
1958.74
1961.89
1965.16
1966.8
1966.59
1966.36
1967.91
1970.38
1971.38
1970.38
1969.35
1970.54
1973.06
1973.44
1972.35
1973.68
1975.35
1965.23
1965.15
1963.4
1958.73
1954.2
1951.6
1950.77
1951.29
1953.13
1956.69
1962.49
1970.11
1977.86
1983.99
1987.93
1989.97
1990.13
1987.98
1983.51
1977.59
1971.54
1966.52
1963.15
1961.63
1961.89
1963.64
1966.32
1969.11
1971.15
1971.75
1970.57
1967.62
1963.28
1958.17
1953.06
1948.75
1945.98
1945.26
1946.83
1950.62
1956.27
1963.19
1970.64
1977.84
1984.02
1988.54
1990.96
1991.11
1989.08
1985.21
1980
1974.01
1967.76
1961.66
1955.99
1950.94
1946.66
1943.34
1941.21
1940.55
1941.54
1944.25
1948.6
1954.51
1961.87
1970.49
1979.95
1989.54
1998.41
2005.75
2011.01
2013.86
2014.17
2012.03
2007.71
2001.7
1994.74
1987.74
1981.4
1976.02
1971.53
1967.88
1965.43
1964.84
1966.33
1968.84
1970.39
1969.93
1968.82
1969.21
1971.03
1971.96
1970.78
1969.08
1969.47
1971.35
1971.36
1970.23
1971.48
1973.33
1964.68
1964.82
1963.3
1959.09
1954.88
1952.46
1952.43
1954.69
1958.68
1964.26
1971.83
1981.15
1990.61
1998.1
2002.63
2004.39
2003.72
2000.53
1994.88
1987.51
1979.8
1973.11
1968.35
1965.91
1965.77
1967.59
1970.75
1974.35
1977.41
1979.08
1978.83
1976.54
1972.53
1967.44
1962.11
1957.48
1954.36
1953.36
1954.75
1958.46
1964.08
1970.93
1978.21
1985.06
1990.71
1994.5
1996
1995.05
1991.76
1986.51
1979.89
1972.6
1965.3
1958.57
1952.82
1948.25
1944.92
1942.85
1942.12
1942.87
1945.27
1949.32
1954.91
1961.82
1969.87
1978.89
1988.59
1998.48
2007.84
2015.94
2022.19
2026.16
2027.61
2026.51
2022.99
2017.37
2010.26
2002.57
1995.2
1988.65
1982.94
1977.86
1973.5
1970.61
1969.93
1971.07
1972.16
1971.54
1969.85
1969.32
1970.53
1971.46
1970.39
1968.54
1968.64
1970.22
1970.18
1969.25
1970.58
1972.54
1964.05
1964.31
1962.96
1959.35
1955.61
1953.4
1954.03
1957.73
1963.63
1971.12
1980.3
1991.08
2001.98
2010.69
2015.75
2017.15
2015.47
2011.05
2004.19
1995.63
1986.72
1978.88
1973.2
1970.18
1969.83
1971.79
1975.35
1979.57
1983.4
1985.88
1986.36
1984.62
1980.9
1975.85
1970.37
1965.48
1962.11
1960.96
1962.35
1966.18
1971.95
1978.89
1986.05
1992.49
1997.38
2000.09
2000.27
1997.85
1993.06
1986.37
1978.45
1970.06
1961.98
1954.89
1949.26
1945.34
1943.11
1942.43
1943.16
1945.29
1948.9
1954.02
1960.54
1968.23
1976.83
1986.19
1996.08
2006.13
2015.81
2024.47
2031.53
2036.5
2039.07
2039.08
2036.53
2031.52
2024.47
2016.17
2007.63
1999.65
1992.48
1985.91
1979.8
1974.7
1971.69
1971.04
1971.34
1970.61
1968.74
1967.75
1968.69
1969.91
1969.34
1967.88
1968.17
1969.83
1969.97
1969.36
1970.88
1972.67
1963.01
1963.25
1961.98
1958.99
1955.79
1953.88
1955.01
1959.75
1967.15
1976.21
1986.7
1998.56
2010.54
2020.29
2025.98
2027.24
2024.72
2019.14
2011.12
2001.56
1991.77
1983.2
1976.96
1973.64
1973.24
1975.33
1979.14
1983.68
1987.87
1990.73
1991.57
1990.13
1986.62
1981.66
1976.18
1971.25
1967.86
1966.76
1968.31
1972.41
1978.52
1985.71
1992.93
1999.08
2003.26
2004.85
2003.58
1999.53
1993.11
1984.96
1975.87
1966.65
1958.11
1950.94
1945.66
1942.51
1941.43
1942.12
1944.24
1947.55
1952.04
1957.76
1964.68
1972.65
1981.46
1990.94
2000.94
2011.16
2021.15
2030.35
2038.18
2044.11
2047.74
2048.84
2047.29
2043.04
2036.26
2027.55
2017.88
2008.29
1999.39
1991.19
1983.42
1976.35
1971.1
1968.51
1967.79
1966.94
1965.25
1964.32
1965.51
1967.43
1967.87
1967.36
1968.41
1970.54
1971.11
1970.89
1972.57
1974.15
1961.34
1961.41
1960.1
1957.64
1954.99
1953.42
1954.91
1960.29
1968.7
1978.89
1990.27
2002.68
2015.19
2025.63
2031.94
2033.41
2030.52
2024.2
2015.38
2005.14
1994.84
1985.87
1979.37
1975.92
1975.51
1977.63
1981.45
1985.92
1989.96
1992.63
1993.29
1991.71
1988.14
1983.22
1977.88
1973.17
1970.09
1969.37
1971.37
1975.96
1982.54
1990.14
1997.56
2003.61
2007.3
2007.98
2005.45
1999.91
1991.97
1982.48
1972.38
1962.6
1953.93
1947.02
1942.33
1940.06
1940.12
1942.08
1945.41
1949.65
1954.65
1960.43
1967.1
1974.66
1983.03
1992.14
2001.92
2012.14
2022.41
2032.2
2040.88
2047.85
2052.58
2054.77
2054.24
2050.84
2044.57
2035.76
2025.24
2014.13
2003.41
1993.45
1984.07
1975.31
1968.1
1963.66
1961.81
1960.81
1959.51
1959.08
1960.92