/*--------------------------------*- C++ -*----------------------------------*\
| =========                 |                                                 |
| \\      /  F ield         | OpenFOAM: The Open Source CFD Toolbox           |
|  \\    /   O peration     | Version:  2406                                  |
|   \\  /    A nd           | Website:  www.openfoam.com                      |
|    \\/     M anipulation  |                                                 |
\*---------------------------------------------------------------------------*/
FoamFile
{
    version     2.0;
    format      ascii;
    arch        "LSB;label=32;scalar=64";
    class       surfaceScalarField;
    location    "2";
    object      phi;
}
// * * * * * * * * * * * * * * * * * * * * * * * * * * * * * * * * * * * * * //

dimensions      [0 3 -1 0 0 0 0];

oriented        oriented;

internalField   nonuniform List<scalar> 
19800
(
-1.41388e-13
-1.56854e-13
-2.26381e-13
-7.65956e-14
-2.27818e-13
-3.36287e-14
-3.58565e-13
-5.35766e-14
-5.11658e-13
-6.70522e-14
-5.6442e-13
-5.49491e-14
-5.95555e-13
-5.03959e-14
-7.09728e-13
-4.67365e-14
-7.89951e-13
-1.62561e-14
-7.12411e-13
1.8899e-14
-5.67638e-13
1.58084e-14
-4.61702e-13
-1.58989e-14
-3.62905e-13
-3.48e-14
-1.99975e-13
-2.67434e-14
2.73326e-14
-1.03864e-14
2.67116e-13
-3.44057e-15
4.77282e-13
-5.87888e-15
6.43012e-13
-9.38195e-15
7.6142e-13
-9.79462e-15
8.27822e-13
-9.03462e-15
8.33519e-13
-1.06681e-14
7.72451e-13
-1.62922e-14
6.49314e-13
-2.60242e-14
4.80046e-13
-4.06656e-14
2.85059e-13
-6.19223e-14
8.29312e-14
-9.03491e-14
-1.10626e-13
-1.2392e-13
-2.81181e-13
-1.58673e-13
-4.14735e-13
-1.90491e-13
-5.01401e-13
-2.16771e-13
-5.40397e-13
-2.35997e-13
-5.37488e-13
-2.46215e-13
-4.99347e-13
-2.45741e-13
-4.33411e-13
-2.34936e-13
-3.50205e-13
-2.15658e-13
-2.61496e-13
-1.89562e-13
-1.75862e-13
-1.58006e-13
-9.74521e-14
-1.22728e-13
-2.8744e-14
-8.53297e-14
2.84735e-14
-4.65816e-14
7.59831e-14
-7.67051e-15
1.19793e-13
2.78799e-14
1.63797e-13
5.52987e-14
2.04015e-13
7.32701e-14
2.32895e-13
8.70206e-14
2.48853e-13
1.04653e-13
2.57639e-13
1.29412e-13
2.63104e-13
1.56189e-13
2.59604e-13
1.75994e-13
2.35555e-13
1.83094e-13
1.83035e-13
1.77585e-13
1.0247e-13
1.62566e-13
-4.86193e-17
1.40731e-13
-1.16501e-13
1.13894e-13
-2.37015e-13
8.41616e-14
-3.4863e-13
5.4072e-14
-4.36947e-13
2.55682e-14
-4.90385e-13
-2.60572e-16
-5.03118e-13
-2.20098e-14
-4.74547e-13
-3.70246e-14
-4.07223e-13
-4.24048e-14
-3.06224e-13
-3.73609e-14
-1.80328e-13
-2.45878e-14
-4.26924e-14
-9.15917e-15
9.08517e-14
4.18315e-15
2.05403e-13
1.30851e-14
2.90256e-13
1.75592e-14
3.40104e-13
1.84449e-14
3.54135e-13
1.6084e-14
3.3428e-13
1.04129e-14
2.83961e-13
2.16368e-15
2.07879e-13
-6.17156e-15
1.12415e-13
-1.07172e-14
5.77789e-15
-7.86979e-15
-1.02671e-13
3.85619e-15
-2.03712e-13
2.29921e-14
-2.895e-13
4.5742e-14
-3.5418e-13
6.76029e-14
-3.93814e-13
8.50603e-14
-4.05914e-13
9.65626e-14
-3.8891e-13
1.02441e-13
-3.41898e-13
1.03876e-13
-2.65021e-13
1.01519e-13
-1.60503e-13
9.4564e-14
-3.39118e-14
8.12212e-14
1.05378e-13
6.0525e-14
2.44989e-13
3.48197e-14
3.71943e-13
1.0488e-14
4.75632e-13
-3.89381e-15
5.51204e-13
-2.63327e-15
6.00768e-13
1.28337e-14
6.31389e-13
3.24248e-14
6.46823e-13
4.23467e-14
6.39712e-13
3.27671e-14
5.91135e-13
6.43971e-15
4.85928e-13
-1.94083e-14
3.29291e-13
-1.96851e-14
1.6208e-13
1.27217e-14
4.07755e-14
4.44795e-14
2.68908e-14
-4.93725e-14
-2.56914e-13
-2.77315e-13
-3.4191e-13
-3.62833e-13
-2.62555e-13
-5.27467e-13
-1.9617e-13
-7.09699e-13
-1.72995e-13
-8.07869e-13
-1.55742e-13
-8.68237e-13
-7.62729e-14
-9.8675e-13
3.85767e-14
-1.07711e-12
1.17331e-13
-1.01005e-12
1.49588e-13
-8.40167e-13
1.65748e-13
-6.7056e-13
1.86857e-13
-4.91369e-13
2.12557e-13
-2.42236e-13
2.30099e-13
7.80925e-14
2.27176e-13
4.14995e-13
2.01114e-13
7.16431e-13
1.5883e-13
9.57316e-13
1.07736e-13
1.12796e-12
4.95727e-14
1.21967e-12
-1.67278e-14
1.22124e-12
-8.98554e-14
1.12537e-12
-1.6586e-13
9.38254e-13
-2.41581e-13
6.81899e-13
-3.1658e-13
3.86742e-13
-3.91315e-13
8.21909e-14
-4.63873e-13
-2.0664e-13
-5.29433e-13
-4.57769e-13
-5.83145e-13
-6.52052e-13
-6.21853e-13
-7.76327e-13
-6.43187e-13
-8.28517e-13
-6.4532e-13
-8.16827e-13
-6.27834e-13
-7.5338e-13
-5.92123e-13
-6.50862e-13
-5.40858e-13
-5.24061e-13
-4.76657e-13
-3.89229e-13
-4.01474e-13
-2.58914e-13
-3.17862e-13
-1.39012e-13
-2.29853e-13
-3.24605e-14
-1.41612e-13
5.72967e-14
-5.63195e-14
1.29589e-13
2.24225e-14
1.90589e-13
8.96992e-14
2.48623e-13
1.41865e-13
3.04922e-13
1.79852e-13
3.52461e-13
2.08466e-13
3.84461e-13
2.31747e-13
4.00532e-13
2.49336e-13
4.02421e-13
2.57276e-13
3.86245e-13
2.5171e-13
3.4221e-13
2.31726e-13
2.62015e-13
1.99752e-13
1.45038e-13
1.60533e-13
-1.79833e-15
1.19911e-13
-1.67155e-13
8.34902e-14
-3.36552e-13
5.51652e-14
-4.92115e-13
3.6355e-14
-6.14236e-13
2.67519e-14
-6.86041e-13
2.59758e-14
-6.97782e-13
3.44274e-14
-6.48244e-13
5.23426e-14
-5.43301e-13
7.78929e-14
-3.93913e-13
1.0619e-13
-2.14976e-13
1.30273e-13
-2.45105e-14
1.43473e-13
1.58029e-13
1.416e-13
3.14563e-13
1.23777e-13
4.31371e-13
9.19367e-14
5.00947e-13
4.98511e-14
5.22044e-13
2.50113e-15
4.98086e-13
-4.40519e-14
4.34944e-13
-8.28174e-14
3.39283e-13
-1.06661e-13
2.18155e-13
-1.09817e-13
7.95396e-14
-8.95202e-14
-6.70829e-14
-4.69065e-14
-2.10873e-13
1.33442e-14
-3.40486e-13
8.44005e-14
-4.45197e-13
1.59025e-13
-5.15906e-13
2.30947e-13
-5.459e-13
2.95496e-13
-5.31307e-13
3.4943e-13
-4.71274e-13
3.9029e-13
-3.67883e-13
4.1566e-13
-2.26057e-13
4.23132e-13
-5.34253e-14
4.11214e-13
1.39492e-13
3.81271e-13
3.39232e-13
3.38774e-13
5.29346e-13
2.92808e-13
6.92581e-13
2.52082e-13
8.14844e-13
2.20124e-13
8.91364e-13
1.91959e-13
9.27443e-13
1.57308e-13
9.32755e-13
1.07722e-13
9.08133e-13
4.46388e-14
8.41559e-13
-1.94667e-14
7.15283e-13
-6.82621e-14
5.20426e-13
-9.24158e-14
2.77339e-13
-8.65294e-14
5.77016e-14
-6.02205e-14
-1.7339e-14
-1.59091e-14
-2.82674e-13
-1.95131e-13
-4.48092e-13
-2.96497e-13
-3.92595e-13
-4.95698e-13
-2.95078e-13
-6.81265e-13
-1.96183e-13
-7.21497e-13
-1.1602e-13
-7.48908e-13
-1.70515e-14
-8.99543e-13
1.19714e-13
-1.02948e-12
2.5922e-13
-9.74817e-13
3.62272e-13
-7.99802e-13
4.22087e-13
-6.26714e-13
4.58789e-13
-4.55122e-13
4.87613e-13
-2.23922e-13
5.02006e-13
7.56957e-14
4.85872e-13
3.96187e-13
4.33121e-13
6.86005e-13
3.50718e-13
9.16154e-13
2.48375e-13
1.07559e-12
1.30269e-13
1.15797e-12
-3.1202e-15
1.15404e-12
-1.48665e-13
1.05538e-12
-2.98731e-13
8.65642e-13
-4.44975e-13
6.06153e-13
-5.82206e-13
3.09503e-13
-7.07855e-13
7.59132e-15
-8.18851e-13
-2.74463e-13
-9.09846e-13
-5.15873e-13
-9.74932e-13
-6.97653e-13
-1.01071e-12
-8.06825e-13
-1.01661e-12
-8.4257e-13
-9.93034e-13
-8.14811e-13
-9.40862e-13
-7.36905e-13
-8.629e-13
-6.21534e-13
-7.64395e-13
-4.82886e-13
-6.51054e-13
-3.37725e-13
-5.27577e-13
-1.99895e-13
-3.98781e-13
-7.54709e-14
-2.70283e-13
3.31475e-14
-1.46427e-13
1.21568e-13
-2.86867e-14
1.87586e-13
8.15289e-14
2.38645e-13
1.78648e-13
2.874e-13
2.53793e-13
3.38303e-13
3.01213e-13
3.83026e-13
3.22962e-13
4.10464e-13
3.26191e-13
4.17269e-13
3.16503e-13
4.06034e-13
2.94931e-13
3.76361e-13
2.60791e-13
3.22117e-13
2.15766e-13
2.375e-13
1.64687e-13
1.23e-13
1.13654e-13
-1.49216e-14
6.87333e-14
-1.67026e-13
3.60626e-14
-3.21688e-13
2.14179e-14
-4.63067e-13
2.81372e-14
-5.71955e-13
5.50984e-14
-6.31151e-13
9.70586e-14
-6.31585e-13
1.47273e-13
-5.74482e-13
1.99945e-13
-4.68826e-13
2.50443e-13
-3.27316e-13
2.93706e-13
-1.63931e-13
3.23103e-13
6.52643e-15
3.31441e-13
1.68649e-13
3.13692e-13
3.07853e-13
2.6945e-13
4.12891e-13
2.03385e-13
4.78026e-13
1.23619e-13
5.03409e-13
3.94102e-14
4.93256e-13
-4.03097e-14
4.52847e-13
-1.07047e-13
3.86225e-13
-1.52319e-13
2.95988e-13
-1.67905e-13
1.84997e-13
-1.47309e-13
5.85182e-14
-8.77805e-14
-7.47693e-14
8.27363e-15
-2.03412e-13
1.33336e-13
-3.1493e-13
2.76247e-13
-3.97878e-13
4.24513e-13
-4.43587e-13
5.66668e-13
-4.47238e-13
6.94008e-13
-4.07943e-13
8.00972e-13
-3.27857e-13
8.84035e-13
-2.10754e-13
9.39642e-13
-6.11945e-14
9.63034e-13
1.14846e-13
9.49073e-13
3.07244e-13
8.95727e-13
4.99143e-13
8.07459e-13
6.67335e-13
6.96792e-13
7.8983e-13
5.80434e-13
8.56631e-13
4.72265e-13
8.76693e-13
3.74737e-13
8.69284e-13
2.77745e-13
8.46263e-13
1.68153e-13
7.96488e-13
4.84316e-14
6.93103e-13
-5.78803e-14
5.24222e-13
-1.3115e-13
2.97699e-13
-1.68543e-13
8.20379e-14
-1.65062e-13
-8.99877e-14
-3.50556e-14
-3.90682e-13
-1.37172e-13
-5.89852e-13
-2.0342e-13
-5.62364e-13
-3.91598e-13
-4.54098e-13
-5.92721e-13
-3.31151e-13
-6.17774e-13
-2.111e-13
-6.10848e-13
-7.79208e-14
-7.5798e-13
8.23025e-14
-9.21687e-13
2.55069e-13
-9.07098e-13
4.09124e-13
-7.54357e-13
5.2214e-13
-5.90842e-13
5.96608e-13
-4.35513e-13
6.44834e-13
-2.35029e-13
6.66827e-13
2.78237e-14
6.51791e-13
3.16831e-13
5.93826e-13
5.83274e-13
4.98772e-13
7.94103e-13
3.76723e-13
9.3561e-13
2.33451e-13
1.00408e-12
7.03931e-14
9.94346e-13
-1.09148e-13
8.98603e-13
-2.9635e-13
7.17631e-13
-4.79756e-13
4.7018e-13
-6.50579e-13
1.88858e-13
-8.03892e-13
-9.28712e-14
-9.3582e-13
-3.49623e-13
-1.04138e-12
-5.62902e-13
-1.11515e-12
-7.16244e-13
-1.15369e-12
-7.97557e-13
-1.15665e-12
-8.06484e-13
-1.12534e-12
-7.54649e-13
-1.06125e-12
-6.57409e-13
-9.67367e-13
-5.27824e-13
-8.49299e-13
-3.79251e-13
-7.13109e-13
-2.28334e-13
-5.63307e-13
-8.91677e-14
-4.04839e-13
3.34258e-14
-2.45195e-13
1.39144e-13
-9.16366e-14
2.23065e-13
5.3016e-14
2.79086e-13
1.88949e-13
3.11907e-13
3.12739e-13
3.37175e-13
4.1391e-13
3.66238e-13
4.80021e-13
3.95085e-13
5.05201e-13
4.11101e-13
4.93081e-13
4.06952e-13
4.52241e-13
3.83924e-13
3.90476e-13
3.44019e-13
3.13409e-13
2.843e-13
2.26609e-13
2.00585e-13
1.37154e-13
9.3798e-14
5.32162e-14
-2.93096e-14
-1.67179e-14
-1.59993e-13
-6.3962e-14
-2.89375e-13
-8.03355e-14
-4.06412e-13
-6.06866e-14
-4.9642e-13
-6.00972e-15
-5.44243e-13
7.55721e-14
-5.40457e-13
1.71161e-13
-4.85504e-13
2.67079e-13
-3.88762e-13
3.51678e-13
-2.64049e-13
4.15712e-13
-1.25241e-13
4.51466e-13
1.56741e-14
4.5271e-13
1.48397e-13
4.16343e-13
2.63756e-13
3.44634e-13
3.54195e-13
2.461e-13
4.15281e-13
1.33944e-13
4.46902e-13
2.27861e-14
4.5271e-13
-7.44328e-14
4.37639e-13
-1.47854e-13
4.04982e-13
-1.90356e-13
3.55099e-13
-1.96679e-13
2.86654e-13
-1.63293e-13
1.9942e-13
-8.92797e-14
9.67519e-14
2.24687e-14
-1.36041e-14
1.64586e-13
-1.20459e-13
3.25623e-13
-2.11236e-13
4.91582e-13
-2.74505e-13
6.48454e-13
-3.02393e-13
7.85067e-13
-2.92145e-13
8.95089e-13
-2.4586e-13
9.76838e-13
-1.68204e-13
1.03089e-12
-6.32309e-14
1.05652e-12
6.69148e-14
1.04974e-12
2.19547e-13
1.0042e-12
3.85646e-13
9.16362e-13
5.46062e-13
7.91552e-13
6.74655e-13
6.47713e-13
7.50444e-13
5.09034e-13
7.70124e-13
3.91233e-13
7.51492e-13
2.86464e-13
7.19635e-13
1.70141e-13
6.81624e-13
3.16143e-14
6.05876e-13
-1.018e-13
4.7016e-13
-1.93733e-13
2.82305e-13
-2.46016e-13
9.91885e-14
-2.51865e-13
-1.58493e-13
-5.1331e-14
-5.0264e-13
-1.15205e-13
-7.13102e-13
-1.09913e-13
-6.89336e-13
-2.7583e-13
-5.84601e-13
-4.78176e-13
-4.52026e-13
-4.95718e-13
-3.13826e-13
-4.67833e-13
-1.71993e-13
-6.03761e-13
-1.24876e-14
-7.83995e-13
1.71082e-13
-8.07905e-13
3.54067e-13
-6.92714e-13
5.01275e-13
-5.55452e-13
6.02555e-13
-4.24679e-13
6.69484e-13
-2.57248e-13
7.08086e-13
-3.24812e-14
7.09895e-13
2.23154e-13
6.66327e-13
4.6475e-13
5.80367e-13
6.55696e-13
4.6292e-13
7.78576e-13
3.22531e-13
8.31335e-13
1.61862e-13
8.13667e-13
-1.71763e-14
7.20216e-13
-2.07482e-13
5.49477e-13
-3.97046e-13
3.16796e-13
-5.74324e-13
5.38088e-14
-7.31949e-13
-2.05089e-13
-8.65524e-13
-4.34042e-13
-9.70755e-13
-6.16077e-13
-1.04288e-12
-7.37304e-13
-1.07871e-12
-7.87065e-13
-1.07827e-12
-7.65257e-13
-1.04359e-12
-6.8484e-13
-9.76685e-13
-5.6346e-13
-8.80317e-13
-4.14734e-13
-7.59697e-13
-2.51038e-13
-6.20746e-13
-8.96424e-14
-4.67427e-13
5.3291e-14
-3.0329e-13
1.73449e-13
-1.35237e-13
2.74386e-13
2.74399e-14
3.53251e-13
1.78823e-13
4.00023e-13
3.18843e-13
4.12789e-13
4.47762e-13
4.05629e-13
5.58863e-13
3.96306e-13
6.387e-13
3.89949e-13
6.75074e-13
3.78848e-13
6.64035e-13
3.55054e-13
6.09787e-13
3.17677e-13
5.20342e-13
2.68418e-13
4.0491e-13
2.05757e-13
2.74221e-13
1.26928e-13
1.40635e-13
3.37012e-14
1.64054e-14
-6.66527e-14
-8.78642e-14
-1.65937e-13
-1.62708e-13
-2.58531e-13
-1.9878e-13
-3.39718e-13
-1.88313e-13
-4.02028e-13
-1.29268e-13
-4.35174e-13
-2.88769e-14
-4.30661e-13
9.6907e-14
-3.87038e-13
2.28069e-13
-3.11272e-13
3.46038e-13
-2.15441e-13
4.36709e-13
-1.11593e-13
4.90423e-13
-8.2681e-15
5.00944e-13
8.97373e-14
4.65698e-13
1.79379e-13
3.87587e-13
2.57486e-13
2.76592e-13
3.20695e-13
1.49083e-13
3.6697e-13
2.4347e-14
3.96791e-13
-8.00553e-14
4.12391e-13
-1.51723e-13
4.15299e-13
-1.84288e-13
4.04251e-13
-1.7622e-13
3.75359e-13
-1.29106e-13
3.24537e-13
-4.6564e-14
2.50532e-13
6.59877e-14
1.56891e-13
2.01073e-13
5.23019e-14
3.48826e-13
-5.04439e-14
4.97087e-13
-1.36759e-13
6.32528e-13
-1.93783e-13
7.4318e-13
-2.14149e-13
8.2163e-13
-1.98e-13
8.67317e-13
-1.51366e-13
8.85955e-13
-8.14368e-14
8.85762e-13
8.32581e-15
8.7129e-13
1.19017e-13
8.38944e-13
2.51606e-13
7.7762e-13
3.98595e-13
6.78352e-13
5.38547e-13
5.46867e-13
6.39399e-13
4.08864e-13
6.74853e-13
2.9378e-13
6.46862e-13
2.07032e-13
5.93947e-13
1.19648e-13
5.55781e-13
2.26464e-15
5.11407e-13
-1.31725e-13
4.08425e-13
-2.36071e-13
2.58435e-13
-3.00274e-13
1.03832e-13
-3.10538e-13
-2.05518e-13
-4.3011e-14
-5.05027e-13
-9.67021e-14
-7.25958e-13
-2.0097e-14
-6.59753e-13
-1.49473e-13
-5.47441e-13
-3.45994e-13
-4.06495e-13
-3.62744e-13
-2.56126e-13
-3.21571e-13
-1.13339e-13
-4.37518e-13
2.96468e-14
-6.19664e-13
1.94026e-13
-6.77025e-13
3.67868e-13
-6.05413e-13
5.13624e-13
-5.02027e-13
6.12693e-13
-3.99124e-13
6.73571e-13
-2.65646e-13
7.04995e-13
-8.16356e-14
7.01095e-13
1.36061e-13
6.51923e-13
3.49246e-13
5.58116e-13
5.19301e-13
4.31019e-13
6.23672e-13
2.82561e-13
6.59596e-13
1.18368e-13
6.31328e-13
-5.94638e-14
5.37964e-13
-2.45481e-13
3.77767e-13
-4.28686e-13
1.62406e-13
-5.96528e-13
-7.91525e-14
-7.39679e-13
-3.12642e-13
-8.52976e-13
-5.11795e-13
-9.33144e-13
-6.60898e-13
-9.77196e-13
-7.48715e-13
-9.83682e-13
-7.66379e-13
-9.54458e-13
-7.13924e-13
-8.93583e-13
-6.05e-13
-8.05027e-13
-4.59256e-13
-6.93397e-13
-2.91057e-13
-5.65597e-13
-1.115e-13
-4.28587e-13
6.21039e-14
-2.85704e-13
2.1057e-13
-1.38003e-13
3.27649e-13
1.01787e-14
4.19971e-13
1.49733e-13
4.89695e-13
2.72834e-13
5.26691e-13
3.79227e-13
5.22391e-13
4.73833e-13
4.84591e-13
5.57762e-13
4.3223e-13
6.23298e-13
3.78345e-13
6.58144e-13
3.23418e-13
6.53317e-13
2.63774e-13
6.06817e-13
2.00054e-13
5.22238e-13
1.35363e-13
4.06813e-13
6.95413e-14
2.71264e-13
-2.27495e-16
1.29359e-13
-7.3442e-14
-4.64091e-15
-1.43699e-13
-1.18863e-13
-2.03067e-13
-2.04179e-13
-2.47914e-13
-2.52357e-13
-2.79576e-13
-2.55466e-13
-2.99911e-13
-2.08766e-13
-3.07284e-13
-1.1527e-13
-2.97283e-13
1.21619e-14
-2.67145e-13
1.53464e-13
-2.19438e-13
2.8711e-13
-1.61649e-13
3.95226e-13
-1.02047e-13
4.65611e-13
-4.5126e-14
4.91181e-13
9.97188e-15
4.69171e-13
6.71723e-14
4.01779e-13
1.29363e-13
2.97765e-13
1.95728e-13
1.72942e-13
2.62217e-13
4.79769e-14
3.23993e-13
-5.61484e-14
3.77188e-13
-1.22944e-13
4.1849e-13
-1.43346e-13
4.43608e-13
-1.16025e-13
4.46785e-13
-4.57427e-14
4.22311e-13
5.90388e-14
3.66982e-13
1.88338e-13
2.82004e-13
3.32025e-13
1.73859e-13
4.80064e-13
5.44203e-14
6.21835e-13
-5.99847e-14
7.45529e-13
-1.51503e-13
8.38917e-13
-2.05711e-13
8.92212e-13
-2.16474e-13
9.02104e-13
-1.87717e-13
8.74851e-13
-1.30391e-13
8.25183e-13
-5.59378e-14
7.6977e-13
3.05905e-14
7.16552e-13
1.33129e-13
6.57966e-13
2.58963e-13
5.75363e-13
4.03682e-13
4.57736e-13
5.36312e-13
3.18842e-13
6.05439e-13
1.93282e-13
5.81148e-13
1.04021e-13
5.00595e-13
3.58908e-14
4.40128e-13
-4.7232e-14
4.12666e-13
-1.5536e-13
3.40424e-13
-2.5821e-13
2.3224e-13
-3.319e-13
1.00296e-13
-3.46419e-13
-2.29573e-13
-4.07962e-14
-4.70416e-13
-3.36016e-14
-6.88218e-13
8.43704e-14
-6.0077e-13
-7.94551e-15
-4.80099e-13
-1.98607e-13
-3.35264e-13
-2.25954e-13
-1.77185e-13
-1.87871e-13
-3.47762e-14
-2.8865e-13
9.4555e-14
-4.65882e-13
2.39532e-13
-5.50499e-13
3.98306e-13
-5.232e-13
5.35438e-13
-4.57841e-13
6.28359e-13
-3.85012e-13
6.82557e-13
-2.85524e-13
7.08188e-13
-1.43102e-13
7.01226e-13
3.41691e-14
6.50438e-13
2.17386e-13
5.53135e-13
3.68549e-13
4.19565e-13
4.59598e-13
2.64402e-13
4.84533e-13
9.72805e-14
4.50405e-13
-7.7933e-14
3.61216e-13
-2.56756e-13
2.16758e-13
-4.29712e-13
2.58995e-14
-5.84305e-13
-1.86237e-13
-7.09871e-13
-3.87285e-13
-8.0023e-13
-5.51483e-13
-8.52584e-13
-6.64583e-13
-8.65509e-13
-7.18194e-13
-8.39451e-13
-7.05449e-13
-7.78491e-13
-6.26616e-13
-6.8916e-13
-4.96015e-13
-5.77501e-13
-3.35004e-13
-4.49669e-13
-1.57737e-13
-3.14561e-13
2.7683e-14
-1.81843e-13
2.05551e-13
-5.61343e-14
3.53684e-13
6.40635e-14
4.61905e-13
1.79633e-13
5.3837e-13
2.84697e-13
5.9214e-13
3.69828e-13
6.1763e-13
4.31189e-13
6.02624e-13
4.73927e-13
5.46593e-13
5.05637e-13
4.63857e-13
5.27997e-13
3.70212e-13
5.35436e-13
2.72855e-13
5.20077e-13
1.74084e-13
4.76351e-13
7.87142e-14
4.023e-13
-6.59519e-15
3.00025e-13
-7.9277e-14
1.77026e-13
-1.41832e-13
4.63268e-14
-1.95931e-13
-7.68297e-14
-2.37582e-13
-1.79841e-13
-2.5971e-13
-2.54897e-13
-2.59236e-13
-2.96997e-13
-2.40941e-13
-3.01066e-13
-2.14451e-13
-2.62309e-13
-1.87833e-13
-1.80275e-13
-1.63813e-13
-6.29525e-14
-1.41231e-13
7.31037e-14
-1.19253e-13
2.07202e-13
-9.98312e-14
3.20517e-13
-8.6031e-14
3.9997e-13
-7.77824e-14
4.38651e-13
-6.90288e-14
4.34313e-13
-4.92166e-14
3.88471e-13
-8.51042e-15
3.07199e-13
5.69398e-14
2.02474e-13
1.43238e-13
9.1931e-14
2.40944e-13
-4.03675e-15
3.38666e-13
-6.6886e-14
4.25269e-13
-8.41823e-14
4.90348e-13
-5.18557e-14
5.2453e-13
2.59532e-14
5.2073e-13
1.38946e-13
4.75689e-13
2.73777e-13
3.90698e-13
4.17237e-13
2.71615e-13
5.58344e-13
1.29219e-13
6.88492e-13
-2.02e-14
7.99748e-13
-1.55721e-13
8.82872e-13
-2.55677e-13
9.27264e-13
-3.03958e-13
9.24531e-13
-2.96003e-13
8.74613e-13
-2.41379e-13
7.90617e-13
-1.60178e-13
6.96185e-13
-7.22558e-14
6.13582e-13
1.70469e-14
5.47645e-13
1.22657e-13
4.80654e-13
2.62795e-13
3.86833e-13
4.22783e-13
2.60032e-13
5.37888e-13
1.24962e-13
5.41152e-13
1.60057e-14
4.48611e-13
-5.86377e-14
3.5702e-13
-1.22416e-13
3.20716e-13
-1.99805e-13
2.67017e-13
-2.90223e-13
2.03716e-13
-3.64108e-13
1.00596e-13
-3.77852e-13
-2.44619e-13
-4.65041e-14
-4.91695e-13
4.90708e-14
-6.85628e-13
2.01492e-13
-6.25924e-13
1.42878e-13
-5.25176e-13
-4.09301e-14
-3.95784e-13
-8.74979e-14
-2.40323e-13
-6.48801e-14
-9.8772e-14
-1.57267e-13
2.53924e-14
-3.27261e-13
1.63554e-13
-4.34269e-13
3.21719e-13
-4.49276e-13
4.68574e-13
-4.22557e-13
5.78633e-13
-3.79555e-13
6.53064e-13
-3.12331e-13
7.01708e-13
-2.10855e-13
7.22698e-13
-7.60152e-14
7.04185e-13
7.46132e-14
6.392e-13
2.07121e-13
5.33734e-13
2.89123e-13
4.01918e-13
3.09353e-13
2.56159e-13
2.75114e-13
1.03074e-13
1.94684e-13
-5.2563e-14
7.05887e-14
-2.02759e-13
-8.98795e-14
-3.36097e-13
-2.65716e-13
-4.41571e-13
-4.27889e-13
-5.12118e-13
-5.52304e-13
-5.44816e-13
-6.26682e-13
-5.39126e-13
-6.45886e-13
-4.96827e-13
-6.05307e-13
-4.23437e-13
-5.05161e-13
-3.26851e-13
-3.60134e-13
-2.13817e-13
-1.93708e-13
-9.01224e-14
-2.01529e-14
3.56938e-14
1.57146e-13
1.52589e-13
3.27748e-13
2.53657e-13
4.68757e-13
3.40821e-13
5.64155e-13
4.19906e-13
6.19352e-13
4.90974e-13
6.48815e-13
5.45969e-13
6.55313e-13
5.76512e-13
6.29013e-13
5.81819e-13
5.6392e-13
5.67798e-13
4.67197e-13
5.40159e-13
3.51762e-13
5.0011e-13
2.26527e-13
4.45448e-13
9.74198e-14
3.7318e-13
-2.63035e-14
2.80703e-13
-1.32495e-13
1.67162e-13
-2.13406e-13
3.65543e-14
-2.69615e-13
-9.98978e-14
-3.05273e-13
-2.25831e-13
-3.20721e-13
-3.25837e-13
-3.11391e-13
-3.90646e-13
-2.74174e-13
-4.17351e-13
-2.143e-13
-4.05772e-13
-1.45709e-13
-3.55684e-13
-8.46526e-14
-2.68058e-13
-4.21984e-14
-1.48887e-13
-2.13713e-14
-1.14447e-14
-1.98142e-14
1.25783e-13
-3.41502e-14
2.44445e-13
-6.15286e-14
3.31423e-13
-9.72128e-14
3.8074e-13
-1.31223e-13
3.92157e-13
-1.48294e-13
3.6871e-13
-1.32639e-13
3.15564e-13
-7.4767e-14
2.40668e-13
2.41849e-14
1.55747e-13
1.52956e-13
7.5798e-14
2.94043e-13
1.65021e-14
4.27863e-13
-9.42304e-15
5.35684e-13
4.64173e-15
6.01921e-13
5.76915e-14
6.16488e-13
1.41541e-13
5.76324e-13
2.43155e-13
4.84912e-13
3.48375e-13
3.50325e-13
4.45895e-13
1.83884e-13
5.29655e-13
6.99677e-16
5.98108e-13
-1.79005e-13
6.50412e-13
-3.30299e-13
6.82072e-13
-4.2759e-13
6.84047e-13
-4.52739e-13
6.48157e-13
-4.04997e-13
5.7645e-13
-3.06436e-13
4.87012e-13
-1.93654e-13
4.07123e-13
-9.31597e-14
3.54667e-13
3.10473e-15
3.209e-13
1.30607e-13
2.75048e-13
3.01037e-13
1.9137e-13
4.55608e-13
7.54467e-14
5.01348e-13
-4.12187e-14
4.22068e-13
-1.31215e-13
3.10077e-13
-1.95511e-13
2.46986e-13
-2.57768e-13
1.9814e-13
-3.39052e-13
1.79014e-13
-4.10866e-13
1.12798e-13
-4.17527e-13
-2.67252e-13
-3.84208e-14
-4.99297e-13
9.78645e-14
-6.73249e-13
2.98813e-13
-6.46342e-13
2.78834e-13
-5.86479e-13
1.15131e-13
-4.93432e-13
5.32235e-14
-3.62769e-13
5.81335e-14
-2.38111e-13
-2.62693e-14
-1.28787e-13
-1.83025e-13
-4.23915e-15
-3.02729e-13
1.46604e-13
-3.52858e-13
2.98304e-13
-3.6137e-13
4.24737e-13
-3.45312e-13
5.22598e-13
-3.06e-13
6.00318e-13
-2.4199e-13
6.58177e-13
-1.5014e-13
6.85269e-13
-3.6587e-14
6.70991e-13
7.22605e-14
6.15461e-13
1.42785e-13
5.29055e-13
1.58548e-13
4.24411e-13
1.24871e-13
3.10445e-13
5.26302e-14
1.93298e-13
-5.26355e-14
8.03139e-14
-1.83946e-13
-1.85588e-14
-3.23859e-13
-9.32001e-14
-4.4731e-13
-1.36714e-13
-5.32824e-13
-1.46378e-13
-5.70585e-13
-1.22417e-13
-5.58802e-13
-6.79904e-14
-4.94982e-13
9.56057e-15
-3.78693e-13
1.00642e-13
-2.24184e-13
1.98134e-13
-5.72799e-14
2.9812e-13
1.06095e-13
3.94992e-13
2.66725e-13
4.78812e-13
4.22103e-13
5.41094e-13
5.5265e-13
5.82927e-13
6.3713e-13
6.14121e-13
6.73768e-13
6.427e-13
6.76898e-13
6.66769e-13
6.56448e-13
6.77376e-13
6.09193e-13
6.67192e-13
5.29483e-13
6.34767e-13
4.20356e-13
5.8219e-13
2.90978e-13
5.117e-13
1.4881e-13
4.24965e-13
-3.75965e-17
3.23286e-13
-1.44299e-13
2.06776e-13
-2.66828e-13
7.44918e-14
-3.52979e-13
-7.21262e-14
-3.98679e-13
-2.24624e-13
-4.09162e-13
-3.66869e-13
-3.90608e-13
-4.8037e-13
-3.44464e-13
-5.51689e-13
-2.7029e-13
-5.76084e-13
-1.73425e-13
-5.55497e-13
-6.90604e-14
-4.94232e-13
2.17627e-14
-3.96981e-13
8.10795e-14
-2.70528e-13
1.00883e-13
-1.26467e-13
8.35711e-14
1.87387e-14
3.73935e-14
1.47471e-13
-2.80541e-14
2.46267e-13
-1.02529e-13
3.09257e-13
-1.72806e-13
3.37865e-13
-2.21425e-13
3.37728e-13
-2.29755e-13
3.15481e-13
-1.84491e-13
2.77431e-13
-8.34345e-14
2.30139e-13
6.29623e-14
1.81391e-13
2.3435e-13
1.40084e-13
4.05071e-13
1.14742e-13
5.48686e-13
1.11353e-13
6.42353e-13
1.31362e-13
6.71168e-13
1.70499e-13
6.31094e-13
2.19088e-13
5.28574e-13
2.64508e-13
3.76839e-13
2.95705e-13
1.91425e-13
3.08035e-13
-1.20945e-14
3.05431e-13
-2.16934e-13
2.97456e-13
-4.01726e-13
2.91805e-13
-5.38642e-13
2.87116e-13
-5.98213e-13
2.72579e-13
-5.63749e-13
2.3751e-13
-4.48785e-13
1.84756e-13
-2.99617e-13
1.35164e-13
-1.67852e-13
1.13214e-13
-6.61102e-14
1.22779e-13
4.51478e-14
1.3625e-13
2.04164e-13
1.14781e-13
3.73431e-13
4.19824e-14
4.54021e-13
-6.21507e-14
4.00327e-13
-1.60839e-13
2.82212e-13
-2.33822e-13
1.87249e-13
-2.97657e-13
1.36309e-13
-3.81727e-13
1.63624e-13
-4.5889e-13
1.34197e-13
-4.63079e-13
-3.02349e-13
-2.43422e-14
-4.19904e-13
1.07173e-13
-5.82849e-13
3.53493e-13
-5.65476e-13
3.75908e-13
-5.41962e-13
2.45541e-13
-4.92033e-13
1.78147e-13
-4.03652e-13
1.69832e-13
-3.16095e-13
9.64442e-14
-2.42095e-13
-3.97128e-14
-1.53902e-13
-1.60014e-13
-3.67086e-14
-2.3372e-13
9.16803e-14
-2.69893e-13
2.07213e-13
-2.74637e-13
3.03031e-13
-2.55546e-13
3.85343e-13
-2.20867e-13
4.56661e-13
-1.67489e-13
5.08903e-13
-9.21513e-14
5.30459e-13
-1.18279e-14
5.1643e-13
4.23641e-14
4.71971e-13
5.08866e-14
4.07553e-13
1.63521e-14
3.33069e-13
-4.96328e-14
2.56412e-13
-1.39369e-13
1.85398e-13
-2.45725e-13
1.28958e-13
-3.54138e-13
9.56858e-14
-4.43461e-13
9.11007e-14
-4.95338e-13
1.16676e-13
-5.03024e-13
1.70777e-13
-4.68456e-13
2.48371e-13
-3.9095e-13
3.39414e-13
-2.68038e-13
4.30959e-13
-1.11557e-13
5.13526e-13
5.10543e-14
5.8423e-13
2.00458e-13
6.4188e-13
3.39321e-13
6.8064e-13
4.73973e-13
6.92328e-13
5.92599e-13
6.76164e-13
6.72226e-13
6.43397e-13
7.01938e-13
6.09834e-13
6.89367e-13
5.84395e-13
6.45712e-13
5.65411e-13
5.73451e-13
5.45505e-13
4.71011e-13
5.17288e-13
3.4227e-13
4.75214e-13
1.95899e-13
4.15702e-13
3.85476e-14
3.37967e-13
-1.25119e-13
2.43956e-13
-2.84703e-13
1.35742e-13
-4.20476e-13
1.296e-14
-5.11038e-13
-1.25543e-13
-5.45217e-13
-2.76112e-13
-5.26282e-13
-4.26246e-13
-4.6541e-13
-5.56913e-13
-3.72494e-13
-6.50031e-13
-2.53712e-13
-6.95224e-13
-1.16972e-13
-6.91213e-13
2.19492e-14
-6.42385e-13
1.40002e-13
-5.54899e-13
2.14803e-13
-4.35803e-13
2.33921e-13
-2.94902e-13
1.98824e-13
-1.4625e-13
1.21817e-13
-6.53976e-15
1.97796e-14
1.09441e-13
-9.00604e-14
1.93471e-13
-1.90442e-13
2.45654e-13
-2.6297e-13
2.7238e-13
-2.89372e-13
2.82213e-13
-2.56126e-13
2.82419e-13
-1.59799e-13
2.77698e-13
-9.60903e-15
2.70792e-13
1.73916e-13
2.6366e-13
3.62723e-13
2.58232e-13
5.25839e-13
2.56439e-13
6.34643e-13
2.59488e-13
6.68863e-13
2.664e-13
6.21752e-13
2.72365e-13
5.01654e-13
2.68476e-13
3.2839e-13
2.44456e-13
1.25888e-13
1.94344e-13
-8.51341e-14
1.22265e-13
-2.90025e-13
4.36311e-14
-4.76032e-13
-2.12753e-14
-6.23412e-13
-5.92523e-14
-7.01154e-13
-7.33697e-14
-6.78536e-13
-8.02366e-14
-5.52088e-13
-9.39241e-14
-3.65369e-13
-1.09527e-13
-1.90021e-13
-1.04688e-13
-6.80416e-14
-6.41519e-14
2.89697e-14
-4.23786e-15
1.58075e-13
3.17074e-14
3.12457e-13
8.71471e-15
4.0566e-13
-6.94726e-14
3.74128e-13
-1.64217e-13
2.54232e-13
-2.40172e-13
1.27472e-13
-3.07736e-13
7.17851e-14
-3.985e-13
1.51965e-13
-4.86698e-13
1.51368e-13
-5.00899e-13
-3.41918e-13
-2.78009e-14
-3.21446e-13
1.05195e-13
-4.6796e-13
3.70363e-13
-4.46589e-13
4.27788e-13
-4.42146e-13
3.31642e-13
-4.26309e-13
2.6426e-13
-3.78174e-13
2.4519e-13
-3.27949e-13
1.83286e-13
-2.89858e-13
7.11992e-14
-2.4119e-13
-3.94992e-14
-1.65392e-13
-1.24762e-13
-7.18041e-14
-1.79397e-13
2.00556e-14
-1.97672e-13
1.00899e-13
-1.8965e-13
1.73731e-13
-1.72764e-13
2.41914e-13
-1.47372e-13
3.00802e-13
-1.0452e-13
3.40323e-13
-5.20448e-14
3.53163e-13
-1.57636e-14
3.39833e-13
-1.5273e-14
3.07174e-13
-4.97869e-14
2.64184e-13
-1.08107e-13
2.19835e-13
-1.81838e-13
1.83115e-13
-2.643e-13
1.63e-13
-3.43735e-13
1.66975e-13
-4.02795e-13
1.98908e-13
-4.26411e-13
2.58633e-13
-4.11433e-13
3.4313e-13
-3.64344e-13
4.46054e-13
-2.86698e-13
5.55283e-13
-1.72747e-13
6.54186e-13
-2.86341e-14
7.28972e-13
1.19574e-13
7.7517e-13
2.48712e-13
7.94983e-13
3.59976e-13
7.88434e-13
4.66812e-13
7.50329e-13
5.6845e-13
6.78107e-13
6.46117e-13
5.80631e-13
6.82537e-13
4.76552e-13
6.75127e-13
3.84178e-13
6.2905e-13
3.13393e-13
5.46376e-13
2.64793e-13
4.2765e-13
2.3251e-13
2.79406e-13
2.06758e-13
1.13413e-13
1.7665e-13
-6.11918e-14
1.34234e-13
-2.39863e-13
7.70732e-14
-4.14465e-13
6.25761e-15
-5.65734e-13
-7.82833e-14
-6.67513e-13
-1.7947e-13
-7.00272e-13
-2.98975e-13
-6.61226e-13
-4.31101e-13
-5.62577e-13
-5.60991e-13
-4.21682e-13
-6.69513e-13
-2.53638e-13
-7.4101e-13
-7.21569e-14
-7.68098e-13
1.04897e-13
-7.51031e-13
2.53395e-13
-6.93917e-13
3.48333e-13
-6.01983e-13
3.73409e-13
-4.81921e-13
3.2782e-13
-3.43894e-13
2.25906e-13
-2.02063e-13
9.09939e-14
-7.18663e-14
-5.16077e-14
3.47805e-14
-1.78554e-13
1.13311e-13
-2.6938e-13
1.66903e-13
-3.07182e-13
2.03457e-13
-2.81101e-13
2.31311e-13
-1.89749e-13
2.56024e-13
-4.30939e-14
2.79241e-13
1.38467e-13
2.99293e-13
3.27065e-13
3.12801e-13
4.91059e-13
3.16685e-13
5.99543e-13
3.09753e-13
6.28356e-13
2.92743e-13
5.66837e-13
2.6626e-13
4.22427e-13
2.2782e-13
2.19784e-13
1.70819e-13
-6.88919e-15
8.79285e-14
-2.25914e-13
-2.15839e-14
-4.18369e-13
-1.45183e-13
-5.78661e-13
-2.57662e-13
-7.02335e-13
-3.32308e-13
-7.70109e-13
-3.57503e-13
-7.47629e-13
-3.45401e-13
-6.1312e-13
-3.21678e-13
-3.94627e-13
-3.01275e-13
-1.71426e-13
-2.7376e-13
-1.53795e-14
-2.17769e-13
7.65669e-14
-1.34299e-13
1.67828e-13
-6.0623e-14
2.84315e-13
-4.33731e-14
3.67747e-13
-9.43923e-14
3.48162e-13
-1.77301e-13
2.23306e-13
-2.4627e-13
6.14329e-14
-3.06461e-13
-2.9643e-15
-3.93517e-13
1.30165e-13
-4.85808e-13
1.49764e-13
-5.19306e-13
-3.7138e-13
-4.28524e-14
-2.82062e-13
1.10806e-13
-4.07087e-13
3.68715e-13
-3.87684e-13
4.46129e-13
-3.95923e-13
3.77708e-13
-4.05703e-13
3.12548e-13
-3.88818e-13
2.83899e-13
-3.65063e-13
2.30591e-13
-3.48543e-13
1.41378e-13
-3.23493e-13
4.63022e-14
-2.74251e-13
-4.02488e-14
-2.02796e-13
-1.04941e-13
-1.23066e-13
-1.30995e-13
-4.56614e-14
-1.27541e-13
2.8218e-14
-1.18808e-13
1.00215e-13
-1.10272e-13
1.67269e-13
-9.09545e-14
2.21468e-13
-6.17836e-14
2.55522e-13
-4.24615e-14
2.67408e-13
-5.00673e-14
2.60495e-13
-8.36403e-14
2.41422e-13
-1.32199e-13
2.18788e-13
-1.87723e-13
2.02549e-13
-2.45147e-13
2.02633e-13
-2.96103e-13
2.26481e-13
-3.27055e-13
2.769e-13
-3.26009e-13
3.52365e-13
-2.93478e-13
4.49076e-13
-2.41377e-13
5.6087e-13
-1.74951e-13
6.75915e-13
-8.54689e-14
7.76012e-13
2.94189e-14
8.43279e-13
1.4962e-13
8.69596e-13
2.50284e-13
8.58172e-13
3.28477e-13
8.14821e-13
4.0053e-13
7.39887e-13
4.76381e-13
6.31074e-13
5.46569e-13
4.92749e-13
5.93827e-13
3.39834e-13
6.07583e-13
1.92609e-13
5.83468e-13
6.88264e-14
5.16526e-13
-2.08955e-14
4.03299e-13
-7.46413e-14
2.49662e-13
-9.94906e-14
7.06291e-14
-1.09296e-13
-1.19339e-13
-1.1878e-13
-3.12471e-13
-1.37254e-13
-5.017e-13
-1.67307e-13
-6.70217e-13
-2.09198e-13
-7.90437e-13
-2.65601e-13
-8.3573e-13
-3.4105e-13
-7.94594e-13
-4.36392e-13
-6.75102e-13
-5.43929e-13
-4.97831e-13
-6.48249e-13
-2.85797e-13
-7.32333e-13
-6.0248e-14
-7.84075e-13
1.5685e-13
-7.98706e-13
3.39893e-13
-7.76703e-13
4.62219e-13
-7.20388e-13
5.0416e-13
-6.32666e-13
4.61181e-13
-5.18587e-13
3.46558e-13
-3.87463e-13
1.8717e-13
-2.52673e-13
1.55493e-14
-1.28294e-13
-1.37349e-13
-2.44934e-14
-2.46388e-13
5.53956e-14
-2.94248e-13
1.1447e-13
-2.7292e-13
1.59203e-13
-1.85054e-13
1.95694e-13
-4.40028e-14
2.26854e-13
1.28214e-13
2.51239e-13
3.04195e-13
2.63721e-13
4.54265e-13
2.57944e-13
5.49319e-13
2.29822e-13
5.64839e-13
1.8019e-13
4.87016e-13
1.14481e-13
3.19511e-13
3.88905e-14
8.69323e-14
-4.4619e-14
-1.6928e-13
-1.40133e-13
-4.04087e-13
-2.53093e-13
-5.86453e-13
-3.80486e-13
-7.09877e-13
-5.03275e-13
-7.84542e-13