/*--------------------------------*- C++ -*----------------------------------*\
| =========                 |                                                 |
| \\      /  F ield         | OpenFOAM: The Open Source CFD Toolbox           |
|  \\    /   O peration     | Version:  2406                                  |
|   \\  /    A nd           | Website:  www.openfoam.com                      |
|    \\/     M anipulation  |                                                 |
\*---------------------------------------------------------------------------*/
FoamFile
{
    version     2.0;
    format      ascii;
    arch        "LSB;label=32;scalar=64";
    class       volVectorField;
    location    "2";
    object      U;
}
// * * * * * * * * * * * * * * * * * * * * * * * * * * * * * * * * * * * * * //

dimensions      [0 1 -1 0 0 0 0];

internalField   nonuniform List<vector> 
10000
(
(-6.59982e-10 -7.24553e-10 0)
(-1.89484e-09 -2.85562e-10 0)
(-2.27316e-09 8.90567e-12 0)
(-2.90481e-09 -2.50964e-11 0)
(-4.35772e-09 -1.54255e-10 0)
(-5.42244e-09 -2.36466e-10 0)
(-5.79345e-09 -2.33263e-10 0)
(-6.52324e-09 -1.43651e-10 0)
(-7.57112e-09 -7.509e-11 0)
(-7.60573e-09 -9.97131e-11 0)
(-6.43345e-09 -2.14925e-10 0)
(-5.14401e-09 -3.68282e-10 0)
(-4.14961e-09 -4.74486e-10 0)
(-2.87012e-09 -4.94638e-10 0)
(-9.00484e-10 -4.6521e-10 0)
(1.47838e-09 -4.34816e-10 0)
(3.7599e-09 -4.0328e-10 0)
(5.65169e-09 -3.43652e-10 0)
(7.07688e-09 -2.46462e-10 0)
(8.007e-09 -1.30604e-10 0)
(8.37434e-09 -1.9425e-11 0)
(8.09826e-09 7.18982e-11 0)
(7.16729e-09 1.32194e-10 0)
(5.68677e-09 1.46175e-10 0)
(3.84439e-09 9.84136e-11 0)
(1.83932e-09 -1.60246e-11 0)
(-1.56204e-10 -1.8426e-10 0)
(-1.99222e-09 -3.81953e-10 0)
(-3.52527e-09 -5.85801e-10 0)
(-4.63227e-09 -7.76771e-10 0)
(-5.25861e-09 -9.37464e-10 0)
(-5.43219e-09 -1.05254e-09 0)
(-5.21824e-09 -1.11122e-09 0)
(-4.68767e-09 -1.10986e-09 0)
(-3.93067e-09 -1.05208e-09 0)
(-3.06117e-09 -9.45326e-10 0)
(-2.18293e-09 -7.99107e-10 0)
(-1.35887e-09 -6.25214e-10 0)
(-6.20617e-10 -4.3594e-10 0)
(9.7851e-12 -2.41334e-10 0)
(5.30779e-10 -5.28591e-11 0)
(9.83149e-10 1.11419e-10 0)
(1.42112e-09 2.34024e-10 0)
(1.84585e-09 3.17322e-10 0)
(2.19522e-09 3.91278e-10 0)
(2.41882e-09 4.93737e-10 0)
(2.53929e-09 6.39046e-10 0)
(2.61095e-09 8.05268e-10 0)
(2.62762e-09 9.51092e-10 0)
(2.49901e-09 1.04364e-09 0)
(2.12123e-09 1.07167e-09 0)
(1.45419e-09 1.03897e-09 0)
(5.32059e-10 9.5271e-10 0)
(-5.72477e-10 8.19646e-10 0)
(-1.76925e-09 6.48423e-10 0)
(-2.9435e-09 4.50386e-10 0)
(-3.95626e-09 2.37733e-10 0)
(-4.67468e-09 2.35059e-11 0)
(-5.00996e-09 -1.7548e-10 0)
(-4.93011e-09 -3.37743e-10 0)
(-4.4458e-09 -4.42766e-10 0)
(-3.59571e-09 -4.80546e-10 0)
(-2.44942e-09 -4.57122e-10 0)
(-1.11769e-09 -3.90838e-10 0)
(2.52341e-10 -3.021e-10 0)
(1.50442e-09 -2.04782e-10 0)
(2.50878e-09 -1.05302e-10 0)
(3.18512e-09 -8.14554e-12 0)
(3.50389e-09 7.8815e-11 0)
(3.47219e-09 1.44886e-10 0)
(3.11788e-09 1.82741e-10 0)
(2.4818e-09 1.94654e-10 0)
(1.61893e-09 1.93071e-10 0)
(6.01765e-10 1.944e-10 0)
(-4.81744e-10 2.10107e-10 0)
(-1.538e-09 2.40872e-10 0)
(-2.48069e-09 2.77081e-10 0)
(-3.24044e-09 3.04693e-10 0)
(-3.76768e-09 3.12517e-10 0)
(-4.03007e-09 2.96741e-10 0)
(-4.0073e-09 2.60558e-10 0)
(-3.68708e-09 2.0981e-10 0)
(-3.06522e-09 1.47375e-10 0)
(-2.15336e-09 7.06844e-11 0)
(-9.89886e-10 -2.58232e-11 0)
(3.49495e-10 -1.4118e-10 0)
(1.75586e-09 -2.59453e-10 0)
(3.09963e-09 -3.44807e-10 0)
(4.26225e-09 -3.57625e-10 0)
(5.16156e-09 -2.74008e-10 0)
(5.78566e-09 -1.16212e-10 0)
(6.1806e-09 5.94463e-11 0)
(6.41234e-09 1.77007e-10 0)
(6.46378e-09 2.00883e-10 0)
(6.2032e-09 1.40149e-10 0)
(5.43873e-09 7.347e-11 0)
(4.11718e-09 9.15947e-11 0)
(2.44798e-09 2.44045e-10 0)
(9.58244e-10 3.61464e-10 0)
(1.39395e-10 1.99908e-10 0)
(-1.70594e-10 -2.12952e-09 0)
(-1.63593e-09 -2.10481e-09 0)
(-3.17938e-09 -1.46139e-09 0)
(-4.39657e-09 -1.26826e-09 0)
(-6.25282e-09 -1.26926e-09 0)
(-7.67735e-09 -1.12873e-09 0)
(-8.33606e-09 -7.4262e-10 0)
(-9.23472e-09 -1.98228e-10 0)
(-1.04634e-08 3.57323e-10 0)
(-1.06239e-08 7.28528e-10 0)
(-9.30352e-09 7.77003e-10 0)
(-7.5354e-09 6.7515e-10 0)
(-5.8574e-09 6.87432e-10 0)
(-3.77056e-09 8.39674e-10 0)
(-8.84937e-10 9.48588e-10 0)
(2.48039e-09 8.88647e-10 0)
(5.72552e-09 6.90879e-10 0)
(8.45588e-09 4.4341e-10 0)
(1.05204e-08 1.80716e-10 0)
(1.18434e-08 -1.11864e-10 0)
(1.23239e-08 -4.50324e-10 0)
(1.18559e-08 -8.26254e-10 0)
(1.04239e-08 -1.22701e-09 0)
(8.17208e-09 -1.65643e-09 0)
(5.37502e-09 -2.12787e-09 0)
(2.34097e-09 -2.63536e-09 0)
(-6.56184e-10 -3.14412e-09 0)
(-3.38328e-09 -3.60764e-09 0)
(-5.63284e-09 -3.98553e-09 0)
(-7.23576e-09 -4.25055e-09 0)
(-8.11302e-09 -4.38517e-09 0)
(-8.30193e-09 -4.37505e-09 0)
(-7.91068e-09 -4.21619e-09 0)
(-7.06331e-09 -3.9237e-09 0)
(-5.8968e-09 -3.52068e-09 0)
(-4.57073e-09 -3.02489e-09 0)
(-3.23385e-09 -2.45507e-09 0)
(-1.97685e-09 -1.83962e-09 0)
(-8.39325e-10 -1.20675e-09 0)
(1.45886e-10 -5.75945e-10 0)
(9.52842e-10 2.74659e-11 0)
(1.61016e-09 5.57848e-10 0)
(2.20044e-09 9.70027e-10 0)
(2.77759e-09 1.26297e-09 0)
(3.30553e-09 1.49302e-09 0)
(3.70458e-09 1.72767e-09 0)
(3.93982e-09 1.98083e-09 0)
(4.02899e-09 2.19741e-09 0)
(3.96734e-09 2.30064e-09 0)
(3.68004e-09 2.25035e-09 0)
(3.06618e-09 2.0599e-09 0)
(2.07741e-09 1.7729e-09 0)
(7.48307e-10 1.43568e-09 0)
(-8.27029e-10 1.08739e-09 0)
(-2.52e-09 7.59882e-10 0)
(-4.16869e-09 4.75113e-10 0)
(-5.58118e-09 2.43406e-10 0)
(-6.5682e-09 7.07569e-11 0)
(-6.9925e-09 -2.98479e-11 0)
(-6.79992e-09 -3.84835e-11 0)
(-6.01681e-09 5.47668e-11 0)
(-4.72963e-09 2.29928e-10 0)
(-3.06862e-09 4.34359e-10 0)
(-1.19962e-09 6.02553e-10 0)
(6.8713e-10 6.8418e-10 0)
(2.40018e-09 6.60353e-10 0)
(3.77767e-09 5.40149e-10 0)
(4.71296e-09 3.46141e-10 0)
(5.16427e-09 1.03948e-10 0)
(5.14565e-09 -1.5687e-10 0)
(4.70603e-09 -3.96079e-10 0)
(3.90851e-09 -5.61802e-10 0)
(2.8201e-09 -6.01769e-10 0)
(1.51382e-09 -4.82323e-10 0)
(7.58783e-11 -2.0359e-10 0)
(-1.39144e-09 1.98683e-10 0)
(-2.77524e-09 6.65524e-10 0)
(-3.96271e-09 1.13416e-09 0)
(-4.85264e-09 1.55503e-09 0)
(-5.36449e-09 1.89976e-09 0)
(-5.44497e-09 2.1586e-09 0)
(-5.07047e-09 2.32956e-09 0)
(-4.24822e-09 2.4066e-09 0)
(-3.01323e-09 2.37363e-09 0)
(-1.42965e-09 2.21451e-09 0)
(4.13531e-10 1.932e-09 0)
(2.39451e-09 1.57247e-09 0)
(4.36638e-09 1.21944e-09 0)
(6.15191e-09 9.69269e-10 0)
(7.59231e-09 8.61992e-10 0)
(8.57928e-09 8.6076e-10 0)
(9.12947e-09 8.38725e-10 0)
(9.32491e-09 6.81723e-10 0)
(9.24762e-09 3.33045e-10 0)
(8.8234e-09 -1.0942e-10 0)
(7.88997e-09 -4.75648e-10 0)
(6.25582e-09 -5.58185e-10 0)
(3.97863e-09 -3.19888e-10 0)
(1.57786e-09 9.08531e-12 0)
(1.75711e-10 9.93054e-11 0)
(7.76947e-11 -2.73005e-09 0)
(-1.04529e-09 -3.97399e-09 0)
(-2.40625e-09 -3.28274e-09 0)
(-3.91732e-09 -2.45746e-09 0)
(-5.97582e-09 -1.83487e-09 0)
(-7.12492e-09 -1.33855e-09 0)
(-7.28449e-09 -4.19876e-10 0)
(-8.16689e-09 8.61099e-10 0)
(-9.77096e-09 1.9679e-09 0)
(-1.02218e-08 2.6471e-09 0)
(-8.94619e-09 3.01784e-09 0)
(-7.12261e-09 3.29243e-09 0)
(-5.44443e-09 3.5634e-09 0)
(-3.4826e-09 3.72751e-09 0)
(-8.00926e-10 3.63001e-09 0)
(2.36928e-09 3.2198e-09 0)
(5.47406e-09 2.57292e-09 0)
(8.09629e-09 1.77891e-09 0)
(1.00517e-08 8.69886e-10 0)
(1.12699e-08 -1.57491e-10 0)
(1.16754e-08 -1.2787e-09 0)
(1.11682e-08 -2.4343e-09 0)
(9.7116e-09 -3.56542e-09 0)
(7.43048e-09 -4.64461e-09 0)
(4.6072e-09 -5.66197e-09 0)
(1.57658e-09 -6.59254e-09 0)
(-1.37355e-09 -7.38391e-09 0)
(-4.01725e-09 -7.98129e-09 0)
(-6.15491e-09 -8.35172e-09 0)
(-7.61929e-09 -8.4804e-09 0)
(-8.33749e-09 -8.36095e-09 0)
(-8.36129e-09 -7.99687e-09 0)
(-7.81566e-09 -7.41034e-09 0)
(-6.83222e-09 -6.64241e-09 0)
(-5.54285e-09 -5.73664e-09 0)
(-4.10519e-09 -4.72722e-09 0)
(-2.67885e-09 -3.65114e-09 0)
(-1.36303e-09 -2.55633e-09 0)
(-1.92612e-10 -1.48523e-09 0)
(7.99552e-10 -4.60908e-10 0)
(1.57144e-09 4.90819e-10 0)
(2.14539e-09 1.31608e-09 0)
(2.63299e-09 1.95192e-09 0)
(3.13258e-09 2.37713e-09 0)
(3.62214e-09 2.63085e-09 0)
(3.99093e-09 2.77233e-09 0)
(4.16064e-09 2.82687e-09 0)
(4.13514e-09 2.77558e-09 0)
(3.9342e-09 2.5914e-09 0)
(3.52341e-09 2.27638e-09 0)
(2.83447e-09 1.86756e-09 0)
(1.83619e-09 1.42075e-09 0)
(5.65442e-10 9.96611e-10 0)
(-8.96492e-10 6.54091e-10 0)
(-2.44612e-09 4.40738e-10 0)
(-3.94738e-09 3.78839e-10 0)
(-5.22174e-09 4.60101e-10 0)
(-6.07965e-09 6.5698e-10 0)
(-6.3836e-09 9.40482e-10 0)
(-6.09381e-09 1.28647e-09 0)
(-5.26561e-09 1.66511e-09 0)
(-4.01249e-09 2.02657e-09 0)
(-2.47073e-09 2.3006e-09 0)
(-7.84962e-10 2.41495e-09 0)
(8.93285e-10 2.32133e-09 0)
(2.41257e-09 2.012e-09 0)
(3.64162e-09 1.51912e-09 0)
(4.49432e-09 9.01381e-10 0)
(4.94394e-09 2.29843e-10 0)
(5.01568e-09 -4.19203e-10 0)
(4.76055e-09 -9.65156e-10 0)
(4.22638e-09 -1.32556e-09 0)
(3.44428e-09 -1.42638e-09 0)
(2.43755e-09 -1.21894e-09 0)
(1.24357e-09 -6.9516e-10 0)
(-6.86163e-11 1.07497e-10 0)
(-1.39632e-09 1.11428e-09 0)
(-2.61634e-09 2.23047e-09 0)
(-3.60521e-09 3.36044e-09 0)
(-4.2595e-09 4.42282e-09 0)
(-4.51014e-09 5.35748e-09 0)
(-4.32952e-09 6.1235e-09 0)
(-3.72564e-09 6.68841e-09 0)
(-2.73221e-09 7.01911e-09 0)
(-1.39102e-09 7.07978e-09 0)
(2.44055e-10 6.85202e-09 0)
(2.10051e-09 6.35387e-09 0)
(4.04195e-09 5.6635e-09 0)
(5.87207e-09 4.88802e-09 0)
(7.34338e-09 4.13709e-09 0)
(8.29384e-09 3.43919e-09 0)
(8.70316e-09 2.76007e-09 0)
(8.74891e-09 1.98912e-09 0)
(8.59321e-09 1.0948e-09 0)
(8.26591e-09 1.42406e-10 0)
(7.53707e-09 -6.41577e-10 0)
(6.18772e-09 -1.13235e-09 0)
(4.12296e-09 -1.26607e-09 0)
(1.83359e-09 -1.10586e-09 0)
(2.50909e-10 -5.22648e-10 0)
(5.87241e-12 -3.37064e-09 0)
(-8.72362e-10 -5.20489e-09 0)
(-1.65475e-09 -4.79976e-09 0)
(-2.8895e-09 -3.73887e-09 0)
(-5.02755e-09 -2.59138e-09 0)
(-6.18851e-09 -1.56056e-09 0)
(-6.05728e-09 -3.70949e-10 0)
(-6.72228e-09 1.1597e-09 0)
(-8.50448e-09 2.75229e-09 0)
(-9.35362e-09 4.05213e-09 0)
(-8.39945e-09 4.92031e-09 0)
(-6.71589e-09 5.48566e-09 0)
(-5.15136e-09 5.87201e-09 0)
(-3.42479e-09 6.04041e-09 0)
(-1.0958e-09 5.85521e-09 0)
(1.72265e-09 5.26562e-09 0)
(4.55405e-09 4.33773e-09 0)
(6.96806e-09 3.17174e-09 0)
(8.73759e-09 1.81481e-09 0)
(9.79203e-09 2.77997e-10 0)
(1.00957e-08 -1.40386e-09 0)
(9.57571e-09 -3.14368e-09 0)
(8.18159e-09 -4.83981e-09 0)
(6.00659e-09 -6.42076e-09 0)
(3.319e-09 -7.84862e-09 0)
(4.64728e-10 -9.08783e-09 0)
(-2.25656e-09 -1.00857e-08 0)
(-4.63008e-09 -1.0785e-08 0)
(-6.48261e-09 -1.11518e-08 0)
(-7.66411e-09 -1.11826e-08 0)
(-8.10729e-09 -1.08865e-08 0)
(-7.8746e-09 -1.02768e-08 0)
(-7.1109e-09 -9.38455e-09 0)
(-5.9604e-09 -8.26609e-09 0)
(-4.55124e-09 -6.9818e-09 0)
(-3.03508e-09 -5.58024e-09 0)
(-1.57367e-09 -4.11282e-09 0)
(-2.62394e-10 -2.64639e-09 0)
(8.83017e-10 -1.23763e-09 0)
(1.8405e-09 9.38278e-11 0)
(2.54398e-09 1.34188e-09 0)
(2.97704e-09 2.45864e-09 0)
(3.25061e-09 3.34402e-09 0)
(3.51712e-09 3.90599e-09 0)
(3.81641e-09 4.12779e-09 0)
(4.05186e-09 4.06762e-09 0)
(4.11283e-09 3.80095e-09 0)
(3.973e-09 3.37577e-09 0)
(3.65844e-09 2.81923e-09 0)
(3.16567e-09 2.16795e-09 0)
(2.45184e-09 1.4798e-09 0)
(1.49557e-09 8.23647e-10 0)
(3.37452e-10 2.70464e-10 0)
(-9.41036e-10 -1.06245e-10 0)
(-2.2521e-09 -2.3704e-10 0)
(-3.49909e-09 -8.08442e-11 0)
(-4.55275e-09 3.49056e-10 0)
(-5.2576e-09 9.82828e-10 0)
(-5.48344e-09 1.72045e-09 0)
(-5.18297e-09 2.46474e-09 0)
(-4.40916e-09 3.13601e-09 0)
(-3.28455e-09 3.66487e-09 0)
(-1.95237e-09 3.98103e-09 0)
(-5.43009e-10 4.01787e-09 0)
(8.33301e-10 3.73478e-09 0)
(2.08027e-09 3.14116e-09 0)
(3.11382e-09 2.30336e-09 0)
(3.87283e-09 1.3284e-09 0)
(4.33446e-09 3.35603e-10 0)
(4.51856e-09 -5.66144e-10 0)
(4.47137e-09 -1.2852e-09 0)
(4.23596e-09 -1.7423e-09 0)
(3.82932e-09 -1.86695e-09 0)
(3.24252e-09 -1.60442e-09 0)
(2.4634e-09 -9.31625e-10 0)
(1.50551e-09 1.28096e-10 0)
(4.25206e-10 1.50079e-09 0)
(-6.79621e-10 3.07112e-09 0)
(-1.68609e-09 4.70264e-09 0)
(-2.46995e-09 6.26377e-09 0)
(-2.93201e-09 7.65205e-09 0)
(-3.01802e-09 8.80554e-09 0)
(-2.72806e-09 9.69587e-09 0)
(-2.09967e-09 1.03024e-08 0)
(-1.183e-09 1.05909e-08 0)
(-5.74028e-12 1.05049e-08 0)
(1.40958e-09 9.99995e-09 0)
(3.01936e-09 9.07806e-09 0)
(4.67582e-09 7.84518e-09 0)
(6.15398e-09 6.47831e-09 0)
(7.1852e-09 5.18953e-09 0)
(7.65525e-09 4.0535e-09 0)
(7.6247e-09 2.99585e-09 0)
(7.36046e-09 1.80278e-09 0)
(7.01955e-09 4.65204e-10 0)
(6.50569e-09 -7.84653e-10 0)
(5.46933e-09 -1.63785e-09 0)
(3.80807e-09 -2.11334e-09 0)
(1.87989e-09 -2.12161e-09 0)
(3.21047e-10 -1.26336e-09 0)
(-1.07147e-10 -4.49462e-09 0)
(-9.15553e-10 -6.61849e-09 0)
(-1.05681e-09 -6.3872e-09 0)
(-1.80055e-09 -5.3247e-09 0)
(-3.85843e-09 -4.027e-09 0)
(-5.02653e-09 -2.71669e-09 0)
(-4.73408e-09 -1.32005e-09 0)
(-5.21113e-09 3.00891e-10 0)
(-7.01206e-09 2.12423e-09 0)
(-8.16007e-09 3.85287e-09 0)
(-7.604e-09 5.19565e-09 0)
(-6.24054e-09 6.0989e-09 0)
(-4.91414e-09 6.6899e-09 0)
(-3.47242e-09 6.99933e-09 0)
(-1.50821e-09 6.93707e-09 0)
(9.42793e-10 6.42871e-09 0)
(3.48326e-09 5.52027e-09 0)
(5.67944e-09 4.31472e-09 0)
(7.25865e-09 2.88369e-09 0)
(8.13722e-09 1.24573e-09 0)
(8.31778e-09 -5.72338e-10 0)
(7.76935e-09 -2.48923e-09 0)
(6.44145e-09 -4.38454e-09 0)
(4.39431e-09 -6.15504e-09 0)
(1.872e-09 -7.73837e-09 0)
(-7.78022e-10 -9.09306e-09 0)
(-3.24565e-09 -1.01722e-08 0)
(-5.32103e-09 -1.0924e-08 0)
(-6.85411e-09 -1.13141e-08 0)
(-7.71619e-09 -1.13404e-08 0)
(-7.84658e-09 -1.1019e-08 0)
(-7.31479e-09 -1.03664e-08 0)
(-6.28591e-09 -9.41038e-09 0)
(-4.9195e-09 -8.20481e-09 0)
(-3.33906e-09 -6.80934e-09 0)
(-1.69308e-09 -5.26667e-09 0)
(-1.59801e-10 -3.62181e-09 0)
(1.15478e-09 -1.94998e-09 0)
(2.26003e-09 -3.35465e-10 0)
(3.16962e-09 1.17978e-09 0)
(3.80849e-09 2.59807e-09 0)
(4.10023e-09 3.90133e-09 0)
(4.10824e-09 4.99603e-09 0)
(4.01116e-09 5.74403e-09 0)
(3.9344e-09 6.05065e-09 0)
(3.85632e-09 5.91654e-09 0)
(3.68544e-09 5.41248e-09 0)
(3.37682e-09 4.62474e-09 0)
(2.9426e-09 3.63255e-09 0)
(2.38653e-09 2.51974e-09 0)
(1.68119e-09 1.38399e-09 0)
(8.16149e-10 3.27336e-10 0)
(-1.61163e-10 -5.54192e-10 0)
(-1.1675e-09 -1.16798e-09 0)
(-2.13211e-09 -1.42389e-09 0)
(-3.00712e-09 -1.25602e-09 0)
(-3.73473e-09 -6.60972e-10 0)
(-4.22357e-09 2.79347e-10 0)
(-4.373e-09 1.41418e-09 0)
(-4.12851e-09 2.56997e-09 0)
(-3.5189e-09 3.59358e-09 0)
(-2.64551e-09 4.36873e-09 0)
(-1.63537e-09 4.80992e-09 0)
(-5.94098e-10 4.8559e-09 0)
(4.13348e-10 4.47936e-09 0)
(1.35145e-09 3.70812e-09 0)
(2.1915e-09 2.63788e-09 0)
(2.90055e-09 1.41999e-09 0)
(3.44997e-09 2.26029e-10 0)
(3.83145e-09 -7.91994e-10 0)
(4.06019e-09 -1.5254e-09 0)
(4.15711e-09 -1.90972e-09 0)
(4.12374e-09 -1.91242e-09 0)
(3.93161e-09 -1.52267e-09 0)
(3.53677e-09 -7.50802e-10 0)
(2.9095e-09 3.65326e-10 0)
(2.0607e-09 1.75394e-09 0)
(1.05305e-09 3.30859e-09 0)
(-2.85127e-12 4.89644e-09 0)
(-9.66026e-10 6.3782e-09 0)
(-1.69411e-09 7.6368e-09 0)
(-2.08307e-09 8.60515e-09 0)
(-2.09636e-09 9.27456e-09 0)
(-1.77179e-09 9.67888e-09 0)
(-1.18075e-09 9.85079e-09 0)
(-3.84466e-10 9.78589e-09 0)
(6.13708e-10 9.41857e-09 0)
(1.82677e-09 8.67294e-09 0)
(3.24247e-09 7.52551e-09 0)
(4.7044e-09 6.11893e-09 0)
(5.94903e-09 4.70418e-09 0)
(6.63911e-09 3.53207e-09 0)
(6.65865e-09 2.55863e-09 0)
(6.19946e-09 1.52734e-09 0)
(5.73615e-09 2.03392e-10 0)
(5.36137e-09 -1.16486e-09 0)
(4.67944e-09 -2.18248e-09 0)
(3.38529e-09 -2.77554e-09 0)
(1.8284e-09 -2.86545e-09 0)
(3.5227e-10 -1.84359e-09 0)
(-1.83751e-10 -5.09699e-09 0)
(-8.00044e-10 -7.31002e-09 0)
(-5.13813e-10 -6.87337e-09 0)
(-6.7463e-10 -5.79055e-09 0)
(-2.54023e-09 -4.42198e-09 0)
(-3.70578e-09 -2.96762e-09 0)
(-3.35452e-09 -1.5408e-09 0)
(-3.63896e-09 -1.59337e-11 0)
(-5.32749e-09 1.74047e-09 0)
(-6.65626e-09 3.55641e-09 0)
(-6.51514e-09 5.04703e-09 0)
(-5.54708e-09 6.07103e-09 0)
(-4.52032e-09 6.72407e-09 0)
(-3.37797e-09 7.08813e-09 0)
(-1.79414e-09 7.08863e-09 0)
(2.52645e-10 6.63503e-09 0)
(2.45823e-09 5.74384e-09 0)
(4.41343e-09 4.52878e-09 0)
(5.80006e-09 3.09103e-09 0)
(6.49954e-09 1.47088e-09 0)
(6.53684e-09 -3.14181e-10 0)
(5.93321e-09 -2.20153e-09 0)
(4.66104e-09 -4.07489e-09 0)
(2.75721e-09 -5.81189e-09 0)
(4.3026e-10 -7.32855e-09 0)
(-1.98603e-09 -8.57721e-09 0)
(-4.17725e-09 -9.52027e-09 0)
(-5.93613e-09 -1.01185e-08 0)
(-7.1343e-09 -1.03477e-08 0)
(-7.66765e-09 -1.02162e-08 0)
(-7.48361e-09 -9.75349e-09 0)
(-6.65375e-09 -8.98846e-09 0)
(-5.35878e-09 -7.95653e-09 0)
(-3.77433e-09 -6.71682e-09 0)
(-2.01845e-09 -5.33207e-09 0)
(-2.29586e-10 -3.83757e-09 0)
(1.39599e-09 -2.25669e-09 0)
(2.72131e-09 -6.48896e-10 0)
(3.76145e-09 8.90089e-10 0)
(4.57836e-09 2.29046e-09 0)
(5.12748e-09 3.55335e-09 0)
(5.29423e-09 4.70745e-09 0)
(5.06733e-09 5.72302e-09 0)
(4.59576e-09 6.48701e-09 0)
(4.05583e-09 6.86803e-09 0)
(3.51368e-09 6.79582e-09 0)
(2.94177e-09 6.28121e-09 0)
(2.3211e-09 5.38615e-09 0)
(1.67645e-09 4.19834e-09 0)
(1.02631e-09 2.83001e-09 0)
(3.50761e-10 1.41535e-09 0)
(-3.68208e-10 8.88245e-11 0)
(-1.09492e-09 -1.03602e-09 0)
(-1.75034e-09 -1.86436e-09 0)
(-2.27191e-09 -2.30506e-09 0)
(-2.65087e-09 -2.2758e-09 0)
(-2.90942e-09 -1.74067e-09 0)
(-3.05127e-09 -7.52518e-10 0)
(-3.04259e-09 5.39443e-10 0)
(-2.84174e-09 1.92832e-09 0)
(-2.44555e-09 3.20832e-09 0)
(-1.9078e-09 4.21669e-09 0)
(-1.3137e-09 4.84324e-09 0)
(-7.31389e-10 5.02127e-09 0)
(-1.78087e-10 4.72433e-09 0)
(3.75404e-10 3.97906e-09 0)
(9.68643e-10 2.88203e-09 0)
(1.614e-09 1.59872e-09 0)
(2.28523e-09 3.33771e-10 0)
(2.9348e-09 -7.16911e-10 0)
(3.51773e-09 -1.40882e-09 0)
(3.99866e-09 -1.6678e-09 0)
(4.33998e-09 -1.48413e-09 0)
(4.49002e-09 -8.93613e-10 0)
(4.3886e-09 4.14185e-11 0)
(3.98887e-09 1.24457e-09 0)
(3.28006e-09 2.63007e-09 0)
(2.30104e-09 4.10051e-09 0)
(1.14461e-09 5.54236e-09 0)
(-4.54947e-11 6.82815e-09 0)
(-1.09386e-09 7.83486e-09 0)
(-1.83258e-09 8.47634e-09 0)
(-2.15615e-09 8.73809e-09 0)
(-2.05382e-09 8.68672e-09 0)
(-1.60971e-09 8.44528e-09 0)
(-9.41206e-10 8.11809e-09 0)
(-1.41789e-10 7.72255e-09 0)
(7.93771e-10 7.14628e-09 0)
(1.92532e-09 6.24964e-09 0)
(3.30117e-09 4.99645e-09 0)
(4.73346e-09 3.61222e-09 0)
(5.80158e-09 2.41072e-09 0)
(6.0164e-09 1.55783e-09 0)
(5.42876e-09 7.89263e-10 0)
(4.65928e-09 -2.05705e-10 0)
(4.26039e-09 -1.43777e-09 0)
(3.81273e-09 -2.47788e-09 0)
(2.92055e-09 -3.18239e-09 0)
(1.70408e-09 -3.30877e-09 0)
(3.73869e-10 -2.19019e-09 0)
(-2.24196e-10 -4.88651e-09 0)
(-5.0964e-10 -7.06151e-09 0)
(3.41713e-10 -6.26815e-09 0)
(5.93748e-10 -5.07813e-09 0)
(-1.06509e-09 -3.63099e-09 0)
(-2.28248e-09 -2.08471e-09 0)
(-2.02168e-09 -6.57044e-10 0)
(-2.2351e-09 6.91121e-10 0)
(-3.78554e-09 2.22959e-09 0)
(-5.22334e-09 3.88098e-09 0)
(-5.46452e-09 5.28697e-09 0)
(-4.92744e-09 6.23016e-09 0)
(-4.23128e-09 6.7881e-09 0)
(-3.39867e-09 7.05259e-09 0)
(-2.19559e-09 6.97763e-09 0)
(-5.72313e-10 6.45387e-09 0)
(1.27443e-09 5.47393e-09 0)
(2.98893e-09 4.14737e-09 0)
(4.22121e-09 2.61061e-09 0)
(4.79968e-09 9.39404e-10 0)
(4.74742e-09 -8.37794e-10 0)
(4.13076e-09 -2.67307e-09 0)
(2.95901e-09 -4.46371e-09 0)
(1.26081e-09 -6.08319e-09 0)
(-7.92766e-10 -7.43037e-09 0)
(-2.89838e-09 -8.44862e-09 0)
(-4.75149e-09 -9.1082e-09 0)
(-6.15256e-09 -9.38763e-09 0)
(-6.9961e-09 -9.2821e-09 0)
(-7.20477e-09 -8.82138e-09 0)
(-6.73624e-09 -8.05879e-09 0)
(-5.66425e-09 -7.04543e-09 0)
(-4.18314e-09 -5.83656e-09 0)
(-2.47934e-09 -4.51213e-09 0)
(-6.52566e-10 -3.15496e-09 0)
(1.18756e-09 -1.80316e-09 0)
(2.83785e-09 -4.53589e-10 0)
(4.11912e-09 8.75001e-10 0)
(5.02952e-09 2.10398e-09 0)
(5.67869e-09 3.14513e-09 0)
(6.08914e-09 3.98092e-09 0)
(6.15273e-09 4.66907e-09 0)
(5.79012e-09 5.25984e-09 0)
(5.07719e-09 5.72455e-09 0)
(4.18081e-09 5.96923e-09 0)
(3.2201e-09 5.902e-09 0)
(2.23454e-09 5.47862e-09 0)
(1.25532e-09 4.70426e-09 0)
(3.45173e-10 3.62601e-09 0)
(-4.44508e-10 2.33716e-09 0)
(-1.11706e-09 9.73779e-10 0)
(-1.70141e-09 -3.16097e-10 0)
(-2.1878e-09 -1.41128e-09 0)
(-2.51391e-09 -2.22839e-09 0)
(-2.6209e-09 -2.70054e-09 0)
(-2.51658e-09 -2.75902e-09 0)
(-2.27977e-09 -2.35085e-09 0)
(-2.00633e-09 -1.48461e-09 0)
(-1.75192e-09 -2.63499e-10 0)
(-1.52024e-09 1.12735e-09 0)
(-1.2966e-09 2.47353e-09 0)
(-1.08628e-09 3.58873e-09 0)
(-9.18828e-10 4.34488e-09 0)
(-8.14314e-10 4.6707e-09 0)
(-7.42797e-10 4.53945e-09 0)
(-6.16017e-10 3.96799e-09 0)
(-3.24191e-10 3.03003e-09 0)
(2.06316e-10 1.86668e-09 0)
(9.74999e-10 6.74182e-10 0)
(1.91094e-09 -3.34808e-10 0)
(2.90549e-09 -9.80678e-10 0)
(3.84353e-09 -1.15461e-09 0)
(4.61614e-09 -8.31732e-10 0)
(5.12291e-09 -6.09144e-11 0)
(5.27981e-09 1.05949e-09 0)
(5.03442e-09 2.40997e-09 0)
(4.37766e-09 3.87317e-09 0)
(3.34603e-09 5.34459e-09 0)
(2.02251e-09 6.72759e-09 0)
(5.41984e-10 7.9203e-09 0)
(-9.06957e-10 8.80927e-09 0)
(-2.10616e-09 9.2871e-09 0)
(-2.85847e-09 9.2935e-09 0)
(-3.0569e-09 8.86653e-09 0)
(-2.72479e-09 8.15607e-09 0)
(-2.02302e-09 7.37805e-09 0)
(-1.16207e-09 6.68377e-09 0)
(-2.88755e-10 6.05831e-09 0)
(6.62114e-10 5.29891e-09 0)
(1.87884e-09 4.22567e-09 0)
(3.43447e-09 2.86737e-09 0)
(4.89224e-09 1.55558e-09 0)
(5.52707e-09 5.64056e-10 0)
(4.99711e-09 -1.20348e-10 0)
(3.9906e-09 -8.43965e-10 0)
(3.34718e-09 -1.75559e-09 0)
(2.95366e-09 -2.72867e-09 0)
(2.39178e-09 -3.46491e-09 0)
(1.59661e-09 -3.61851e-09 0)
(4.18943e-10 -2.37047e-09 0)
(-2.33336e-10 -4.80246e-09 0)
(-1.72371e-10 -6.8276e-09 0)
(1.35343e-09 -6.067e-09 0)
(1.9705e-09 -4.92669e-09 0)
(5.09843e-10 -3.53346e-09 0)
(-7.88769e-10 -1.94498e-09 0)
(-7.37348e-10 -5.20527e-10 0)
(-9.81268e-10 7.46778e-10 0)
(-2.41744e-09 2.15159e-09 0)
(-3.9145e-09 3.72895e-09 0)
(-4.50436e-09 5.13489e-09 0)
(-4.39015e-09 6.13496e-09 0)
(-4.03261e-09 6.75715e-09 0)
(-3.49639e-09 7.1071e-09 0)
(-2.66064e-09 7.15173e-09 0)
(-1.46709e-09 6.77644e-09 0)
(-6.59187e-12 5.93147e-09 0)
(1.45226e-09 4.70206e-09 0)
(2.55289e-09 3.23531e-09 0)
(3.0662e-09 1.64414e-09 0)
(2.98661e-09 -1.97488e-11 0)
(2.40828e-09 -1.71137e-09 0)
(1.38119e-09 -3.34418e-09 0)
(-5.94279e-11 -4.79774e-09 0)
(-1.77461e-09 -5.96234e-09 0)
(-3.50115e-09 -6.77088e-09 0)
(-4.95876e-09 -7.19474e-09 0)
(-5.96381e-09 -7.22447e-09 0)
(-6.43792e-09 -6.87143e-09 0)
(-6.33388e-09 -6.18378e-09 0)
(-5.6193e-09 -5.23393e-09 0)
(-4.36664e-09 -4.08691e-09 0)
(-2.78456e-09 -2.80495e-09 0)
(-1.07541e-09 -1.47873e-09 0)
(6.85199e-10 -2.14011e-10 0)
(2.44531e-09 9.32093e-10 0)
(4.02837e-09 1.97894e-09 0)
(5.21592e-09 2.96039e-09 0)
(5.95381e-09 3.84399e-09 0)
(6.3652e-09 4.53725e-09 0)
(6.55143e-09 4.97767e-09 0)
(6.4656e-09 5.19206e-09 0)
(6.00984e-09 5.25753e-09 0)
(5.18847e-09 5.21984e-09 0)
(4.11403e-09 5.06094e-09 0)
(2.90169e-09 4.72839e-09 0)
(1.6203e-09 4.17381e-09 0)
(3.41665e-10 3.36865e-09 0)
(-8.2149e-10 2.31554e-09 0)
(-1.7616e-09 1.07116e-09 0)
(-2.44348e-09 -2.42397e-10 0)
(-2.89954e-09 -1.46672e-09 0)
(-3.15826e-09 -2.46346e-09 0)
(-3.19462e-09 -3.15076e-09 0)
(-2.96074e-09 -3.49226e-09 0)
(-2.46209e-09 -3.46208e-09 0)
(-1.79892e-09 -3.03203e-09 0)
(-1.13202e-09 -2.19983e-09 0)
(-6.05097e-10 -1.03131e-09 0)
(-2.88508e-10 3.26009e-10 0)
(-1.80577e-10 1.67582e-09 0)
(-2.48687e-10 2.8313e-09 0)
(-4.62602e-10 3.66109e-09 0)
(-7.88539e-10 4.10066e-09 0)
(-1.15512e-09 4.13664e-09 0)
(-1.43251e-09 3.78949e-09 0)
(-1.45714e-09 3.11254e-09 0)
(-1.09486e-09 2.20381e-09 0)
(-3.01401e-10 1.21139e-09 0)
(8.57921e-10 3.16547e-10 0)
(2.23336e-09 -3.03734e-10 0)
(3.63418e-09 -5.1861e-10 0)
(4.86484e-09 -2.72334e-10 0)
(5.75046e-09 4.08167e-10 0)
(6.16047e-09 1.42669e-09 0)
(6.02945e-09 2.64697e-09 0)
(5.36239e-09 3.92937e-09 0)
(4.22025e-09 5.16186e-09 0)
(2.70051e-09 6.27153e-09 0)
(9.33518e-10 7.20958e-09 0)
(-9.06241e-10 7.92028e-09 0)
(-2.59091e-09 8.3188e-09 0)
(-3.86174e-09 8.30979e-09 0)
(-4.48704e-09 7.84907e-09 0)
(-4.36344e-09 7.0218e-09 0)
(-3.59451e-09 6.04974e-09 0)
(-2.49939e-09 5.19835e-09 0)
(-1.42067e-09 4.57974e-09 0)
(-4.7364e-10 4.06115e-09 0)
(6.11568e-10 3.33687e-09 0)
(2.12569e-09 2.25768e-09 0)
(3.86229e-09 9.6598e-10 0)
(4.93359e-09 -1.7149e-10 0)
(4.71648e-09 -9.96281e-10 0)
(3.64037e-09 -1.60914e-09 0)
(2.73384e-09 -2.29532e-09 0)
(2.18301e-09 -3.13405e-09 0)
(1.90507e-09 -3.86344e-09 0)
(1.57252e-09 -3.95877e-09 0)
(5.25334e-10 -2.55209e-09 0)
(-2.75486e-10 -4.98532e-09 0)
(1.08485e-10 -6.85617e-09 0)
(2.08854e-09 -6.41566e-09 0)
(3.15419e-09 -5.60959e-09 0)
(2.00548e-09 -4.48307e-09 0)
(7.17595e-10 -3.0335e-09 0)
(5.62391e-10 -1.67985e-09 0)
(2.632e-10 -4.97757e-10 0)
(-1.02726e-09 8.35805e-10 0)
(-2.5037e-09 2.39945e-09 0)
(-3.34912e-09 3.91518e-09 0)
(-3.60938e-09 5.11575e-09 0)
(-3.55971e-09 5.99513e-09 0)
(-3.28548e-09 6.64163e-09 0)
(-2.77289e-09 7.04949e-09 0)
(-1.99334e-09 7.10035e-09 0)
(-9.46317e-10 6.7054e-09 0)
(2.04698e-10 5.89466e-09 0)
(1.13464e-09 4.79421e-09 0)
(1.57316e-09 3.53188e-09 0)
(1.47344e-09 2.18657e-09 0)
(9.34773e-10 8.11728e-10 0)
(4.08983e-11 -5.17107e-10 0)
(-1.15712e-09 -1.69319e-09 0)
(-2.54179e-09 -2.60965e-09 0)
(-3.89086e-09 -3.1952e-09 0)
(-4.95718e-09 -3.42057e-09 0)
(-5.58072e-09 -3.28356e-09 0)
(-5.71302e-09 -2.80823e-09 0)
(-5.33705e-09 -2.05787e-09 0)
(-4.42654e-09 -1.11854e-09 0)
(-3.04419e-09 -5.83137e-11 0)
(-1.40903e-09 1.07392e-09 0)
(2.49939e-10 2.20466e-09 0)
(1.86755e-09 3.22519e-09 0)
(3.46022e-09 4.05708e-09 0)
(4.91657e-09 4.71724e-09 0)
(6.00638e-09 5.28644e-09 0)
(6.60209e-09 5.8036e-09 0)
(6.78378e-09 6.21222e-09 0)
(6.6936e-09 6.41731e-09 0)
(6.36324e-09 6.37434e-09 0)
(5.7323e-09 6.10864e-09 0)
(4.78143e-09 5.66745e-09 0)
(3.57899e-09 5.07671e-09 0)
(2.21338e-09 4.33924e-09 0)
(7.47464e-10 3.44756e-09 0)
(-7.36986e-10 2.38709e-09 0)
(-2.09241e-09 1.14625e-09 0)
(-3.14824e-09 -2.48309e-10 0)
(-3.80629e-09 -1.69605e-09 0)
(-4.07936e-09 -3.03126e-09 0)
(-4.03437e-09 -4.08307e-09 0)
(-3.71108e-09 -4.74022e-09 0)
(-3.10684e-09 -4.9697e-09 0)
(-2.2379e-09 -4.78574e-09 0)
(-1.20711e-09 -4.21179e-09 0)
(-2.04834e-10 -3.27631e-09 0)
(5.62999e-10 -2.04189e-09 0)
(9.61773e-10 -6.31977e-10 0)
(9.66571e-10 7.78591e-10 0)
(6.36915e-10 2.00992e-09 0)
(6.54382e-11 2.93031e-09 0)
(-6.49958e-10 3.48298e-09 0)
(-1.3944e-09 3.67625e-09 0)
(-2.01309e-09 3.55404e-09 0)
(-2.3189e-09 3.17339e-09 0)
(-2.14383e-09 2.60211e-09 0)
(-1.40561e-09 1.92883e-09 0)
(-1.46732e-10 1.26716e-09 0)
(1.47343e-09 7.42684e-10 0)
(3.21835e-09 4.66264e-10 0)
(4.82134e-09 5.05395e-10 0)
(6.03026e-09 8.64549e-10 0)
(6.65204e-09 1.48061e-09 0)
(6.59134e-09 2.23691e-09 0)
(5.86412e-09 2.99651e-09 0)
(4.57497e-09 3.64705e-09 0)
(2.87226e-09 4.13781e-09 0)
(9.11295e-10 4.48503e-09 0)
(-1.15034e-09 4.73363e-09 0)
(-3.12753e-09 4.89508e-09 0)
(-4.77318e-09 4.90632e-09 0)
(-5.78958e-09 4.66242e-09 0)
(-5.92124e-09 4.11587e-09 0)
(-5.13871e-09 3.38155e-09 0)
(-3.75169e-09 2.71175e-09 0)
(-2.30543e-09 2.33386e-09 0)
(-1.15575e-09 2.21519e-09 0)
(-1.52599e-10 2.06178e-09 0)
(1.19948e-09 1.52632e-09 0)
(2.93396e-09 5.70301e-10 0)
(4.29164e-09 -5.58719e-10 0)
(4.39874e-09 -1.50455e-09 0)
(3.43943e-09 -2.1925e-09 0)
(2.28341e-09 -2.80291e-09 0)
(1.5222e-09 -3.62489e-09 0)
(1.48763e-09 -4.35447e-09 0)
(1.65707e-09 -4.399e-09 0)
(6.71197e-10 -2.84158e-09 0)
(-3.67334e-10 -4.62993e-09 0)
(2.5269e-10 -6.35173e-09 0)
(2.40362e-09 -6.14036e-09 0)
(3.90757e-09 -5.74292e-09 0)
(3.17517e-09 -5.03658e-09 0)
(2.02385e-09 -3.93516e-09 0)
(1.7298e-09 -2.86653e-09 0)
(1.4093e-09 -1.93713e-09 0)
(3.09579e-10 -8.59511e-10 0)
(-1.04198e-09 5.04728e-10 0)
(-2.0224e-09 1.93118e-09 0)
(-2.55842e-09 3.17059e-09 0)
(-2.7544e-09 4.16651e-09 0)
(-2.67273e-09 4.99609e-09 0)
(-2.4018e-09 5.67141e-09 0)
(-1.968e-09 6.0972e-09 0)
(-1.31808e-09 6.15771e-09 0)
(-5.0858e-10 5.8274e-09 0)
(1.97988e-10 5.18395e-09 0)
(5.22937e-10 4.34568e-09 0)
(3.83864e-10 3.40854e-09 0)
(-1.29981e-10 2.44307e-09 0)
(-9.16586e-10 1.52392e-09 0)
(-1.91019e-09 7.44606e-10 0)
(-3.00779e-09 1.98882e-10 0)
(-4.02401e-09 -5.01802e-11 0)
(-4.74764e-09 1.93313e-11 0)
(-5.04816e-09 3.98555e-10 0)
(-4.91227e-09 1.04669e-09 0)
(-4.35422e-09 1.8772e-09 0)
(-3.34569e-09 2.77885e-09 0)
(-1.9211e-09 3.67126e-09 0)
(-2.93609e-10 4.52278e-09 0)
(1.27563e-09 5.29917e-09 0)
(2.70712e-09 5.91849e-09 0)
(4.07553e-09 6.2945e-09 0)
(5.36449e-09 6.4296e-09 0)
(6.37839e-09 6.43354e-09 0)
(6.92654e-09 6.42905e-09 0)
(6.99878e-09 6.44891e-09 0)
(6.70882e-09 6.43147e-09 0)
(6.13033e-09 6.29288e-09 0)
(5.25732e-09 5.98253e-09 0)
(4.09463e-09 5.48334e-09 0)
(2.71021e-09 4.79428e-09 0)
(1.18546e-09 3.92737e-09 0)
(-4.28548e-10 2.90486e-09 0)
(-2.06451e-09 1.74025e-09 0)
(-3.56894e-09 4.26761e-10 0)
(-4.72252e-09 -1.03462e-09 0)
(-5.35136e-09 -2.58145e-09 0)
(-5.41784e-09 -4.06595e-09 0)
(-5.00514e-09 -5.29547e-09 0)
(-4.22636e-09 -6.11024e-09 0)
(-3.15933e-09 -6.43703e-09 0)
(-1.86627e-09 -6.2848e-09 0)
(-4.61959e-10 -5.70317e-09 0)
(8.53323e-10 -4.75062e-09 0)
(1.84052e-09 -3.49849e-09 0)
(2.31671e-09 -2.05501e-09 0)
(2.22681e-09 -5.74088e-10 0)
(1.64626e-09 7.71643e-10 0)
(7.28155e-10 1.84143e-09 0)
(-3.53951e-10 2.56775e-09 0)
(-1.42823e-09 2.96287e-09 0)
(-2.31637e-09 3.09111e-09 0)
(-2.83115e-09 3.03008e-09 0)
(-2.80702e-09 2.84583e-09 0)
(-2.15417e-09 2.5905e-09 0)
(-9.01088e-10 2.31245e-09 0)
(7.99711e-10 2.06373e-09 0)
(2.69947e-09 1.8973e-09 0)
(4.49647e-09 1.85571e-09 0)
(5.88555e-09 1.95546e-09 0)
(6.61546e-09 2.17171e-09 0)
(6.54758e-09 2.43048e-09 0)
(5.69219e-09 2.62073e-09 0)
(4.1979e-09 2.63345e-09 0)
(2.29304e-09 2.41766e-09 0)
(2.07034e-10 2.02076e-09 0)
(-1.88552e-09 1.57677e-09 0)
(-3.85766e-09 1.23025e-09 0)
(-5.55819e-09 1.03675e-09 0)
(-6.72844e-09 9.14659e-10 0)
(-7.03386e-09 7.17151e-10 0)
(-6.26582e-09 3.83967e-10 0)
(-4.6242e-09 5.54575e-11 0)
(-2.73289e-09 -2.5604e-11 0)
(-1.23841e-09 2.47451e-10 0)
(-2.0223e-10 6.3946e-10 0)
(8.8769e-10 7.37015e-10 0)
(2.37787e-09 2.60479e-10 0)
(3.71907e-09 -6.52559e-10 0)
(4.04918e-09 -1.63675e-09 0)
(3.20491e-09 -2.3841e-09 0)
(1.84793e-09 -3.05195e-09 0)
(8.34443e-10 -3.9258e-09 0)
(1.08518e-09 -4.75618e-09 0)
(1.72992e-09 -4.83206e-09 0)
(7.9811e-10 -3.22542e-09 0)
(-4.64922e-10 -3.6921e-09 0)
(2.30655e-10 -5.21792e-09 0)
(2.4648e-09 -5.03356e-09 0)
(4.2342e-09 -4.91202e-09 0)
(3.88934e-09 -4.59644e-09 0)
(2.91202e-09 -3.92648e-09 0)
(2.52716e-09 -3.24719e-09 0)
(2.19351e-09 -2.70008e-09 0)
(1.30048e-09 -2.02459e-09 0)
(1.40106e-10 -1.06622e-09 0)
(-8.55148e-10 4.38714e-11 0)
(-1.56071e-09 1.08141e-09 0)
(-1.92177e-09 1.96718e-09 0)
(-1.95516e-09 2.74588e-09 0)