/*--------------------------------*- C++ -*----------------------------------*\
| =========                 |                                                 |
| \\      /  F ield         | OpenFOAM: The Open Source CFD Toolbox           |
|  \\    /   O peration     | Version:  2406                                  |
|   \\  /    A nd           | Website:  www.openfoam.com                      |
|    \\/     M anipulation  |                                                 |
\*---------------------------------------------------------------------------*/
FoamFile
{
    version     2.0;
    format      ascii;
    arch        "LSB;label=32;scalar=64";
    class       volScalarField;
    location    "1";
    object      alpha.grout;
}
// * * * * * * * * * * * * * * * * * * * * * * * * * * * * * * * * * * * * * //

dimensions      [0 0 0 0 0 0 0];

internalField   nonuniform List<scalar> 
10000
(
1
1
1
1
1
1
1
1
1
1
1
1
1
1
1
1
1
1
1
1
1
1
1
1
1
1
1
1
1
1
1
1
1
1
1
1
1
1
1
1
1
1
1
1
1
1
1
1
1
1
1
1
1
1
1
1
1
1
1
1
1
1
1
1
1
1
1
1
1
1
1
1
1
1
1
1
1
1
1
1
1
1
1
1
1
1
1
1
1
1
1
1
1
1
1
1
1
1
1
1
1
1
1
1
1
1
1
1
1
1
1
1
1
1
1
1
1
1
1
1
1
1
1
1
1
1
1
1
1
1
1
1
1
1
1
1
1
1
1
1
1
1
1
1
1
1
1
1
1
1
1
1
1
1
1
1
1
1
1
1
1
1
1
1
1
1
1
1
1
1
1
1
1
1
1
1
1
1
1
1
1
1
1
1
1
1
1
1
1
1
1
1
1
1
1
1
1
1
1
1
1
1
1
1
1
1
1
1
1
1
1
1
1
1
1
1
1
1
1
1
1
1
1
1
1
1
1
1
1
1
1
1
1
1
1
1
1
1
1
1
1
1
1
1
1
1
1
1
1
1
1
1
1
1
1
1
1
1
1
1
1
1
1
1
1
1
1
1
1
1
1
1
1
1
1
1
1
1
1
1
1
1
1
1
1
1
1
1
1
1
1
1
1
1
1
1
1
1
1
1
1
1
1
1
1
1
1
1
1
1
1
1
1
1
1
1
1
1
1
1
1
1
1
1
1
1
1
1
1
1
1
1
1
1
1
1
1
1
1
1
1
1
1
1
1
1
1
1
1
1
1
1
1
1
1
1
1
1
1
1
1
1
1
1
1
1
1
1
1
1
1
1
1
1
1
1
1
1
1
1
1
1
1
1
1
1
1
1
1
1
1
1
1
1
1
1
1
1
1
1
1
1
1
1
1
1
1
1
1
1
1
1
1
1
1
1
1
1
1
1
1
1
1
1
1
1
1
1
1
1
1
1
1
1
1
1
1
1
1
1
1
1
1
1
1
1
1
1
1
1
1
1
1
1
1
1
1
1
1
1
1
1
1
1
1
1
1
1
1
1
1
1
1
1
1
1
1
1
1
1
1
1
1
1
1
1
1
1
1
1
1
1
1
1
1
1
1
1
1
1
1
1
1
1
1
1
1
1
1
1
1
1
1
1
1
1
1
1
1
1
1
1
1
1
1
1
1
1
1
1
1
1
1
1
1
1
1
1
1
1
1
1
1
1
1
1
1
1
1
1
1
1
1
1
1
1
1
1
1
1
1
1
1
1
1
1
1
1
1
1
1
1
1
1
1
1
1
1
1
1
1
1
1
1
1
1
1
1
1
1
1
1
1
1
1
1
1
1
1
1
1
1
1
1
1
1
1
1
1
1
1
1
1
1
1
1
1
1
1
1
1
1
1
1
1
1
1
1
1
1
1
1
1
1
1
1
1
1
1
1
1
1
1
1
1
1
1
1
1
1
1
1
1
1
1
1
1
1
1
1
1
1
1
1
1
1
1
1
1
1
1
1
1
1
1
1
1
1
1
1
1
1
1
1
1
1
1
1
1
1
1
1
1
1
1
1
1
1
1
1
1
1
1
1
1
1
1
1
1
1
1
1
1
1
1
1
1
1
1
1
1
1
1
1
1
1
1
1
1
1
1
1
1
1
1
1
1
1
1
1
1
1
1
1
1
1
1
1
1
1
1
1
1
1
1
1
1
1
1
1
1
1
1
1
1
1
1
1
1
1
1
1
1
1
1
1
1
1
1
1
1
1
1
1
1
1
1
1
1
1
1
1
1
1
1
1
1
1
1
1
1
1
1
1
1
1
1
1
1
1
1
1
1
1
1
1
1
1
1
1
1
1
1
1
1
1
1
1
1
1
1
1
1
1
1
1
1
1
1
1
1
1
1
1
1
1
1
1
1
1
1
1
1
1
1
1
1
1
1
1
1
1
1
1
1
1
1
1
1
1
1
1
1
1
1
1
1
1
1
1
1
1
1
1
1
1
1
1
1
1
1
1
1
1
1
1
1
1
1
1
1
1
1
1
1
1
1
1
1
1
1
1
1
1
1
1
1
1
1
1
1
1
1
1
1
1
1
1
1
1
1
1
1
1
1
1
1
1
1
1
1
1
1
1
1
1
1
1
1
1
1
1
1
1
1
1
1
1
1
1
1
1
1
1
1
1
1
1
1
1
1
1
1
1
1
1
1
1
1
1
1
1
1
1
1
1
1
1
1
1
1
1
1
1
1
1
1
1
1
1
1
1
1
1
1
1
1
1
1
1
1
1
1
1
1
1
1
1
1
1
1
1
1
1
1
1
1
1
1
1
1
1
1
1
1
1
1
1
1
1
1
1
1
1
1
1
1
1
1
1
1
1
1
1
1
1
1
1
1
1
1
1
1
1
1
1
1
1
1
1
1
1
1
1
1
1
1
1
1
1
1
1
1
1
1
1
1
1
1
1
1
1
1
1
1
1
1
1
1
1
1
1
1
1
1
1
1
1
1
1
1
1
1
1
1
1
1
1
1
1
1
1
1
1
1
1
1
1
1
1
1
1
1
1
1
1
1
1
1
1
1
1
1
1
1
1
1
1
1
1
1
1
1
1
1
1
1
1
1
1
1
1
1
1
1
1
1
1
1
1
1
1
1
1
1
1
1
1
1
1
1
1
1
1
1
1
1
1
1
1
1
1
1
1
1
1
1
1
1
1
1
1
1
1
1
1
1
1
1
1
1
1
1
1
1
1
1
1
1
1
1
1
1
1
1
1
1
1
1
1
1
1
1
1
1
1
1
1
1
1
1
1
1
1
1
1
1
1
1
1
1
1
1
1
1
1
1
1
1
1
1
1
1
1
1
1
1
1
1
1
1
1
1
1
1
1
1
1
1
1
1
1
1
1
1
1
1
1
1
1
1
1
1
1
1
1
1
1
1
1
1
1
1
1
1
1
1
1
1
1
1
1
1
1
1
1
1
1
1
1
1
1
1
1
1
1
1
1
1
1
1
1
1
1
1
1
1
1
1
1
1
1
1
1
1
1
1
1
1
1
1
1
1
1
1
1
1
1
1
1
1
1
1
1
1
1
1
1
1
1
1
1
1
1
1
1
1
1
1
1
1
1
1
1
1
1
1
1
1
1
1
1
1
1
1
1
1
1
1
1
1
1
1
1
1
1
1
1
1
1
1
1
1
1
1
1
1
1
1
1
1
1
1
1
1
1
1
1
1
1
1
1
1
1
1
1
1
1
1
1
1
1
1
1
1
1
1
1
1
1
1
1
1
1
1
1
1
1
1
1
1
1
1
1
1
1
1
1
1
1
1
1
1
1
1
1
1
1
1
1
1
1
1
1
1
1
1
1
1
1
1
1
1
1
1
1
1
1
1
1
1
1
1
1
1
1
1
1
1
1
1
1
1
1
1
1
1
1
1
1
1
1
1
1
1
1
1
1
1
1
1
1
1
1
1
1
1
1
1
1
1
1
1
1
1
1
1
1
1
1
1
1
1
1
1
1
1
1
1
1
1
1
1
1
1
1
1
1
1
1
1
1
1
1
1
1
1
1
1
1
1
1
1
1
1
1
1
1
1
1
1
1
1
1
1
1
1
1
1
1
1
1
1
1
1
1
1
1
1
1
1
1
1
1
1
1
1
1
1
1
1
1
1
1
1
1
1
1
1
1
1
1
1
1
1
1
1
1
1
1
1
1
1
1
1
1
1
1
1
1
1
1
1
1
1
1
1
1
1
1
1
1
1
1
1
1
1
1
1
1
1
1
1
1
1
1
1
1
1
1
1
1
1
1
1
1
1
1
1
1
1
1
1
1
1
1
1
1
1
1
1
1
1
1
1
1
1
1
1
1
1
1
1
1
1
1
1
1
1
1
1
1
1
1
1
1
1
1
1
1
1
1
1
1
1
1
1
1
1
1
1
1
1
1
1
1
1
1
1
1
1
1
1
1
1
1
1
1
1
1
1
1
1
1
1
1
1
1
1
1
1
1
1
1
1
1
1
1
1
1
1
1
1
1
1
1
1
1
1
1
1
1
1
1
1
1
1
1
1
1
1
1
1
1
1
1
1
1
1
1
1
1
1
1
1
1
1
1
1
1
1
1
1
1
1
1
1
1
1
1
1
1
1
1
1
1
1
1
1
1
1
1
1
1
1
1
1
1
1
1
1
1
1
1
1
1
1
1
1
1
1
1
1
1
1
1
1
1
1
1
1
1
1
1
1
1
1
1
1
1
1
1
1
1
1
1
1
1
1
1
1
1
1
1
1
1
1
1
1
1
1
1
1
1
1
1
1
1
1
1
1
1
1
1
1
1
1
1
1
1
1
1
1
1
1
1
1
1
1
1
1
1
1
1
1
1
1
1
1
1
1
1
1
1
1
1
1
1
1
1
1
1
1
1
1
1
1
1
1
1
1
1
1
1
1
1
1
1
1
1
1
1
1
1
1
1
1
1
1
1
1
1
1
1
1
1
1
1
1
1
1
1
1
1
1
1
1
1
1
1
1
1
1
1
1
1
1
1
1
1
1
1
1
1
1
1
1
1
1
1
1
1
1
1
1
1
1
1
1
1
1
1
1
1
1
1
1
1
1
1
1
1
1
1
1
1
1
1
1
1
1
1
1
1
1
1
1
1
1
1
1
1
1
1
1
1
1
1
1
1
1
1
1
1
1
1
1
1
1
1
1
1
1
1
1
1
1
1
1
1
1
1
1
1
1
1
1
1
1
1
1
1
1
1
1
1
1
1
1
1
1
1
1
1
1
1
1
1
1
1
1
1
1
1
1
1
1
1
1
1
1
1
1
1
1
1
1
1
1
1
1
1
1
1
1
1
1
1
1
1
1
1
1
1
1
1
1
1
1
1
1
1
1
1
1
1
1
1
1
1
1
1
1
1
1
1
1
1
1
1
1
1
1
1
1
1
1
1
1
1
1
1
1
1
1
1
1
1
1
1
1
1
1
1
1
1
1
1
1
1
1
1
1
1
1
1
1
1
1
1
1
1
1
1
1
1
1
1
1
1
1
1
1
1
1
1
1
1
1
1
1
1
1
1
1
1
1
1
1
1
1
1
1
1
1
1
1
1
1
1
1
1
1
1
1
1
1
1
1
1
1
1
1
1
1
1
1
1
1
1
1
1
1
1
1
1
1
1
1
1
1
1
1
1
1
1
1
1
1
1
1
1
1
1
1
1
1
1
1
1
1
1
1
1
1
1
1
1
1
1
1
1
1
1
1
1
1
1
1
1
1
1
1
1
1
1
1
1
1
1
1
1
1
1
1
1
1
1
1
1
1
1
1
1
1
1
1
1
1
1
1
1
1
1
1
1
1
1
1
1
1
1
1
1
1
1
1
1
1
1
1
1
1
1
1
1
1
1
1
1
1
1
1
1
1
1
1
1
1
1
1
1
1
1
1
1
1
1
1
1
1
1
1
1
1
1
1
1
1
1
1
1
1
1
1
1
1
1
1
1
1
1
1
1
1
1
1
1
1
1
1
1
1
1
1
1
1
1
1
1
1
1
1
1
1
1
1
1
1
1
1
1
1
1
1
1
1
1
1
1
1
1
1
1
1
1
1
1
1
1
1
1
1
1
1
1
1
1
1
1
1
1
1
1
1
1
1
1
1
1
1
1
1
1
1
1
1
1
1
1
1
1
1
1
1
1
1
1
1
1
1
1
1
1
1
1
1
1
1
1
1
1
1
1
1
1
1
1
1
1
1
1
1
1
1
1
1
1
1
1
1
1
1
1
1
1
1
1
1
1
1
1
1
1
1
1
1
1
1
1
1
1
1
1
1
1
1
1
1
1
1
1
1
1
1
1
1
1
1
1
1
1
1
1
1
1
1
1
1
1
1
1
1
1
1
1
1
1
1
1
1
1
1
1
1
1
1
1
1
1
1
1
1
1
1
1
1
1
1
1
1
1
1
1
1
1
1
1
1
1
1
1
1
1
1
1
1
1
1
1
1
1
1
1
1
1
1
1
1
1
1
1
1
1
1
1
1
1
1
1
1
1
1
1
1
1
1
1
1
1
1
1
1
1
1
1
1
1
1
1
1
1
1
1
1
1
1
1
1
1
1
1
1
1
1
1
1
1
1
1
1
1
1
1
1
1
1
1
1
1
1
1
1
1
1
1
1
1
1
1
1
1
1
1
1
1
1
1
1
1
1
1
1
1
1
1
1
1
1
1
1
1
1
1
1
1
1
1
1
1
1
1
1
1
1
1
1
1
1
1
1
1
1
1
1
1
1
1
1
1
1
1
1
1
1
1
1
1
1
1
1
1
1
1
1
1
1
1
1
1
1
1
1
1
1
1
1
1
1
1
1
1
1
1
1
1
1
1
1
1
1
1
1
1
1
1
1
1
1
1
1
1
1
1
1
1
1
1
1
1
1
1
1
1
1
1
1
1
1
1
1
1
1
1
1
1
1
1
1
1
1
1
1
1
1
1
1
1
1
1
1
1
1
1
1
1
1
1
1
1
1
1
1
1
1
1
1
1
1
1
1
1
1
1
1
1
1
1
1
1
1
1
1
1
1
1
1
1
1
1
1
1
1
1
1
1
1
1
1
1
1
1
1
1
1
1
1
1
1
1
1
1
1
1
1
1
1
1
1
1
1
1
1
1
1
1
1
1
1
1
1
1
1
1
1
1
1
1
1
1
1
1
1
1
1
1
1
1
1
1
1
1
1
1
1
1
1
1
1
1
1
1
1
1
1
1
1
1
1
1
1
1
1
1
1
1
1
1
1
1
1
1
1
1
1
1
1
1
1
1
1
1
1
1
1
1
1
1
1
1
1
1
1
1
1
1
1
1
1
1
1
1
1
1
1
1
1
1
1
1
1
1
1
1
1
1
1
1
1
1
1
1
1
1
1
1
1
1
1
1
1
1
1
1
1
1
1
1
1
1
1
1
1
1
1
1
1
1
1
1
1
1
1
1
1
1
1
1
1
1
1
1
1
1
1
1
1
1
1
1
1
1
1
1
1
1
1
1
1
1
1
1
1
1
1
1
1
1
1
1
1
1
1
1
1
1
1
1
1
1
1
1
1
1
1
1
1
1
1
1
1
1
1
1
1
1
1
1
1
1
1
1
1
1
1
1
1
1
1
1
1
1
1
1
1
1
1
1
1
1
1
1
1
1
1
1
1
1
1
1
1
1
1
1
1
1
1
1
1
1
1
1
1
1
1
1
1
1
1
1
1
1
1
1
1
1
1
1
1
1
1
1
1
1
1
1
1
1
1
1
1
1
1
1
1
1
1
1
1
1
1
1
1
1
1
1
1
1
1
1
1
1
1
1
1
1
1
1
1
1
1
1
1
1
1
1
1
1
1
1
1
1
1
1
1
1
1
1
1
1
1
1
1
1
1
1
1
1
1
1
1
1
1
1
1
1
1
1
1
1
1
1
1
1
1
1
1
1
1
1
1
1
1
1
1
1
1
1
1
1
1
1
1
1
1
1
1
1
1
1
1
1
1
1
1
1
1
1
1
1
1
1
1
1
1
1
1
1
1
1
1
1
1
1
1
1
1
1
1
1
1
1
1
1
1
1
1
1
1
1
1
1
1
1
1
1
1
1
1
1
1
1
1
1
1
1
1
1
1
1
1
1
1
1
1
1
1
1
1
1
1
1
1
1
1
1
1
1
1
1
1
1
1
1
1
1
1
1
1
1
1
1
1
1
1
1
1
1
1
1
1
1
1
1
1
1
1
1
1
1
1
1
1
1
1
1
1
1
1
1
1
1
1
1
1
1
1
1
1
1
1
1
1
1
1
1
1
1
1
1
1
1
1
1
1
1
1
1
1
1
1
1
1
1
1
1
1
1
1
1
1
1
1
1
1
1
1
1
1
1
1
1
1
1
1
1
1
1
1
1
1
1
1
1
1
1
1
1
1
1
1
1
1
1
1
1
1
1
1
1
1
1
1
1
1
1
1
1
1
1
1
1
1
1
1
1
1
1
1
1
1
1
1
1
1
1
1
1
1
1
1
1
1
1
1
1
1
1
1
1
1
1
1
1
1
1
1
1
1
1
1
1
1
1
1
1
1
1
1
1
1
1
1
1
1
1
1
1
1
1
1
1
1
1
1
1
1
1
1
1
1
1
1
1
1
1
1
1
1
1
1
1
1
1
1
1
1
1
1
1
1
1
1
1
1
1
1
1
1
1
1
1
1
1
1
1
1
1
1
1
1
1
1
1
1
1
1
1
1
1
1
1
1
1
1
1
1
1
1
1
1
1
1
1
1
1
1
1
1
1
1
1
1
1
1
1
1
1
1
1
1
1
1
1
1
1
1
1
1
1
1
1
1
1
1
1
1
1
1
1
1
1
1
1
1
1
1
1
1
1
1
1
1
1
1
1
1
1
1
1
1
1
1
1
1
1
1
1
1
1
1
1
1
1
1
1
1
1
1
1
1
1
1
1
1
1
1
1
1
1
1
1
1
1
1
1
1
1
1
1
1
1
1
1
1
1
1
1
1
1
1
1
1
1
1
1
1
1
1
1
1
1
1
1
1
1
1
1
1
1
1
1
1
1
1
1
1
1
1
1
1
1
1
1
1
1
1
1
1
1
1
1
1
1
1
1
1
1
1
1
1
1
1
1
1
1
1
1
1
1
1
1
1
1
1
1
1
1
1
1
1
1
1
1
1
1
1
1
1
1
1
1
1
1
1
1
1
1
1
1
1
1
1
1
1
1
1
1
1
1
1
1
1
1
1
1
1
1
1
1
1
1
1
1
1
1
1
1
1
1
1
1
1
1
1
1
1
1
1
1
1
1
1
1
1
1
1
1
1
1
1
1
1
1
1
1
1
1
1
1
1
1
1
1
1
1
1
1
1
1
1
1
1
1
1
1
1
1
1
1
1
1
1
1
1
1
1
1
1
1
1
1
1
1
1
1
1
1
1
1
1
1
1
1
1
1
1
1
1
1
1
1
1
1
1
1
1
1
1
1
1
1
1
1
1
1
1
1
1
1
1
1
1
1
1
1
1
1
1
1
1
1
1
1
1
1
1
1
1
1
1
1
1
1
1
1
1
1
1
1
1
1
1
1
1
1
1
1
1
1
1
1
1
1
1
1
1
1
1
1
1
1
1
1
1
1
1
1
1
1
1
1
1
1
1
1
1
1
1
1
1
1
1
1
1
1
1
1
1
1
1
1
1
1
1
1
1
1
1
1
1
1
1
1
1
1
1
1
1
1
1
1
1
1
1
1
1
1
1
1
1
1
1
1
1
1
1
1
1
1
1
1
1
1
1
1
1
1
1
1
1
1
1
1
1
1
1
1
1
1
1
1
1
1
1
1
1
1
1
1
1
1
1
1
1
1
1
1
1
1
1
1
1
1
1
1
1
1
1
1
1
1
1
1
1
1
1
1
1
1
1
1
1
1
1
1
1
1
1
1
1
1
1
1
1
1
1
1
1
1
1
1
1
1
1
1
1
1
1
1
1
1
1
1
1
1
1
1
1
1
1
1
1
1
1
1
1
1
1
1
1
1
1
1
1
1
1
1
1
1
1
1
1
1
1
1
1
1
1
1
1
1
1
1
1
1
1
1
1
1
1
1
1
1
1
1
1
1
1
1
1
1
1
1
1
1
1
1
1
1
1
1
1
1
1
1
1
1
1
1
1
1
1
1
1
1
1
1
1
1
1
1
1
1
1
1
1
1
1
1
1
1
1
1
1
1
1
1
1
1
1
1
1
1
1
1
1
1
1
1
1
1
1
1
1
1
1
1
1
1
1
1
1
1
1
1
1
1
1
1
1
1
1
1
1
1
1
1
1
1
1
1
1
1
1
1
1
1
1
1
1
1
1
1
1
1
1
1
1
1
1
1
1
1
1
1
1
1
1
1
1
1
1
1
1
1
1
1
1
1
1
1
1
1
1
1
1
1
1
1
1
1
1
1
1
1
1
1
1
1
1
1
1
1
1
1
1
1
1
1
1
1
1
1
1
1
1
1
1
1
1
1
1
1
1
1
1
1
1
1
1
1
1
1
1
1
1
1
1
1
1
1
1
1
1
1
1
1
1
1
1
1
1
1
1
1
1
1
1
1
1
1
1
1
1
1
1
1
1
1
1
1
1
1
1
1
1
1
1
1
1
1
1
1
1
1
1
1
1
1
1
1
1
1
1
1
1
1
1
1
1
1
1
1
1
1
1
1
1
1
1
1
1
1
1
1
1
1
1
1
1
1
1
1
1
1
1
1
1
1
1
1
1
1
1
1
1
1
1
1
1
1
1
1
1
1
1
1
1
1
1
1
1
1
1
1
1
1
1
1
1
1
1
1
1
1
1
1
1
1
1
1
1
1
1
1
1
1
1
1
1
1
1
1
1
1
1
1
1
1
1
1
1
1
1
1
1
1
1
1
1
1
1
1
1
1
1
1
1
1
1
1
1
1
1
1
1
1
1
1
1
1
1
1
1
1
1
1
1
1
1
1
1
1
1
1
1
1
1
1
1
1
1
1
1
1
1
1
1
1
1
1
1
1
1
1
1
1
1
1
1
1
1
1
1
1
1
1
1
1
1
1
1
1
1
1
1
1
1
1
1
1
1
1
1
1
1
1
1
1
1
1
1
1
1
1
1
1
1
1
1
1
1
1
1
1
1
1
1
1
1
1
1
1
1
1
1
1
1
1
1
1
1
1
1
1
1
1
1
1
1
1
1
1
1
1
1
1
1
1
1
1
1
1
1
1
1
1
1
1
1
1
1
1
1
1
1
1
1
1
1
1
1
1
1
1
1
1
1
1
1
1
1
1
1
1
1
1
1
1
1
1
1
1
1
1
1
1
1
1
1
1
1
1
1
1
1
1
1
1
1
1
1
1
1
1
1
1
1
1
1
1
1
1
1
1
1
1
1
1
1
1
1
1
1
1
1
1
1
1
1
1
1
1
1
1
1
1
1
1
1
1
1
1
1
1
1
1
1
1
1
1
1
1
1
1
1
1
1
1
1
1
1
1
1
1
1
1
1
1
1
1
1
1
1
1
1
1
1
1
1
1
1
1
1
1
1
1
1
1
1
1
1
1
1
1
1
1
1
1
1
1
1
1
1
1
1
1
1
1
1
1
1
1
1
1
1
1
1
1
1
1
1
1
1
1
1
1
1
1
1
1
1
1
1
1
1
1
1
1
1
1
1
1
1
1
1
1
1
1
1
1
1
1
1
1
1
1
1
1
1
1
1
1
1
1
1
1
1
1
1
1
1
1
1
1
1
1
1
1
1
1
1
1
1
1
1
1
1
1
9.49792e-07
6.72526e-07
4.2597e-07
3.41355e-07
3.55469e-07
3.69109e-07
3.67997e-07
3.81314e-07
3.83493e-07
3.82102e-07
3.75614e-07
3.67282e-07
3.56544e-07
3.44994e-07
3.33118e-07
3.20221e-07
3.03044e-07
2.84177e-07
2.54746e-07
2.23416e-07
1.92582e-07
1.90056e-07
1.90718e-07
1.92609e-07
1.9105e-07
1.89433e-07
1.8642e-07
1.81855e-07
1.76654e-07
1.72022e-07
1.68729e-07
1.66816e-07
1.69723e-07
1.72219e-07
1.72205e-07
1.68721e-07
1.61848e-07
1.52919e-07
1.43749e-07
1.35505e-07
1.2823e-07
1.21288e-07
1.21263e-07
1.21678e-07
1.20556e-07
1.17899e-07
1.1534e-07
1.14902e-07
1.17861e-07
1.2417e-07
1.32327e-07
1.40242e-07
1.47898e-07
1.66568e-07
1.80005e-07
1.96191e-07
2.18709e-07
2.42533e-07
2.60053e-07
2.72437e-07
2.83139e-07
2.9751e-07
3.14569e-07
3.26546e-07
3.3324e-07
3.43679e-07
3.5806e-07
3.66967e-07
3.70952e-07
3.85051e-07
3.86421e-07
3.82129e-07
3.78217e-07
3.70993e-07
3.62222e-07
3.53772e-07
3.41767e-07
3.31916e-07
3.19639e-07
3.06271e-07
2.9315e-07
2.89112e-07
2.8383e-07
2.68215e-07
2.60696e-07
2.54983e-07
2.57526e-07
2.37635e-07
2.57943e-07
2.3282e-07
2.33217e-07
2.1038e-07
2.17075e-07
2.27655e-07
3.14353e-07
3.07005e-07
2.7653e-07
3.09912e-07
3.26925e-07
2.81057e-07
1.74355e-12
1.08133e-18
1.20904e-19
8.7758e-32
1.08856e-13
9.16945e-15
1.25625e-19
7.23033e-20
1.88005e-20
5.04871e-30
6.78e-49
-9.15069e-33
3.77957e-20
7.07768e-20
5.47193e-20
1.65233e-20
-6.36019e-43
-1.66828e-32
8.66046e-21
1.63551e-14
3.01251e-14
3.419e-14
3.54546e-14
3.51203e-14
3.8726e-14
4.2421e-14
4.51137e-14
4.54041e-14
4.43079e-14
4.12171e-14
3.50714e-14
2.64552e-14
7.9224e-15
8.99178e-23
1.11444e-22
0
0
0
1.26218e-30
-4.7785e-36
4.15245e-22
6.31089e-31
0
-6.31089e-31
5.48381e-23
7.8842e-22
9.37096e-22
6.19369e-22
1.49347e-29
1.36725e-29
1.62663e-22
2.79238e-22
1.3604e-28
7.49286e-16
1.07492e-14
1.33039e-14
1.35722e-14
2.31169e-14
3.12637e-14
4.32602e-14
4.36233e-14
2.94595e-14
2.28725e-14
3.84213e-14
5.45241e-14
5.76635e-14
6.68601e-14
7.44695e-14
6.66081e-14
5.64087e-14
5.58015e-14
5.42994e-14
6.05222e-14
6.21293e-14
5.96918e-14
6.22077e-14
6.32428e-14
4.30172e-14
1.83711e-14
7.19778e-15
1.31971e-14
2.0222e-14
1.2195e-14
8.65734e-15
2.96381e-15
6.43504e-15
9.93279e-16
4.93476e-15
6.74924e-16
3.36042e-14
2.5527e-14
5.11512e-15
1.19843e-27
1.03111e-27
1.92813e-27
7.28234e-22
3.33175e-13
2.70711e-30
3.78653e-30
2.52437e-30
1.68287e-29
1.92082e-18
6.42697e-20
1.75436e-31
1.75453e-31
1.75453e-31
4.13765e-20
6.85626e-20
3.8459e-33
9.02841e-52
5.05042e-45
-3.28781e-92
6.9854e-20
4.98977e-20
3.80498e-20
2.79237e-20
4.84958e-41
4.84958e-41
7.54661e-22
6.81175e-21
6.24387e-36
6.24387e-36
9.71214e-21
9.23897e-21
9.22457e-21
1.9384e-21
1.27649e-52
7.70113e-58
1.27648e-52
1.76357e-92
1.74664e-20
1.25093e-20
2.83519e-21
8.15149e-23
-2.12276e-102
-2.34158e-73
-3.6511e-80
-7.60735e-87
-9.27681e-94
-2.14756e-100
7.42962e-22
-2.95352e-115
-7.27377e-122
-9.98513e-130
6.67701e-54
1.3182e-21
8.96955e-22
1.13831e-21
1.3461e-29
1.3461e-29
1.3461e-29
7.4613e-29
1.35765e-28
1.39073e-28
1.39073e-28
4.89544e-23
6.79248e-22
6.34837e-28
8.75137e-28
5.36815e-22
5.42934e-22
5.92431e-59
-6.71971e-43
0
0
0
-2.11318e-44
0
0
4.95861e-28
3.24685e-22
1.10481e-27
5.03018e-29
5.03018e-29
5.03018e-29
5.03018e-29
1.74696e-21
7.29882e-21
2.90582e-21
2.5277e-21
1.57997e-21
9.55224e-22
5.66977e-42
6.16709e-48
6.94972e-48
6.16709e-48
2.62618e-22
6.52281e-22
5.01686e-21
2.77541e-20
2.30129e-20
2.70708e-21
1.36575e-27
1.0311e-27
1.53638e-21
1.12477e-19
2.70711e-30
2.70709e-30
2.61579e-30
2.61577e-30
1.68287e-29
1.0069e-23
8.95965e-25
4.90341e-25
8.31111e-25
6.91649e-26
4.34756e-38
2.04977e-27
9.26488e-26
8.84252e-33
6.96133e-27
6.30803e-26
2.06514e-27
1.38952e-49
1.79005e-26
1.79733e-26
3.43461e-34
4.84958e-41
4.23586e-29
1.52499e-28
9.74416e-29
3.21405e-28
2.149e-28
1.72516e-28
2.08859e-28
8.50418e-28
1.09369e-28
6.88841e-29
2.65499e-36
1.39447e-43
-7.11785e-116
1.20961e-91
7.13205e-28
1.12691e-29
-2.57134e-72
-4.0457e-79
-2.6516e-86
-3.12086e-93
-2.53821e-100
-3.81122e-107
-1.46158e-164
1.70742e-82
7.58496e-61
1.3354e-53
6.67701e-54
2.0031e-53
2.87534e-29
4.70469e-28
1.76921e-29
1.3461e-29
7.46908e-29
3.21421e-28
1.35765e-28
1.64246e-28
2.60852e-28
8.42036e-28
6.745e-28
6.34837e-28
1.11483e-27
1.16487e-27
7.32662e-28
2.56342e-29
-1.38028e-49
-6.23375e-57
-2.64885e-64
-3.84573e-58
-4.4924e-51
-5.86186e-58
1.13119e-27
4.95861e-28
1.96739e-28
1.27246e-27
4.00504e-27
9.30664e-29
1.98741e-28
1.45322e-28
1.80628e-28
8.99238e-29
1.89441e-29
1.67651e-29
3.85527e-27
3.36648e-27
1.24761e-27
1.52168e-27
9.52136e-28
1.04053e-34
7.27122e-29
-4.80864e-57
-9.47387e-58
6.97666e-27
1.7182e-26
3.22593e-29
2.94815e-37
2.84266e-32
1.20425e-26
1.20451e-24
1.1592e-24
7.85946e-25
4.80064e-25
5.05082e-30
1.01227e-56
1.01227e-56
1.62105e-30
7.50721e-31
4.86254e-30
7.43142e-32
4.34756e-38
1.49374e-33
2.58082e-39
2.0491e-38
7.10667e-33
1.45955e-33
2.04339e-41
1.38952e-49
9.25498e-71
6.27162e-71
8.34204e-41
4.64611e-151
4.64611e-151
1.90691e-42
1.55402e-35
2.04261e-35
3.08855e-43
6.8344e-216
5.94214e-216
3.12247e-216
-2.14044e-191
3.46235e-36
6.25589e-43
1.95849e-50
2.82416e-58
5.47103e-72
1.26897e-111
-5.57724e-72
-4.57177e-79
-1.25328e-85
-2.39866e-92
-3.32631e-99
-3.822e-106
1.8706e-105
1.79818e-82
6.29442e-75
2.01509e-67
5.59111e-60
2.06629e-52
2.9279e-52
-2.32578e-59
3.57184e-97
1.89235e-35
4.5321e-35
7.02264e-35
1.25127e-34
2.13191e-34
3.43296e-34
5.32023e-34
6.31283e-34
5.37002e-34
9.43821e-34
1.71725e-33
1.89603e-33
1.25768e-33
2.04985e-34
1.61842e-54
2.16239e-63
7.24149e-71
1.51268e-78
7.30637e-85
6.68053e-78
1.99798e-78
1.99798e-78
1.88349e-71
2.62117e-63
1.86706e-41
4.69455e-34
9.3521e-34
6.47516e-34
4.05587e-34
4.11701e-34
3.57839e-34
1.6209e-34
3.70454e-34
1.0124e-33
1.86847e-33
2.65729e-33
1.80751e-33
9.58151e-40
4.35252e-35
-6.46349e-63
8.34895e-61
8.34895e-61
7.09748e-33
1.90921e-35
1.40943e-46
1.37643e-38
1.66056e-32
1.10888e-30
1.08971e-30
4.46981e-30
2.24797e-30
4.4495e-36
4.84327e-51
7.51186e-46
9.19376e-40
1.35337e-37
6.17167e-43
7.91213e-38
3.87222e-44
6.88212e-40
8.87168e-46
1.90963e-45
4.34003e-39
1.23624e-39
5.80591e-47
3.93105e-56
3.39782e-64
6.27161e-71
1.24553e-47
8.96754e-151
1.92912e-144
2.80572e-157
7.09492e-43
1.25043e-42
7.10486e-50
4.37583e-57
1.82088e-153
3.17864e-114
2.23469e-156
1.04634e-42
2.95811e-49
2.15484e-56
1.56818e-63
4.06568e-72
3.61711e-79
-2.2891e-78
-3.90139e-85
-4.16132e-92
-6.68184e-99
-5.33577e-106
-1.1999e-112
4.2562e-98
8.46989e-91
7.57997e-83
-5.42337e-141
-7.79571e-148
1.0563e-58
1.60325e-58
1.19632e-55
7.59151e-49
8.31539e-42
2.06333e-41
3.43461e-41
6.46978e-41
1.1322e-40
1.78816e-40
2.89399e-40
3.08895e-40
2.66736e-40
5.07232e-40
1.00689e-39
1.16126e-39
7.47309e-40
1.08961e-40
5.73722e-48
1.15993e-56
4.65657e-64
1.78792e-71
2.69685e-92
1.33115e-85
1.99798e-78
3.81994e-68
5.36396e-61
1.75857e-54
1.6353e-47
2.22336e-40
4.02612e-40
2.92072e-40
1.86121e-40
1.92077e-40
3.76766e-40
1.86965e-40
2.26273e-40
7.12433e-40
1.49616e-39
2.54473e-39
7.4262e-40
2.96432e-46
1.65248e-52
1.76182e-59
2.16296e-53
1.72534e-46
1.74672e-39
1.31119e-41
6.56302e-51
3.17709e-44
1.65365e-38
5.45271e-37
9.16918e-37
1.28204e-36
3.39915e-36
1.11406e-43
1.54857e-56
1.04979e-50
2.67806e-45
5.33154e-44
3.94991e-49
4.01942e-44
1.20199e-50
2.99681e-46
4.0452e-53
3.69829e-59
1.81564e-66
-6.16522e-121
3.73099e-71
4.41862e-64
9.83975e-71
9.12353e-78
3.47717e-55
2.54962e-63
2.80572e-157
2.80572e-157
3.50545e-179
2.40159e-186
5.35333e-193
5.35333e-193
4.52106e-113
1.14684e-106
1.42036e-85
1.9273e-49
5.00734e-56
3.81226e-63
8.99034e-70
1.24797e-76
4.45709e-85
-3.33874e-85
-8.6662e-92
-2.60841e-98
-4.84145e-105
-9.87938e-113
-4.10639e-120
-9.98067e-127
-1.00481e-133
-2.76422e-140
-5.07975e-147
-1.85592e-154
-7.2844e-164
-1.70525e-170
-3.5908e-76
1.35549e-55
2.88027e-48
9.30176e-48
1.56972e-47
2.5329e-47
3.44127e-47
4.77714e-47
7.71544e-47
8.91841e-47
6.40656e-47
1.29566e-46
3.17693e-46
3.28357e-46
1.24602e-46
6.91342e-48
1.93233e-55
1.53442e-141
3.23092e-168
-1.97133e-251
7.57074e-99
7.54288e-92
3.73045e-85
7.1062e-77
5.47142e-67
2.89203e-60
4.86888e-54
3.18052e-63
4.59057e-48
6.88256e-47
4.24127e-48
3.21842e-48
4.73896e-48
6.1271e-47
8.47139e-47
8.53322e-47
3.42131e-46
1.29781e-45
4.46185e-46
1.06365e-220
9.2484e-161
1.23501e-65
4.82289e-59
8.18133e-53
6.15626e-46
6.44277e-52
1.34828e-57
1.03106e-50
2.44274e-44
9.49378e-43
6.28093e-43
9.6319e-43
1.18488e-48
6.31963e-50
0
4.39356e-57
3.9843e-51
2.48923e-50
9.5046e-56
9.03336e-62
6.84077e-57
4.1583e-52
4.23389e-59
3.62985e-65
3.97502e-73
2.83076e-107
3.99285e-114
1.61538e-127
1.61538e-127
1.54808e-134
4.07587e-149
8.27297e-156
8.27297e-156
1.72207e-163
2.01122e-170
5.02933e-177
2.75835e-185
1.76105e-128
1.18987e-105
8.03642e-99
1.70022e-78
9.93138e-57
2.25018e-63
1.44399e-70
1.48594e-77
1.5928e-84
2.56802e-91
-5.25249e-92
-8.77694e-100
-2.81219e-107
-3.40742e-113
-2.61741e-119
-1.00604e-126
-3.58004e-133
-1.2111e-140
0
-7.56676e-155
-9.10169e-161
-3.61817e-170
-4.11037e-177
-2.94891e-83
9.7391e-63
7.45169e-64
2.40456e-56
1.84346e-56
3.59665e-64
2.97939e-54
7.56644e-54
1.76922e-53
2.77443e-53
1.88678e-53
2.68832e-53
7.21369e-53
9.63764e-53
4.2326e-53
2.54453e-54
1.70655e-61
8.34017e-85
7.15729e-105
1.10066e-128
2.29912e-106
2.00604e-98
1.33318e-91
4.62709e-85
6.49197e-92
6.88479e-67
1.99082e-60
1.08688e-69
2.73422e-56
2.91014e-53
4.14593e-54
1.77021e-54
1.57907e-54
1.41821e-53
5.38525e-53
4.86749e-53
7.77775e-53
2.71685e-52
3.44027e-52
2.72877e-160
1.11669e-109
4.65167e-73
4.4415e-64
7.46137e-58
6.18675e-52
1.04026e-58
5.56e-65
1.82264e-71
1.09191e-77
1.48426e-48
1.37967e-48
7.24086e-49
3.75334e-55
5.93553e-56
9.68148e-117
4.73193e-95
2.706e-62
1.80911e-56
4.59727e-62
1.16381e-68
4.92906e-66
3.17042e-72
2.97769e-66
2.16878e-72
3.10956e-79
2.6243e-86
4.69472e-93
7.15545e-127
1.29969e-133
7.11306e-141
8.15174e-149
1.88924e-155
3.73082e-162
2.80334e-169
2.65418e-176
3.71989e-183
6.13477e-190
8.14203e-199
9.49696e-99
3.28142e-91
3.13863e-71
4.0054e-63
8.59064e-71
3.79912e-78
6.5454e-85
1.25046e-92
5.64075e-99
-6.80853e-99
-1.19457e-105
-1.19516e-113
-6.95706e-120
-3.59243e-126
-1.51903e-133
-2.6436e-140
-9.27461e-147
-1.14755e-167
-3.70953e-175
-1.24467e-182
-3.02656e-190
0
0
6.44171e-92
1.26106e-83
5.6457e-63
5.91296e-63
7.40747e-71
9.73297e-80
5.90132e-89
5.3944e-81
9.24204e-61
7.08409e-61
1.88964e-68
3.82985e-76
2.58751e-76
3.48187e-69
3.21843e-62
1.26226e-70
5.28511e-78
8.11954e-98
-4.04475e-265
1.37582e-129
0
2.82627e-148
1.18914e-141
2.18743e-122
1.03954e-107
2.08217e-67
5.13916e-76
1.75377e-69
1.0105e-61
1.74521e-60
1.2025e-60
7.80267e-61
1.21093e-60
4.75266e-60
2.58073e-59
3.50306e-59
9.2665e-59
9.0076e-59
1.0696e-65
1.36347e-84
3.07925e-80
1.32573e-86
1.42301e-63
1.05026e-57
7.56212e-65
2.34524e-72
-3.70164e-172
0
0
5.63813e-55
1.0333e-54
8.50965e-62
2.33179e-62
3.5208e-95
2.36044e-89
4.81198e-82
3.39277e-62
7.62921e-68
9.05335e-75
2.87106e-72
1.81691e-78
1.02603e-72
7.17157e-79
5.49487e-113
1.32163e-119
4.54166e-113
8.21513e-121
1.29426e-127
3.09001e-135
1.17409e-143
5.97628e-150
2.10233e-156
4.31199e-163
4.87187e-182
4.14299e-191
7.66422e-198
9.47672e-205
7.00134e-91
6.42329e-84
1.09613e-76
2.38696e-69
1.85226e-76
3.89651e-84
1.61434e-91
1.24062e-98
4.81688e-105
-3.61914e-105
-4.46972e-112
-4.22303e-119
-9.06024e-126
-3.59542e-132
-1.52351e-139
-1.49181e-146
-4.43284e-154
-2.45979e-161
-1.15682e-168
-5.28703e-176
-8.21715e-183
1.47135e-98
1.67515e-91
1.36064e-84
5.57613e-77
5.27234e-69
5.00835e-69
3.86372e-76
3.80222e-84
4.839e-81
4.4534e-74
6.82037e-67
5.23187e-67
2.27673e-74
5.90713e-90
1.17665e-82
1.62616e-75
2.44903e-68
3.0678e-76
2.04147e-83
6.50839e-91
-3.83857e-271
0
0
3.29217e-142
3.9516e-135
1.35436e-128
2.9016e-121
2.95531e-136
2.95531e-136
2.6446e-148
8.27419e-68
6.34841e-67
4.80733e-67
5.77063e-67
7.39317e-67
2.91495e-66
1.10131e-65
2.8005e-65
6.03049e-65
4.98006e-65
2.73039e-71
2.9596e-78
2.23323e-85
9.01823e-92
1.42248e-85
1.04373e-78
1.27728e-72
8.29105e-80
4.56487e-87
2.61149e-93
1.1914e-100
1.991e-68
2.53283e-61
9.31826e-68
1.20222e-74
3.69595e-101
1.88387e-315
7.48079e-121
1.77723e-107
3.28466e-74
5.23632e-81
1.0431e-78
1.46811e-84
8.40299e-79
6.49842e-85
2.1328e-92
2.44901e-99
3.93489e-106
6.36511e-114
5.1884e-121
5.68357e-128
3.97027e-136
6.7673e-143
7.44748e-150
1.31643e-156
2.31508e-163
1.15488e-195
2.84085e-203
2.80001e-202
1.50909e-96
1.06422e-89
1.40889e-82
1.66703e-75
3.07534e-82
1.24835e-89
6.46457e-98
1.04148e-105
2.08132e-111
-2.97836e-111
-5.89985e-118
-7.93409e-125
-1.15553e-131
-1.45467e-138
-4.68789e-145
-5.93116e-152
-1.23734e-159
-4.06566e-167
-3.89294e-174
0
0
0
1.71626e-97
4.48021e-90
1.43723e-82
4.81947e-75
4.31595e-75
1.48911e-82
7.67506e-90
1.79503e-90
7.35982e-81
8.37678e-73
6.69537e-73
5.12194e-80
1.07929e-87
6.00723e-89
1.79412e-81
2.81944e-74
3.50334e-163
2.32619e-177
1.50982e-192
1.68171e-247
0
0
0
4.50299e-141
2.33645e-134
6.65791e-128
1.08921e-134
7.73905e-87
3.04463e-80
9.86417e-74
7.1246e-73
5.61827e-73
9.02652e-73
1.07297e-72
3.15219e-72
1.27255e-71
4.83776e-71
1.2091e-70
8.20601e-71
3.61885e-77
1.89195e-84
4.95553e-91
1.26702e-97
1.75447e-104
2.49282e-85
3.00284e-78
3.59502e-85
8.52319e-92
7.02117e-98
9.73763e-106
2.80132e-73
4.39499e-67
4.2328e-73
1.80658e-80
4.75657e-107
0
0
1.06918e-101
6.2884e-94
1.20837e-87
3.56427e-85
2.59129e-91
2.52621e-85
1.94633e-91
7.21985e-98
5.30473e-105
6.41072e-112
2.03155e-120
9.31464e-128
2.47141e-134
2.44688e-141
2.48719e-148
2.8677e-155
2.93657e-163
6.07685e-170
9.5089e-177
2.08667e-188
2.50746e-195
2.94246e-202
4.9628e-210
4.13853e-89
1.30506e-81
9.82437e-89
4.33652e-96
2.17562e-103
1.86324e-111
1.31206e-117
-1.4653e-117
-4.01983e-124
-1.26984e-130
-3.00906e-137
-1.28812e-144
-1.00586e-151
-2.70785e-158
-5.90515e-166
-2.21459e-173
-5.74412e-181
0
0
0
1.19254e-207
3.88339e-192
6.07071e-178
1.84845e-81
1.86037e-81
1.14944e-88
4.45324e-96
1.30848e-103
2.22418e-100
3.24662e-79
2.43379e-79
3.98009e-86
8.58681e-94
9.8934e-96
4.09072e-88
2.25083e-80
5.23524e-88
2.51578e-95
8.14989e-103
2.26659e-110
1.35541e-130
0
0
0
1.39216e-141
5.53431e-135
1.22953e-142
3.54965e-149
3.2613e-86
1.19875e-79
6.06855e-79
3.43811e-79
4.40952e-79
6.11676e-79
2.25123e-78
8.50693e-78
2.615e-77
6.51459e-77
5.21934e-77
2.65177e-83
1.28154e-90
5.35411e-97
2.38679e-103
6.68538e-98
5.14204e-91
3.23792e-84
7.02849e-91
1.57057e-97
6.65656e-104
9.50054e-111
1.49251e-79
4.3341e-73
2.48599e-79
1.44432e-85
0
2.10439e-137
3.55864e-301
2.16039e-220
4.76439e-102
6.84102e-94
2.08512e-91
1.46116e-97
5.90036e-92
3.26323e-98
1.43023e-104
1.55219e-111
7.06461e-119
5.57802e-128
7.4599e-135
2.47101e-141
4.48032e-148
1.05239e-154
1.62752e-161
7.25677e-170
1.60795e-177
2.99962e-184
2.91562e-191
2.61428e-199
1.78061e-206
1.08651e-213
1.45253e-220
2.97743e-88
7.07067e-95
2.20504e-102
1.16696e-110
4.56477e-118
3.8013e-124
-6.67107e-124
-2.11498e-130
-1.27357e-137
-3.83453e-144
-5.47096e-151
-1.87361e-158
-3.21737e-165
-7.71516e-172
-3.08256e-179
-1.83986e-186
-1.20447e-193
-9.38271e-203
-1.63248e-210
1.4007e-110
9.54873e-103
1.53743e-95
6.1762e-88
5.93462e-88
3.30601e-95
1.12941e-102
5.01765e-110
1.43398e-93
8.96869e-86
7.17663e-86
8.29877e-93
2.2616e-100
4.70871e-102
5.00655e-95
1.88159e-87
2.40194e-94
7.93391e-102
4.88064e-109
1.61493e-116
1.2243e-123
0
0
0
0
0
0
0
0
1.81969e-86
1.87323e-85
6.49765e-86
3.78914e-86
2.44239e-85
1.36678e-84
9.30197e-85
2.23439e-85
2.2826e-83
2.03859e-83
1.82327e-89
2.40891e-96
6.2618e-103
6.47956e-109
2.81194e-103
2.22556e-97
7.7535e-91
1.34782e-96
1.00823e-103
1.33731e-110
7.96457e-93
1.90119e-86
1.0774e-79
1.83812e-170
5.71264e-202
0
1.97913e-131
2.55373e-125
2.79982e-119
5.03863e-110
2.78275e-101
1.42857e-98
1.43675e-104
1.5767e-98
8.46549e-105
2.27789e-111
7.85859e-119
8.22828e-126
1.79183e-133
5.15219e-142
1.05555e-148
5.98475e-156
7.0903e-163
1.22865e-169
2.06314e-176
8.7868e-185
0
0
0
3.20877e-213
2.74862e-220
7.69885e-228
0
0
4.84491e-109
3.46837e-117
6.68459e-125
3.80299e-132
6.95486e-139
-4.25925e-137
-1.87874e-144
0
-3.45494e-159
-2.90367e-165
-9.91953e-173
-4.2391e-179
-9.7544e-186
-1.05777e-192
-1.22932e-199
-4.15832e-209
-5.05827e-217
-1.54102e-224
-1.11519e-231
2.00635e-102
1.09617e-94
1.52723e-94
1.11377e-101
3.97631e-109
5.30815e-107
1.31138e-99
2.73797e-92
2.18019e-92
2.80584e-99
7.74653e-107
2.72898e-108
2.29609e-101
5.34666e-94
1.08508e-100
1.45206e-107
3.45732e-115
7.70692e-123
7.74238e-130
4.26101e-137
0
0
0
0
0
0
0
3.45405e-93
6.11641e-92
2.30466e-92
1.09739e-92
1.59337e-92
6.57689e-91
7.34997e-91
2.39603e-91
2.40327e-89
3.28169e-90
5.82523e-97
2.16302e-103
8.0316e-110
8.77609e-116
1.43837e-108
6.34811e-103
4.97959e-97
7.81442e-103
1.14792e-109
4.69424e-106
1.62659e-99
8.73886e-93
1.73145e-86
4.89667e-93
0
0
2.09497e-163
7.33396e-128
1.4269e-121
3.41609e-115
1.15443e-107
4.33036e-105
2.31816e-111
2.86264e-105
2.47511e-111
6.62833e-118
6.95027e-126
4.00815e-134
2.41608e-140
1.75684e-148
2.48501e-155
1.64541e-162
0
0
4.50307e-200
7.66922e-192
1.31761e-199
0
0
0
0
1.37977e-234
0
0
0
0
1.70985e-132
1.29875e-139
3.81093e-261
0
0
0
0
0
0
0
0
0
0
0
0
0
0
0
0
0
0
0
0
2.04804e-138
1.87289e-99
3.45634e-99
4.28101e-106
7.94716e-114
3.09735e-115
1.59712e-108
0
0
0
0
0
0
0
0
0
0
0
0
0
0
0
3.41044e-106
2.89522e-99
2.56052e-99
4.99088e-99
2.10278e-98
1.7236e-105
7.71451e-112
8.53622e-96
3.76163e-96
2.4581e-103
8.69819e-113
1.88056e-119
5.81481e-126
6.15692e-132
6.3307e-109
8.93059e-104
3.75416e-110
1.12667e-116
1.28464e-123
0
7.76539e-281
0
0
0
0
2.68242e-157
2.89817e-136
7.16093e-129
2.09705e-122
4.1236e-114
2.46598e-111
3.04068e-118
2.54839e-112
8.98885e-119
1.45764e-125
7.58786e-133
1.15072e-140
2.19601e-147
4.26799e-154
5.45042e-162
6.4663e-170
0
0
0
0
1.38436e-233
2.43464e-240
0
0
0
1.53022e-272
1.9286e-279
0
0
0
0
1.51176e-146
0
0
0
0
0
0
0
0
0
0
0
0
0
0
0
0
0
0
0
0
0
0
0
0
0
0
0
0
0
0
0
0
0
0
0
0
0
0
0
0
0
0
0
0
2.53987e-106
4.42946e-106
1.67127e-106
4.78119e-217
3.37805e-231
0
0
1.85176e-117
1.01648e-109
2.48019e-119
1.2622e-127
3.13255e-134
2.53435e-141
3.57253e-117
1.2404e-110
0
0
0
0
0
0
0
0
8.27217e-157
1.27048e-150
3.01476e-143
2.74256e-135
1.57738e-128
9.2752e-121
1.1015e-117
1.90969e-124
1.13261e-118
3.87664e-125
6.45768e-132
1.62021e-138
3.63798e-146
3.28401e-153
5.61076e-160
6.55627e-167
2.96647e-176
0
0
0
0
3.5125e-227
2.57951e-233
2.01096e-240
0
0
4.08028e-266
1.36928e-272
0
0
0
0
0
0
0
0
0
0
0
0
0
0
0
0
0
0
0
0
0
0
0
0
0
0
0
0
0
0
0
0
0
0
0
0
0
0
0
0
0
0
0
0
0
0
0
0
0
0
8.03885e-113
2.76823e-113
1.89824e-120
9.16587e-128
0
0
0
3.03478e-132
6.75405e-126
9.30923e-133
4.91387e-139
6.63918e-147
3.7644e-153
0
0
0
0
0
0
0
0
0
5.03697e-163
7.19538e-157
3.98058e-150
1.79726e-142
2.1997e-267
1.14629e-126
7.68949e-124
2.1426e-130
1.40224e-124
4.65787e-131
4.4646e-138
1.58756e-144
4.18989e-151
1.81182e-158
5.12211e-166
4.80682e-173
4.39363e-180
4.55761e-188
2.09002e-195
2.78836e-202
4.47825e-213
3.90834e-220
6.35283e-227
1.90117e-233
1.95172e-243
2.36847e-251
1.27041e-258
4.08522e-265
4.75112e-273
3.84912e-295
3.3154e-302
0
0
0
0
0
0
0
0
0
0
0
0
0
0
0
0
0
0
0
0
0
0
0
0
0
0
0
0
0
0
0
0
0
0
0
0
0
0
0
0
0
0
0
0
0
0
0
7.18685e-127
8.23171e-120
4.68798e-127
1.66991e-133
0
0
0
8.91974e-139
1.62188e-131
4.5506e-138
1.8496e-145
1.22498e-152
7.42359e-159
8.6643e-192
1.28352e-198