/*--------------------------------*- C++ -*----------------------------------*\
| =========                 |                                                 |
| \\      /  F ield         | OpenFOAM: The Open Source CFD Toolbox           |
|  \\    /   O peration     | Version:  2406                                  |
|   \\  /    A nd           | Website:  www.openfoam.com                      |
|    \\/     M anipulation  |                                                 |
\*---------------------------------------------------------------------------*/
FoamFile
{
    version     2.0;
    format      ascii;
    arch        "LSB;label=32;scalar=64";
    class       surfaceScalarField;
    location    "1";
    object      alphaPhi0.grout;
}
// * * * * * * * * * * * * * * * * * * * * * * * * * * * * * * * * * * * * * //

dimensions      [0 3 -1 0 0 0 0];

oriented        oriented;

internalField   nonuniform List<scalar> 
19800
(
-3.03185e-13
1.36211e-13
7.37531e-14
3.1377e-13
-8.65204e-14
6.79978e-15
8.84693e-14
-1.9543e-14
-7.41326e-14
-7.72189e-14
6.21045e-14
-5.96751e-14
2.6389e-15
-3.97083e-14
1.03214e-13
-1.68262e-14
1.16133e-13
-5.79979e-14
1.13974e-13
-3.58245e-14
1.32959e-13
4.86537e-15
1.78203e-13
4.84946e-15
1.54636e-13
-2.27991e-14
1.99036e-13
-1.81515e-14
2.274e-13
-1.13371e-14
2.11433e-13
-4.12806e-14
1.67863e-13
-6.68833e-14
1.54872e-13
-3.65732e-14
1.98632e-13
-6.53423e-15
1.78611e-13
-1.56702e-14
1.38059e-13
-2.79376e-14
1.38088e-13
-4.60975e-14
1.13211e-13
-5.3759e-14
1.35449e-13
-3.38734e-14
1.58789e-13
-3.21501e-14
1.29445e-13
-4.0113e-14
1.19136e-13
-3.3394e-14
1.24645e-13
-3.212e-14
1.17358e-13
-2.67921e-14
1.42681e-13
-5.10706e-15
1.68788e-13
4.24317e-15
1.58115e-13
-4.37193e-15
1.38585e-13
-6.33766e-16
1.57126e-13
1.02753e-14
1.66217e-13
-1.58083e-15
1.3743e-13
-1.75662e-14
1.15886e-13
-7.45991e-15
1.31128e-13
9.98492e-15
1.5538e-13
2.81697e-16
1.54201e-13
-2.83549e-14
1.37565e-13
-3.87396e-14
1.34981e-13
-2.36009e-14
1.48548e-13
-1.44643e-14
1.56995e-13
-2.95722e-14
1.5503e-13
-4.93507e-14
1.53683e-13
-5.23943e-14
1.57414e-13
-4.12602e-14
1.65975e-13
-3.03306e-14
1.81998e-13
-3.06737e-14
2.01012e-13
-4.43999e-14
2.15321e-13
-6.32832e-14
2.22712e-13
-7.59985e-14
2.25692e-13
-7.5888e-14
2.30093e-13
-6.39229e-14
2.40005e-13
-4.80115e-14
2.52656e-13
-3.70535e-14
2.6123e-13
-3.4618e-14
2.60731e-13
-3.75356e-14
2.51074e-13
-3.92667e-14
2.36059e-13
-3.59334e-14
2.19764e-13
-2.96618e-14
2.04327e-13
-2.56797e-14
1.90223e-13
-2.70515e-14
1.77252e-13
-3.2565e-14
1.65042e-13
-3.88331e-14
1.53095e-13
-4.36042e-14
1.41236e-13
-4.68999e-14
1.30548e-13
-4.98466e-14
1.23203e-13
-5.3255e-14
1.20774e-13
-5.67968e-14
1.22692e-13
-5.88351e-14
1.26361e-13
-5.75855e-14
1.28906e-13
-5.32883e-14
1.29159e-13
-4.89888e-14
1.2838e-13
-4.84109e-14
1.2968e-13
-5.30661e-14
1.36527e-13
-6.14585e-14
1.51006e-13
-7.02442e-14
1.72707e-13
-7.56512e-14
1.98681e-13
-7.46638e-14
2.25109e-13
-6.67657e-14
2.48641e-13
-5.51384e-14
2.66518e-13
-4.48696e-14
2.78541e-13
-3.96008e-14
2.87167e-13
-3.84552e-14
2.949e-13
-3.6077e-14
3.01144e-13
-2.90706e-14
2.97448e-13
-1.92677e-14
2.76167e-13
-9.43672e-15
2.39338e-13
-1.06192e-15
1.8891e-13
4.96163e-15
1.2698e-13
7.46804e-15
5.92461e-14
5.46314e-15
-4.72827e-15
3.67755e-15
-4.92436e-14
-4.75501e-15
-7.4855e-14
-2.06823e-14
-8.37088e-14
-3.57572e-14
-6.97681e-14
-3.01643e-14
-4.49885e-14
-1.63238e-15
1.36078e-14
-2.78809e-13
-1.85343e-13
-2.29893e-13
5.5226e-14
-1.12526e-13
5.9479e-14
2.29405e-14
-8.9798e-15
-6.88325e-14
-5.95671e-14
1.02503e-13
2.92108e-14
5.1599e-14
-3.03669e-14
1.15592e-13
3.54865e-15
2.14897e-13
3.11097e-14
2.28257e-13
1.16587e-14
2.1821e-13
-9.83288e-15
2.40683e-13
-3.6926e-15
2.33025e-13
3.41002e-14
2.82787e-13
4.87671e-14
2.77675e-13
3.66356e-14
2.47456e-13
2.75722e-14
2.33623e-13
1.84384e-14
2.08703e-13
7.86122e-15
2.19929e-13
7.42202e-15
1.88733e-13
-8.4361e-15
1.22867e-13
-2.13302e-14
1.23269e-13
-5.53403e-15
1.12523e-13
-7.02846e-15
1.1522e-13
-7.00802e-15
1.29989e-13
-8.48555e-16
1.01976e-13
-1.30159e-14
7.80067e-14
-1.08903e-14
8.69822e-14
2.03588e-14
9.52808e-14
4.05943e-14
1.23784e-13
4.5123e-14
1.52706e-13
5.34883e-14
1.62685e-13
5.96823e-14
1.53421e-13
4.73791e-14
1.6497e-13
3.90957e-14
1.85134e-13
4.66522e-14
1.85494e-13
5.39876e-14
1.77404e-13
4.86722e-14
1.84422e-13
3.96569e-14
2.07658e-13
4.1594e-14
2.27608e-13
4.59765e-14
2.31244e-13
3.35964e-14
2.23484e-13
8.11094e-15
2.20573e-13
-7.15651e-15
2.30171e-13
-4.6989e-15
2.46923e-13
2.42448e-15
2.62797e-13
1.04859e-15
2.72488e-13
-9.54925e-15
2.78301e-13
-2.10436e-14
2.90907e-13
-2.70794e-14
3.13362e-13
-3.05684e-14
3.38971e-13
-3.77261e-14
3.61944e-13
-4.95967e-14
3.79099e-13
-6.02073e-14
3.91196e-13
-6.21932e-14
4.03089e-13
-5.56591e-14
4.17639e-13
-4.81014e-14
4.33254e-13
-4.58033e-14
4.46135e-13
-4.92753e-14
4.5214e-13
-5.53833e-14
4.48892e-13
-6.07881e-14
4.37707e-13
-6.40392e-14
4.23124e-13
-6.59742e-14
4.09999e-13
-6.88467e-14
4.00289e-13
-7.50986e-14
3.92275e-13
-8.62292e-14
3.82801e-13
-1.01899e-13
3.70484e-13
-1.19657e-13
3.57743e-13
-1.35819e-13
3.50229e-13
-1.47395e-13
3.53344e-13
-1.53842e-13
3.67806e-13
-1.57156e-13
3.88089e-13
-1.60061e-13
4.0614e-13
-1.63914e-13
4.174e-13
-1.68157e-13
4.23363e-13
-1.71164e-13
4.29763e-13
-1.71318e-13
4.43321e-13
-1.67922e-13
4.68703e-13
-1.61832e-13
5.05873e-13
-1.55211e-13
5.48398e-13
-1.49593e-13
5.86582e-13
-1.43861e-13
6.13677e-13
-1.35424e-13
6.28123e-13
-1.22734e-13
6.34812e-13
-1.05846e-13
6.40755e-13
-8.51355e-14
6.44871e-13
-6.09285e-14
6.3808e-13
-3.77531e-14
6.06696e-13
-2.22808e-14
5.42099e-13
-1.22622e-14
4.51447e-13
-1.20531e-16
3.39599e-13
1.56816e-14
2.13292e-13
2.93614e-14
8.57937e-14
3.37279e-14
-3.35131e-14
2.4144e-14
-1.1775e-13
-9.50829e-15
-1.52312e-13
-7.73497e-14
-1.4242e-13
-1.48603e-13
-9.39815e-14
-1.8091e-13
-7.85328e-14
-1.48829e-13
-5.34199e-14
4.08436e-14
1.19362e-13
-1.43035e-13
3.65598e-16
-9.22431e-14
-6.6985e-14
3.28405e-15
-7.76057e-14
5.51063e-14
-9.58509e-14
7.08218e-14
-8.8807e-14
1.17062e-13
-6.22638e-14
1.63448e-13
-4.76414e-14
2.27258e-13
-2.55773e-14
2.41492e-13
-2.5523e-14
2.54673e-13
-3.56693e-15
3.08073e-13
7.09654e-16
2.76981e-13
6.57645e-15
2.96545e-13
1.97747e-14
2.85825e-13
1.19692e-14
2.48169e-13
-8.04904e-15
2.24781e-13
-1.73932e-14
2.00186e-13
-1.56352e-14
1.90269e-13
-1.48219e-14
1.57679e-13
-2.17813e-14
1.13263e-13
-4.09955e-14
8.63933e-14
-3.86744e-14
6.87523e-14
-3.13712e-14
7.04928e-14
-3.40101e-14
6.17682e-14
-2.7106e-14
4.12098e-14
-8.30163e-15
4.13746e-14
3.27382e-15
4.09718e-14
1.09917e-14
3.63509e-14
2.85511e-14
7.16576e-14
4.99813e-14
1.08124e-13
4.90303e-14
1.14953e-13
3.8488e-14
1.2359e-13
3.90314e-14
1.62524e-13
4.91659e-14
1.97503e-13
4.89471e-14
2.04364e-13
4.12401e-14
2.10372e-13
4.32792e-14
2.4041e-13
4.76598e-14
2.75078e-13
3.66407e-14
2.87592e-13
1.35093e-14
2.85931e-13
1.11011e-15
2.92658e-13
5.05323e-15
3.10632e-13
6.82697e-15
3.2918e-13
-5.17407e-15
3.4209e-13
-2.04401e-14
3.52564e-13
-2.62559e-14
3.63894e-13
-2.43173e-14
3.7659e-13
-2.26488e-14
3.92477e-13
-2.58196e-14
4.11295e-13
-3.33998e-14
4.31044e-13
-4.12427e-14
4.52897e-13
-4.75657e-14
4.75787e-13
-5.59897e-14
4.94488e-13
-6.9098e-14
5.0804e-13
-8.3173e-14
5.21063e-13
-9.1564e-14
5.37325e-13
-9.12609e-14
5.56052e-13
-8.54663e-14
5.72559e-13
-8.04393e-14
5.81735e-13
-8.04994e-14
5.81909e-13
-8.59298e-14
5.75584e-13
-9.47512e-14
5.66756e-13
-1.05597e-13
5.57829e-13
-1.18574e-13
5.48852e-13
-1.34208e-13
5.39001e-13
-1.52593e-13
5.28514e-13
-1.7309e-13
5.19793e-13
-1.9386e-13
5.17125e-13
-2.12048e-13
5.24591e-13
-2.25451e-13
5.43038e-13
-2.34279e-13
5.68441e-13
-2.40713e-13
5.93997e-13
-2.46419e-13
6.14873e-13
-2.51006e-13
6.30863e-13
-2.52931e-13
6.45344e-13
-2.50953e-13
6.63014e-13
-2.44478e-13
6.87731e-13
-2.33509e-13
7.20743e-13
-2.19283e-13
7.58329e-13
-2.04068e-13
7.9188e-13
-1.8906e-13
8.13392e-13
-1.73778e-13
8.19803e-13
-1.56828e-13
8.15874e-13
-1.35935e-13
8.08903e-13
-1.09938e-13
7.93496e-13
-8.04491e-14
7.57835e-13
-5.16754e-14
6.96108e-13
-2.66804e-14
6.06579e-13
-1.00229e-15
4.93989e-13
2.94213e-14
3.61829e-13
6.00577e-14
2.15322e-13
8.20769e-14
7.36133e-14
8.16952e-14
-6.46644e-14
4.88573e-14
-1.74753e-13
-1.86089e-14
-2.15887e-13
-1.16117e-13
-1.7856e-13
-2.11518e-13
-9.0714e-14
-2.87526e-13
-5.8338e-14
-2.87153e-13
-1.51068e-13
-7.1325e-15
3.32332e-14
-6.07089e-14
2.7772e-14
-4.74642e-14
-4.57612e-14
1.26569e-14
-8.87494e-14
7.55437e-14
-8.42647e-14
1.04828e-13
-1.10984e-13
1.23754e-13
-8.54217e-14
1.78241e-13
-4.22615e-14
2.03198e-13
-1.42505e-14
2.47282e-13
-5.30814e-15
2.45569e-13
-4.45798e-15
3.08014e-13
3.33718e-14
2.83038e-13
5.02308e-14
2.88304e-13
5.76822e-14
2.72331e-13
4.3475e-14
2.44232e-13
3.01859e-14
2.2755e-13
2.15502e-14
2.04423e-13
1.30047e-14
1.91567e-13
6.31186e-15
1.45286e-13
9.64061e-15
1.21832e-13
-1.42577e-15
9.94027e-14
-1.79571e-14
6.87854e-14
-9.75967e-15
7.8001e-14
1.43353e-14
7.99512e-14
2.04712e-14
5.24615e-14
2.16716e-14
4.91173e-14
4.63828e-14
5.48277e-14
7.46904e-14
5.14228e-14
7.69063e-14
6.76989e-14
7.37698e-14
9.95109e-14
8.03569e-14
1.17611e-13
9.17243e-14
1.37214e-13
9.77088e-14
1.72617e-13
9.96083e-14
2.06493e-13
9.79602e-14
2.24647e-13
9.40864e-14
2.35618e-13
8.95762e-14
2.57416e-13
8.21131e-14
2.8584e-13
7.47141e-14
3.09237e-13
6.81603e-14
3.22182e-13
5.79182e-14
3.28399e-13
4.52739e-14
3.36613e-13
3.45773e-14
3.54426e-13
2.6589e-14
3.77314e-13
2.15033e-14
3.96144e-13
2.0939e-14
4.08678e-13
2.2793e-14
4.18027e-13
2.39546e-14
4.29974e-13
2.33464e-14
4.47468e-13
1.75326e-14
4.66659e-13
1.85053e-15
4.84457e-13
-2.30358e-14
5.01429e-13
-4.98268e-14
5.18446e-13
-6.90975e-14
5.37273e-13
-7.61517e-14
5.59184e-13
-7.48342e-14
5.8208e-13
-7.33794e-14
6.02004e-13
-7.70794e-14
6.15882e-13
-8.55594e-14
6.22427e-13
-9.55348e-14
6.21985e-13
-1.05107e-13
6.16016e-13
-1.15598e-13
6.06584e-13
-1.29844e-13
5.95411e-13
-1.49402e-13
5.83005e-13
-1.73418e-13
5.69521e-13
-1.99579e-13
5.56633e-13
-2.25775e-13
5.47893e-13
-2.50892e-13
5.4706e-13
-2.7431e-13
5.56082e-13
-2.95141e-13
5.74218e-13
-3.12309e-13
5.98241e-13
-3.25006e-13
6.23416e-13
-3.32484e-13
6.45744e-13
-3.33918e-13
6.64144e-13
-3.29303e-13
6.80707e-13
-3.20024e-13
6.99088e-13
-3.07897e-13
7.2178e-13
-2.93467e-13
7.49019e-13
-2.75649e-13
7.782e-13
-2.53558e-13
8.02494e-13
-2.28287e-13
8.14846e-13
-2.02849e-13
8.12999e-13
-1.78735e-13
8.00719e-13
-1.52451e-13
7.82873e-13
-1.20755e-13
7.51925e-13
-8.5267e-14
6.97321e-13
-4.69263e-14
6.22224e-13
-3.4484e-15
5.27647e-13
4.79889e-14
4.16188e-13
1.03432e-13
2.91095e-13
1.49672e-13
1.5681e-13
1.73683e-13
2.97106e-14
1.55688e-13
-9.30156e-14
7.99343e-14
-2.02445e-13
-4.65156e-14
-2.38964e-13
-1.90388e-13
-2.14525e-13
-3.10026e-13
-1.08887e-13
-3.92124e-13
-4.48028e-14
-4.12294e-13
-2.40469e-13
5.97683e-14
9.22035e-14
2.70991e-16
7.52637e-15
-3.08179e-14
-1.22415e-13
3.22351e-14
-1.13701e-13
3.6437e-14
-1.20928e-13
1.14272e-13
-1.42925e-13
1.26947e-13
-1.33991e-13
1.56593e-13
-1.10977e-13
1.59967e-13
-8.52909e-14
1.89931e-13
-2.66174e-14
2.27411e-13
-1.57098e-14
2.76629e-13
1.53313e-14
2.55425e-13
2.13655e-14
2.45798e-13
2.76099e-14
2.38402e-13
1.95914e-14
2.26359e-13
-9.92159e-15
2.19131e-13
-2.21362e-14
2.01999e-13
-7.14015e-15
2.06722e-13
-1.1798e-14
1.55386e-13
-3.17961e-14
1.30866e-13
-3.31673e-14
1.3591e-13
-2.5475e-14
1.24757e-13
-2.45869e-14
1.22864e-13
-1.11246e-14
1.24392e-13
1.5231e-14
1.18506e-13
3.01684e-14
1.17901e-13
2.90931e-14
9.96548e-14
3.32817e-14
9.04781e-14
5.22613e-14
1.11831e-13
7.55627e-14
1.45219e-13
8.28248e-14
1.56355e-13
7.58681e-14
1.68638e-13
7.6487e-14
1.94646e-13
8.883e-14
2.21049e-13
9.16378e-14
2.35524e-13
7.65808e-14
2.40432e-13
6.35322e-14
2.57496e-13
6.37567e-14
2.81953e-13
6.15801e-14
2.99158e-13
4.51855e-14
3.08202e-13
2.13266e-14
3.14074e-13
5.5778e-15
3.22812e-13
6.15968e-15
3.42788e-13
1.75295e-14
3.70462e-13
2.65421e-14
3.91877e-13
2.39265e-14
4.03344e-13
9.16227e-15
4.09994e-13
-1.1165e-14
4.15842e-13
-2.74883e-14
4.23143e-13
-3.5409e-14
4.33065e-13
-3.94384e-14
4.48486e-13
-4.61784e-14
4.71917e-13
-5.77314e-14
5.00003e-13
-7.15663e-14
5.26469e-13
-8.35508e-14
5.4798e-13
-9.13688e-14
5.648e-13
-9.56617e-14
5.78486e-13
-9.87217e-14
5.8915e-13
-1.03366e-13
5.94386e-13
-1.12381e-13
5.91381e-13
-1.27444e-13
5.79922e-13
-1.48201e-13
5.63088e-13
-1.72805e-13
5.44842e-13
-1.995e-13
5.27128e-13
-2.27435e-13
5.09889e-13
-2.56168e-13
4.93736e-13
-2.85063e-13
4.81643e-13
-3.13365e-13
4.77622e-13
-3.40401e-13
4.83899e-13
-3.65225e-13
4.99607e-13
-3.8614e-13
5.2153e-13
-4.00954e-13
5.44939e-13
-4.0782e-13
5.64946e-13
-4.05914e-13
5.7917e-13
-3.95845e-13
5.89484e-13
-3.7974e-13
6.00909e-13
-3.60856e-13
6.17498e-13
-3.41973e-13
6.39228e-13
-3.23048e-13
6.61552e-13
-3.01656e-13
6.7571e-13
-2.76015e-13
6.75813e-13
-2.46333e-13
6.6426e-13
-2.12612e-13
6.44984e-13
-1.72473e-13
6.18925e-13
-1.26423e-13
5.79911e-13
-7.97426e-14
5.21901e-13
-3.22513e-14
4.51304e-13
2.2133e-14
3.68149e-13
8.77734e-14
2.71336e-13
1.62437e-13
1.70792e-13
2.29173e-13
6.41972e-14
2.63524e-13
-3.33018e-14
2.34061e-13
-1.2371e-13
1.11594e-13
-1.98414e-13
-8.03873e-14
-2.13514e-13
-2.80619e-13
-2.07124e-13
-4.45245e-13
-1.32165e-13
-5.32079e-13
-4.29293e-14
-5.37564e-13
-3.20186e-13
8.16345e-14
6.84559e-14
1.41619e-14
-2.38988e-14
4.80714e-14
-1.47678e-13
3.34264e-14
-1.61254e-13
1.06889e-14
-1.30124e-13
9.671e-14
-1.23262e-13
1.09909e-13
-1.29558e-13
1.19372e-13
-1.27644e-13
1.54172e-13
-1.28962e-13
1.29827e-13
-8.83313e-14
1.96076e-13
-3.76057e-14
2.21505e-13
-4.0519e-15
2.11465e-13
-3.44216e-15
2.00387e-13
-2.52704e-14
1.85635e-13
-2.80347e-14
1.98716e-13
-2.6054e-14
2.2864e-13
-4.20782e-14
2.05561e-13
-4.9845e-14
2.07048e-13
-3.98166e-14
1.81624e-13
-4.44246e-14
1.7309e-13
-5.9633e-14
1.80536e-13
-5.50589e-14
1.88273e-13
-3.09963e-14
2.02389e-13
-1.20324e-14
1.97226e-13
-9.71815e-15
1.80037e-13
-3.03276e-15
1.86362e-13
1.25249e-14
1.80168e-13
1.94291e-14
1.72272e-13
2.25587e-14
1.76804e-13
3.58562e-14
1.9442e-13
5.39392e-14
2.06678e-13
5.86631e-14
2.22928e-13
5.27548e-14
2.34736e-13
4.55692e-14
2.38738e-13
4.41085e-14
2.4752e-13
4.36442e-14
2.57013e-13
3.25439e-14
2.66271e-13
1.38858e-14
2.73581e-13
-2.74326e-15
2.79284e-13
-7.29398e-15
2.91395e-13
4.60961e-16
3.0966e-13
7.70411e-15
3.26794e-13
4.18772e-15
3.42688e-13
-7.21265e-15
3.57122e-13
-1.72391e-14
3.64892e-13
-2.08366e-14
3.69694e-13
-2.17752e-14
3.79691e-13
-2.975e-14
3.93393e-13
-4.92497e-14
4.03856e-13
-7.34325e-14
4.10169e-13
-9.13501e-14
4.19906e-13
-9.82572e-14
4.40323e-13
-9.91118e-14
4.69387e-13
-1.02997e-13
4.98543e-13
-1.14431e-13
5.2144e-13
-1.30629e-13
5.37063e-13
-1.45768e-13
5.46769e-13
-1.56721e-13
5.50717e-13
-1.6556e-13
5.47411e-13
-1.77559e-13
5.35794e-13
-1.97007e-13
5.1696e-13
-2.24259e-13
4.93923e-13
-2.55744e-13
4.69878e-13
-2.86686e-13
4.46364e-13
-3.14294e-13
4.23327e-13
-3.38765e-13
4.01275e-13
-3.61869e-13
3.83021e-13
-3.8515e-13
3.72894e-13
-4.09108e-13
3.73989e-13
-4.32879e-13
3.86054e-13
-4.53933e-13
4.05609e-13
-4.68722e-13
4.26864e-13
-4.74468e-13
4.43394e-13
-4.70316e-13
4.5132e-13
-4.5715e-13
4.51623e-13
-4.37065e-13
4.50095e-13
-4.13086e-13
4.53873e-13
-3.88094e-13
4.65588e-13
-3.62948e-13
4.80225e-13
-3.37291e-13
4.86769e-13
-3.11205e-13
4.78897e-13
-2.83318e-13
4.61168e-13
-2.49888e-13
4.35506e-13
-2.07073e-13
3.99331e-13
-1.54787e-13
3.53089e-13
-9.64313e-14
2.9838e-13
-3.07561e-14
2.43943e-13
4.42242e-14
1.88901e-13
1.24642e-13
1.25202e-13
2.03993e-13
6.06854e-14
2.64782e-13
-1.07559e-14
2.84037e-13
-8.70836e-14
2.39558e-13
-1.44385e-13
1.04626e-13
-1.66124e-13
-1.11062e-13
-1.56344e-13
-3.69151e-13
-1.49083e-13
-5.86212e-13
-1.25526e-13
-6.79511e-13
-3.36448e-14
-6.58691e-13
-4.00156e-13
9.44683e-14
3.29638e-14
3.44619e-14
-1.48976e-14
1.07827e-13
-7.69224e-14
8.02598e-14
-1.78585e-13
2.18364e-14
-2.00918e-13
7.89442e-14
-1.82315e-13
7.59376e-14
-1.88618e-13
6.82284e-14
-1.71149e-13
1.34947e-13
-1.3631e-13
1.13492e-13
-1.27616e-13
1.6443e-13
-1.03038e-13
1.67916e-13
-1.06589e-13
1.45017e-13
-1.09277e-13
1.60505e-13
-1.09775e-13
1.62466e-13
-1.14092e-13
1.71804e-13
-1.13121e-13
2.21785e-13
-1.07064e-13
2.25025e-13
-1.17314e-13
2.22636e-13
-1.28726e-13
1.98509e-13
-1.327e-13
2.17887e-13
-1.30932e-13
2.49477e-13
-1.32161e-13
2.59133e-13
-1.28348e-13
2.64393e-13
-1.11895e-13
2.67559e-13
-1.01376e-13
2.5947e-13
-9.90001e-14
2.58691e-13
-9.24246e-14
2.50351e-13
-9.0692e-14
2.5086e-13
-8.9698e-14
2.56554e-13
-7.89994e-14
2.56942e-13
-5.92142e-14
2.54451e-13
-5.21429e-14
2.63817e-13
-5.89762e-14
2.74875e-13
-7.45179e-14
2.72807e-13
-9.08226e-14
2.65216e-13
-9.82364e-14
2.62375e-13
-9.83581e-14
2.67859e-13
-9.52348e-14
2.81165e-13
-9.70999e-14
2.93837e-13
-1.05928e-13
3.01584e-13
-1.10881e-13
3.06564e-13
-1.07886e-13
3.1343e-13
-1.04151e-13
3.27744e-13
-1.04052e-13
3.45667e-13
-1.06657e-13
3.54258e-13
-1.10002e-13
3.51459e-13
-1.12315e-13
3.49831e-13
-1.15593e-13
3.58444e-13
-1.25388e-13
3.74345e-13
-1.4405e-13
3.9072e-13
-1.6664e-13
4.05602e-13
-1.8416e-13
4.21938e-13
-1.91008e-13
4.42035e-13
-1.89484e-13
4.64737e-13
-1.87124e-13
4.86946e-13
-1.90742e-13
5.04909e-13
-2.02601e-13
5.14546e-13
-2.20271e-13
5.12664e-13
-2.39334e-13
4.9876e-13
-2.56929e-13
4.75806e-13
-2.73499e-13
4.48845e-13
-2.91505e-13
4.22003e-13
-3.12669e-13
3.96349e-13
-3.36629e-13
3.70332e-13
-3.6176e-13
3.42273e-13
-3.86313e-13
3.12896e-13
-4.08616e-13
2.86055e-13
-4.2713e-13
2.67391e-13
-4.41209e-13
2.61587e-13
-4.51665e-13
2.69405e-13
-4.59783e-13
2.86744e-13
-4.65792e-13
3.061e-13
-4.68679e-13
3.1946e-13
-4.66926e-13
3.21844e-13
-4.5921e-13
3.13382e-13
-4.44784e-13
2.99992e-13
-4.23544e-13
2.90819e-13
-3.96353e-13
2.90005e-13
-3.65705e-13
2.925e-13
-3.36386e-13
2.88799e-13
-3.12359e-13
2.74736e-13
-2.89958e-13
2.5514e-13
-2.60188e-13
2.28872e-13
-2.17423e-13
1.90578e-13
-1.60777e-13
1.46183e-13
-9.2703e-14
1.00599e-13
-1.48089e-14
6.14206e-14
7.10909e-14
3.26477e-14
1.57106e-13
2.07112e-15
2.35477e-13
-2.14254e-14
2.90357e-13
-4.6193e-14
2.95947e-13
-8.65958e-14
2.23826e-13
-1.1244e-13
5.62158e-14
-1.1502e-13
-1.70043e-13
-8.70459e-14
-4.39944e-13
-5.92828e-14
-6.839e-13
-7.91778e-14
-7.99978e-13
-2.3457e-14
-7.56648e-13
-4.63323e-13
1.20074e-13
1.42398e-14
1.01837e-13
-8.51271e-14
7.24642e-14
-1.35876e-13
8.81236e-14
-1.88111e-13
4.95509e-14
-1.96179e-13
7.32955e-14
-1.93385e-13
7.44249e-14
-2.21526e-13
6.92902e-14
-2.2301e-13
9.36513e-14
-1.91417e-13
8.90281e-14
-1.82962e-13
1.08866e-13
-1.74165e-13
1.20997e-13
-1.64134e-13
1.05388e-13
-1.68432e-13
1.27674e-13
-1.70501e-13
1.46177e-13
-1.64608e-13
1.70413e-13
-1.61188e-13
2.12578e-13
-1.60429e-13
2.25238e-13
-1.72536e-13
2.38898e-13
-1.85161e-13
2.2729e-13
-1.94376e-13
2.51807e-13
-1.91913e-13
2.95738e-13
-1.867e-13
3.22629e-13
-1.8003e-13
3.26147e-13
-1.70775e-13
3.2537e-13
-1.68541e-13
3.24373e-13
-1.76503e-13
3.20197e-13
-1.79149e-13
3.10602e-13
-1.77822e-13
3.17373e-13
-1.7409e-13
3.29994e-13
-1.72956e-13
3.15661e-13
-1.70544e-13
2.95507e-13
-1.7023e-13
2.90415e-13
-1.73459e-13
2.96276e-13
-1.83249e-13
2.98891e-13
-1.97031e-13
2.92676e-13
-2.04653e-13
2.87003e-13
-2.07059e-13
2.82544e-13
-2.08778e-13
2.85245e-13
-2.10313e-13
2.98238e-13
-2.13602e-13
3.09795e-13
-2.13732e-13
3.11716e-13
-2.05013e-13
3.1247e-13
-1.93947e-13
3.22915e-13
-1.89847e-13
3.39357e-13
-1.94016e-13
3.47714e-13
-2.02858e-13
3.42078e-13
-2.1176e-13
3.32179e-13
-2.16654e-13
3.31014e-13
-2.1751e-13
3.43017e-13
-2.19092e-13
3.64745e-13
-2.26181e-13
3.90047e-13
-2.38909e-13
4.13846e-13
-2.52841e-13
4.33535e-13
-2.62944e-13
4.48921e-13
-2.67693e-13
4.61455e-13
-2.70358e-13
4.71917e-13
-2.76719e-13
4.78045e-13
-2.90901e-13
4.75086e-13
-3.12541e-13
4.59396e-13
-3.3725e-13
4.32041e-13
-3.5962e-13
3.98699e-13
-3.76415e-13
3.65347e-13
-3.87886e-13
3.34139e-13
-3.96771e-13
3.03574e-13
-4.06181e-13
2.71892e-13
-4.17856e-13
2.39713e-13
-4.31575e-13
2.1006e-13
-4.45641e-13
1.87188e-13
-4.57836e-13
1.75326e-13
-4.66329e-13
1.76253e-13
-4.70089e-13
1.87082e-13
-4.68682e-13
2.00863e-13
-4.6198e-13
2.09536e-13
-4.50145e-13
2.07673e-13
-4.34238e-13
1.94796e-13
-4.16212e-13
1.75922e-13
-3.96913e-13
1.58854e-13
-3.75302e-13
1.45913e-13
-3.50837e-13
1.32999e-13
-3.25321e-13
1.17883e-13
-3.00333e-13
1.01628e-13
-2.72199e-13
8.61218e-14
-2.36005e-13
6.60212e-14
-1.92455e-13
3.32574e-14
-1.42123e-13
-4.17713e-15
-8.32318e-14
-3.89873e-14
-1.23883e-14
-6.50457e-14
7.49141e-14
-7.20461e-14
1.6959e-13
-7.18251e-14
2.50418e-13
-5.90736e-14
2.94879e-13
-4.57295e-14
2.77936e-13
-5.6323e-14
1.86486e-13
-3.22638e-14
1.08399e-14
-2.57525e-14
-2.34016e-13
-6.171e-15
-5.07492e-13
2.84814e-14
-7.55001e-13
-1.05009e-14
-8.88027e-13
-1.35585e-14
-8.39323e-13
-5.07662e-13
6.75292e-14
-2.30341e-14
1.43015e-13
-5.78532e-14
7.59115e-14
-1.36616e-13
1.08626e-13
-1.72104e-13
7.8836e-14
-1.97008e-13
5.83208e-14
-1.95697e-13
7.01498e-14
-2.101e-13
8.08093e-14
-2.26879e-13
7.28874e-14
-2.38134e-13
6.24229e-14
-2.26289e-13
8.15036e-14
-2.13743e-13
8.51022e-14
-2.06163e-13
7.84218e-14
-2.04331e-13
1.14421e-13
-1.94142e-13
1.35749e-13
-1.7479e-13
1.66681e-13
-1.65e-13
2.03553e-13
-1.77342e-13
2.22308e-13
-2.00492e-13
2.45852e-13
-2.09252e-13
2.52082e-13
-2.06981e-13
2.83958e-13
-1.96913e-13
3.34162e-13
-1.9449e-13
3.6817e-13
-1.97331e-13
3.69324e-13
-2.01141e-13
3.60894e-13
-2.061e-13
3.66068e-13
-2.15636e-13
3.65899e-13
-2.24986e-13
3.59151e-13
-2.36129e-13
3.62077e-13
-2.42835e-13
3.74565e-13
-2.41071e-13
3.55546e-13
-2.36253e-13
3.28899e-13
-2.33514e-13
3.1388e-13
-2.35168e-13
3.11906e-13
-2.41416e-13
3.16658e-13
-2.55741e-13
3.11238e-13
-2.72064e-13
3.02201e-13
-2.80466e-13
2.94619e-13
-2.82225e-13
2.92389e-13
-2.77202e-13
3.05595e-13
-2.68641e-13
3.23488e-13
-2.65758e-13
3.25671e-13
-2.69964e-13
3.17638e-13
-2.76195e-13
3.17987e-13
-2.82926e-13
3.28185e-13
-2.90678e-13
3.35623e-13
-2.98247e-13
3.3373e-13
-3.03943e-13
3.27675e-13
-3.06491e-13
3.25343e-13
-3.06024e-13
3.31141e-13
-3.05326e-13
3.46462e-13
-3.08407e-13
3.70013e-13
-3.17379e-13
3.97368e-13
-3.31033e-13
4.2207e-13
-3.46367e-13
4.38789e-13
-3.60919e-13
4.46431e-13
-3.73771e-13
4.47587e-13
-3.85314e-13
4.4466e-13
-3.96507e-13
4.37013e-13
-4.08119e-13
4.21938e-13
-4.2029e-13
3.98106e-13
-4.32516e-13
3.67515e-13
-4.44122e-13
3.33603e-13
-4.54906e-13
2.98206e-13
-4.65043e-13
2.61284e-13
-4.74167e-13
2.23094e-13
-4.80903e-13
1.85716e-13
-4.83811e-13
1.52608e-13
-4.8262e-13
1.27574e-13
-4.78093e-13
1.14071e-13
-4.71103e-13
1.13329e-13
-4.62452e-13
1.22142e-13
-4.53023e-13
1.33279e-13
-4.43285e-13
1.3794e-13
-4.32625e-13
1.29976e-13
-4.19797e-13
1.10039e-13
-4.03516e-13
8.50529e-14
-3.81691e-13
6.26083e-14
-3.53079e-13
4.29619e-14
-3.20941e-13
2.20316e-14
-2.91202e-13
2.43245e-15
-2.66797e-13
-1.31898e-14
-2.44495e-13
-2.78148e-14
-2.18768e-13
-4.61542e-14
-1.87188e-13
-7.36514e-14
-1.45922e-13
-1.00046e-13
-9.15586e-14
-1.14691e-13
-2.46664e-14
-1.19985e-13
5.56765e-14
-1.1127e-13
1.39418e-13
-9.30919e-14
2.07678e-13
-6.11725e-14
2.46344e-13
-1.52858e-14
2.28741e-13
5.78482e-15
1.2615e-13
6.04278e-14
-4.50686e-14
7.87027e-14
-2.97693e-13
8.03055e-14
-5.73155e-13
9.66737e-14
-8.15166e-13
5.06466e-14
-9.51634e-13
-2.64959e-15
-9.03436e-13
-5.38313e-13
4.76974e-14
-1.26591e-13
1.117e-13
-1.11866e-13
9.42548e-14
-1.35105e-13
1.14774e-13
-1.48075e-13
1.08633e-13
-2.06941e-13
6.34315e-14
-2.73235e-13
6.52216e-14
-3.0886e-13
6.24063e-14
-3.08231e-13
7.06325e-14
-2.94912e-13
5.26117e-14
-3.05518e-13
7.01674e-14
-2.81925e-13
6.87057e-14
-2.50905e-13
7.2405e-14
-2.27115e-13
1.2079e-13
-2.20161e-13
1.37595e-13
-2.15776e-13
1.51868e-13
-2.04072e-13
1.8385e-13
-2.02392e-13
2.20677e-13
-2.15337e-13
2.58158e-13
-2.20441e-13
2.76768e-13
-2.19319e-13
3.05527e-13
-2.14986e-13
3.54063e-13
-2.13636e-13
3.89106e-13
-2.15243e-13
3.91754e-13
-2.24826e-13
3.80131e-13
-2.42253e-13
3.86411e-13
-2.62197e-13
3.85454e-13
-2.7705e-13
3.83536e-13
-2.85432e-13
3.93222e-13
-2.93619e-13
4.07361e-13
-2.9976e-13
3.85616e-13
-3.07913e-13
3.52838e-13
-3.14257e-13
3.30588e-13
-3.24621e-13
3.17158e-13
-3.36717e-13
3.17154e-13
-3.47455e-13
3.17417e-13
-3.54999e-13
3.1248e-13
-3.49733e-13
3.09381e-13
-3.39226e-13
3.08227e-13
-3.37618e-13
3.13476e-13
-3.42783e-13
3.2263e-13
-3.48597e-13
3.21286e-13
-3.52217e-13
3.11243e-13
-3.50013e-13
3.09458e-13
-3.43848e-13
3.19253e-13
-3.41581e-13
3.28447e-13
-3.47756e-13
3.29923e-13
-3.59777e-13
3.27048e-13
-3.71656e-13
3.24703e-13
-3.79138e-13
3.26069e-13
-3.817e-13
3.34636e-13
-3.81402e-13
3.52713e-13
-3.8123e-13
3.77911e-13
-3.83882e-13
4.03227e-13
-3.90818e-13
4.21517e-13
-4.01823e-13
4.30083e-13
-4.15387e-13
4.30845e-13
-4.2963e-13
4.26491e-13
-4.4315e-13
4.1714e-13
-4.5539e-13
4.00748e-13
-4.66351e-13
3.76062e-13
-4.75895e-13
3.44513e-13
-4.8348e-13
3.09141e-13
-4.88628e-13
2.7234e-13
-4.91174e-13
2.35091e-13
-4.90824e-13
1.9775e-13
-4.86985e-13
1.61241e-13
-4.79465e-13
1.27919e-13
-4.69038e-13
1.01386e-13
-4.56802e-13
8.51814e-14
-4.43351e-13
8.0558e-14
-4.29046e-13
8.48338e-14
-4.14408e-13
9.19301e-14
-3.9993e-13
9.37364e-14
-3.85921e-13
8.40736e-14
-3.72483e-13
6.41679e-14
-3.59198e-13
4.01117e-14
-3.44563e-13
1.5454e-14
-3.28019e-13
-1.18604e-14
-3.12223e-13
-4.31183e-14
-2.98534e-13
-6.98316e-14
-2.83669e-13
-8.68665e-14
-2.63065e-13
-9.99341e-14
-2.3378e-13
-1.11976e-13
-1.96813e-13
-1.28229e-13
-1.53362e-13
-1.41692e-13
-1.01267e-13
-1.3788e-13
-4.05872e-14
-1.2653e-13
2.82957e-14
-1.05919e-13
9.56726e-14
-7.01054e-14
1.47254e-13
-2.14341e-14
1.7403e-13
3.38253e-14
1.52685e-13
8.88175e-14
4.86386e-14
1.44159e-13
-1.1223e-13
1.70019e-13
-3.57262e-13
1.52453e-13
-6.20749e-13
1.41923e-13
-8.55778e-13
8.41438e-14
-9.84421e-13
7.03087e-15
-9.27464e-13
-5.41724e-13
6.76609e-14
-1.17835e-13
9.97307e-14
-1.27003e-13
1.15531e-13
-1.11922e-13
9.15139e-14
-1.5642e-13
7.51808e-14
-1.95384e-13
5.46718e-14
-2.21242e-13
7.72686e-14
-2.3526e-13
8.07047e-14
-2.68198e-13
5.88859e-14
-2.49401e-13
6.97035e-14
-2.32665e-13
8.97959e-14
-2.06896e-13
8.23575e-14
-1.94423e-13
7.2326e-14
-1.77419e-13
1.18791e-13
-1.64008e-13
1.44381e-13
-1.5144e-13
1.50842e-13
-1.37746e-13
1.72742e-13
-1.2467e-13
2.20326e-13
-1.24488e-13
2.65476e-13
-1.19521e-13
2.89262e-13
-1.03269e-13
3.17909e-13
-9.1363e-14
3.66097e-13
-9.40388e-14
3.94279e-13
-1.04582e-13
3.90797e-13
-1.19477e-13
3.78046e-13
-1.41144e-13
3.89679e-13
-1.64247e-13
3.95033e-13
-1.84886e-13
3.92867e-13
-1.98099e-13
4.04738e-13
-2.11928e-13
4.16196e-13
-2.26538e-13
3.95607e-13
-2.47235e-13
3.57369e-13
-2.62119e-13
3.32655e-13
-2.70616e-13
3.19452e-13
-2.74434e-13
3.20837e-13
-2.74726e-13
3.31981e-13
-2.80799e-13
3.30162e-13
-2.87066e-13
3.16741e-13
-2.83511e-13
3.07696e-13
-2.7654e-13
3.10854e-13
-2.71755e-13
3.21058e-13
-2.69952e-13
3.25029e-13
-2.74544e-13
3.18609e-13
-2.83645e-13
3.12522e-13
-2.90338e-13
3.13364e-13
-2.93017e-13
3.16109e-13
-2.96311e-13
3.17245e-13
-3.04604e-13
3.18685e-13
-3.18314e-13
3.21612e-13
-3.34432e-13
3.26246e-13
-3.49329e-13
3.34749e-13
-3.61606e-13
3.49644e-13
-3.72715e-13
3.69941e-13
-3.85183e-13
3.90506e-13
-4.00447e-13
4.05694e-13
-4.18086e-13
4.13298e-13
-4.36503e-13
4.14663e-13
-4.54056e-13
4.11379e-13
-4.69762e-13
4.02796e-13
-4.83401e-13
3.86951e-13
-4.95165e-13
3.6306e-13
-5.04952e-13
3.32618e-13
-5.11861e-13
2.98449e-13
-5.14429e-13
2.63088e-13
-5.11351e-13
2.27773e-13
-5.02116e-13
1.92428e-13
-4.87349e-13
1.56983e-13
-4.68699e-13
1.23404e-13
-4.48153e-13
9.5741e-14
-4.271e-13
7.77861e-14
-4.0602e-13
7.06954e-14
-3.85071e-13
7.18598e-14
-3.64568e-13
7.54147e-14
-3.45556e-13
7.34655e-14
-3.30199e-13
6.02859e-14
-3.19926e-13
3.81504e-14
-3.1331e-13
1.2463e-14
-3.06936e-13
-1.61024e-14
-2.98684e-13
-4.83691e-14
-2.89209e-13
-8.12416e-14
-2.77425e-13
-1.04913e-13
-2.6011e-13
-1.1574e-13
-2.37403e-13
-1.23226e-13
-2.09975e-13
-1.30425e-13
-1.79148e-13
-1.39042e-13
-1.47071e-13
-1.43599e-13
-1.08672e-13
-1.27463e-13
-6.05645e-14
-1.06289e-13
-7.92649e-15
-7.66234e-14
3.95238e-14
-2.55389e-14
6.87406e-14
3.80892e-14
8.74374e-14
8.86495e-14
6.61582e-14
1.73703e-13
-3.19835e-14
2.11652e-13
-1.86045e-13
2.38314e-13
-4.17439e-13
1.94652e-13
-6.6337e-13
1.61557e-13
-8.76186e-13
9.74908e-14
-9.89296e-13
1.44836e-14
-9.19775e-13
-5.25836e-13
3.37723e-14
-9.59523e-14
9.98978e-14
-7.847e-14
8.71824e-14
-5.06912e-14
8.72715e-14
-9.83662e-14
7.79886e-14
-1.52748e-13
7.20952e-14
-1.85395e-13
6.39615e-14
-1.72601e-13
1.14584e-13
-1.63928e-13
7.62971e-14
-1.79341e-13
9.60886e-14
-1.64707e-13
9.88407e-14
-1.50888e-13
9.5407e-14
-1.39957e-13
8.08552e-14
-1.1744e-13
1.27375e-13
-9.60776e-14
1.54767e-13
-7.18134e-14
1.63577e-13
-4.84988e-14
1.74933e-13
-2.03707e-14
2.28085e-13
4.28243e-15
2.84802e-13
2.14785e-14
3.05437e-13
3.90684e-14
3.21441e-13
5.54675e-14
3.6311e-13
5.8343e-14
3.87457e-13
4.22562e-14
3.78017e-13
2.111e-14
3.64274e-13
-6.61907e-16
3.77953e-13
-2.11455e-14
3.91449e-13
-4.40511e-14
3.8822e-13
-6.34036e-14
3.99328e-13
-7.82309e-14
4.04149e-13
-9.12894e-14
3.89586e-13
-1.11547e-13
3.57403e-13
-1.34485e-13
3.36812e-13
-1.5252e-13
3.26104e-13
-1.63895e-13
3.20345e-13
-1.66221e-13
3.30242e-13
-1.67644e-13
3.37357e-13
-1.76049e-13
3.26569e-13
-1.82189e-13
3.15059e-13
-1.80737e-13
3.15236e-13
-1.77538e-13
3.1909e-13
-1.77909e-13
3.18248e-13
-1.85392e-13
3.13258e-13
-2.00183e-13
3.10059e-13
-2.16304e-13
3.09604e-13
-2.27725e-13
3.07061e-13
-2.33808e-13
3.02639e-13
-2.38356e-13
3.0165e-13
-2.47028e-13
3.05945e-13
-2.63883e-13
3.13453e-13
-2.88425e-13
3.2335e-13
-3.1633e-13
3.36939e-13
-3.43011e-13
3.54258e-13
-3.66521e-13
3.72142e-13
-3.87788e-13
3.86289e-13
-4.08803e-13
3.94596e-13
-4.30695e-13
3.97675e-13
-4.53038e-13
3.96264e-13
-4.74403e-13
3.89294e-13
-4.93332e-13
3.75119e-13
-5.08882e-13
3.5375e-13
-5.20456e-13
3.27188e-13
-5.27241e-13
2.98034e-13
-5.27905e-13
2.68012e-13
-5.21014e-13
2.37263e-13
-5.06044e-13
2.04742e-13
-4.84098e-13
1.70071e-13
-4.57413e-13
1.35851e-13
-4.28268e-13
1.07064e-13
-3.98678e-13
8.77801e-14
-3.70674e-13
7.88729e-14
-3.46053e-13
7.69528e-14
-3.25551e-13
7.51056e-14
-3.09309e-13
6.61884e-14
-2.9811e-13
4.72446e-14
-2.91539e-13
2.26326e-14
-2.86218e-13
-3.15181e-15
-2.78854e-13
-3.20158e-14
-2.6912e-13
-6.33619e-14
-2.58558e-13
-9.21408e-14
-2.46615e-13
-1.11837e-13
-2.31665e-13
-1.19287e-13
-2.16617e-13