/*--------------------------------*- C++ -*----------------------------------*\
| =========                 |                                                 |
| \\      /  F ield         | OpenFOAM: The Open Source CFD Toolbox           |
|  \\    /   O peration     | Version:  2406                                  |
|   \\  /    A nd           | Website:  www.openfoam.com                      |
|    \\/     M anipulation  |                                                 |
\*---------------------------------------------------------------------------*/
FoamFile
{
    version     2.0;
    format      ascii;
    arch        "LSB;label=32;scalar=64";
    class       volScalarField;
    location    "1";
    object      p;
}
// * * * * * * * * * * * * * * * * * * * * * * * * * * * * * * * * * * * * * //

dimensions      [1 -1 -2 0 0 0 0];

internalField   nonuniform List<scalar> 
10000
(
1903.74
1903.55
1903.58
1903.63
1904.39
1905.38
1906.16
1906.91
1908.39
1909.75
1911.28
1913.01
1914.69
1916.56
1918.44
1920.42
1922.5
1924.55
1926.57
1928.57
1930.64
1932.54
1934.33
1936.11
1937.87
1939.58
1941.35
1943.11
1944.75
1946.41
1948.28
1950.31
1952.36
1954.45
1956.76
1959.24
1961.74
1964.25
1966.85
1969.53
1972.22
1974.91
1977.58
1980.22
1982.87
1985.53
1988.2
1990.89
1993.6
1996.3
1998.97
2001.63
2004.34
2007.12
2009.97
2012.85
2015.75
2018.67
2021.59
2024.54
2027.54
2030.53
2033.46
2036.26
2038.9
2041.38
2043.69
2045.82
2047.75
2049.5
2051.08
2052.5
2053.79
2054.97
2056.04
2057.02
2057.91
2058.75
2059.52
2060.23
2060.88
2061.48
2062.05
2062.61
2063.19
2063.8
2064.44
2065.09
2065.77
2066.44
2067.13
2067.81
2068.46
2069.04
2069.51
2069.87
2070.05
2070.03
2069.81
2069.51
1765.77
1765.89
1766.22
1766.18
1766.8
1767.71
1768.64
1769.58
1770.87
1772.26
1773.72
1775.37
1777.06
1778.92
1780.86
1782.86
1784.85
1786.82
1788.86
1790.81
1792.83
1794.77
1796.57
1798.34
1800.16
1801.96
1803.73
1805.48
1807.2
1808.97
1810.86
1812.84
1814.9
1817.04
1819.33
1821.78
1824.3
1826.83
1829.4
1832.05
1834.72
1837.39
1840.04
1842.68
1845.33
1847.97
1850.59
1853.24
1855.9
1858.57
1861.25
1863.94
1866.67
1869.46
1872.31
1875.21
1878.13
1881.07
1884.04
1887.05
1890.07
1893.07
1895.99
1898.8
1901.46
1903.97
1906.28
1908.39
1910.3
1912.01
1913.55
1914.95
1916.23
1917.39
1918.46
1919.45
1920.36
1921.21
1921.99
1922.69
1923.32
1923.9
1924.46
1925.04
1925.64
1926.27
1926.91
1927.55
1928.2
1928.86
1929.55
1930.24
1930.9
1931.47
1931.91
1932.23
1932.45
1932.55
1932.46
1932.13
1628.09
1628.06
1628.47
1628.75
1629.16
1630.18
1631.18
1632.25
1633.49
1634.87
1636.34
1637.98
1639.66
1641.48
1643.33
1645.27
1647.26
1649.14
1651.14
1653.12
1655.09
1656.99
1658.82
1660.68
1662.54
1664.37
1666.25
1668.14
1669.9
1671.68
1673.65
1675.72
1677.77
1679.88
1682.21
1684.69
1687.19
1689.71
1692.27
1694.88
1697.53
1700.19
1702.84
1705.42
1708.01
1710.61
1713.22
1715.85
1718.51
1721.17
1723.81
1726.47
1729.2
1732.02
1734.89
1737.8
1740.74
1743.71
1746.73
1749.77
1752.83
1755.84
1758.77
1761.57
1764.2
1766.66
1768.9
1770.93
1772.75
1774.38
1775.87
1777.24
1778.51
1779.68
1780.76
1781.75
1782.66
1783.5
1784.27
1784.96
1785.59
1786.18
1786.75
1787.33
1787.93
1788.55
1789.19
1789.83
1790.47
1791.11
1791.76
1792.42
1793.08
1793.68
1794.13
1794.42
1794.54
1794.59
1794.62
1794.44
1490.58
1490.7
1490.96
1491.3
1491.58
1492.48
1493.56
1494.75
1496.1
1497.53
1498.95
1500.52
1502.14
1503.95
1505.8
1507.6
1509.47
1511.35
1513.3
1515.22
1517.2
1519.1
1520.92
1522.83
1524.83
1526.76
1528.67
1530.62
1532.55
1534.47
1536.42
1538.48
1540.58
1542.75
1545.06
1547.52
1550.01
1552.51
1555.03
1557.61
1560.23
1562.85
1565.45
1568.04
1570.65
1573.27
1575.85
1578.42
1581
1583.6
1586.23
1588.9
1591.61
1594.39
1597.26
1600.21
1603.23
1606.26
1609.3
1612.34
1615.39
1618.4
1621.32
1624.08
1626.67
1629.04
1631.18
1633.1
1634.82
1636.38
1637.81
1639.14
1640.38
1641.55
1642.64
1643.67
1644.62
1645.48
1646.25
1646.96
1647.61
1648.22
1648.81
1649.38
1649.96
1650.54
1651.14
1651.74
1652.34
1652.96
1653.6
1654.25
1654.88
1655.49
1656
1656.33
1656.45
1656.45
1656.48
1656.43
1352.41
1352.42
1352.99
1353.6
1354.1
1354.94
1355.98
1357.19
1358.56
1360
1361.5
1363.17
1364.77
1366.4
1368.07
1369.81
1371.52
1373.35
1375.28
1377.14
1379.06
1380.99
1382.9
1384.88
1386.92
1388.91
1390.95
1393.04
1395.03
1397
1399.05
1401.15
1403.27
1405.48
1407.84
1410.27
1412.7
1415.13
1417.65
1420.23
1422.82
1425.37
1427.89
1430.44
1433.06
1435.69
1438.25
1440.76
1443.29
1445.88
1448.5
1451.14
1453.82
1456.59
1459.46
1462.44
1465.47
1468.53
1471.59
1474.68
1477.76
1480.8
1483.72
1486.44
1488.94
1491.18
1493.19
1494.97
1496.57
1498.04
1499.41
1500.71
1501.94
1503.12
1504.24
1505.3
1506.28
1507.17
1507.99
1508.73
1509.42
1510.06
1510.66
1511.21
1511.74
1512.28
1512.82
1513.37
1513.93
1514.5
1515.11
1515.73
1516.36
1517.01
1517.58
1517.99
1518.21
1518.19
1518.16
1518.21
1214.42
1214.5
1214.96
1215.63
1216.3
1217.34
1218.41
1219.69
1220.99
1222.42
1223.94
1225.5
1227.09
1228.73
1230.27
1231.88
1233.45
1235.21
1237.09
1238.93
1240.84
1242.72
1244.67
1246.78
1248.92
1250.99
1253.1
1255.28
1257.38
1259.45
1261.55
1263.73
1265.93
1268.18
1270.52
1272.92
1275.35
1277.79
1280.26
1282.76
1285.28
1287.79
1290.26
1292.76
1295.34
1297.94
1300.5
1303.02
1305.54
1308.08
1310.63
1313.21
1315.88
1318.66
1321.56
1324.58
1327.64
1330.71
1333.79
1336.88
1339.96
1342.97
1345.84
1348.5
1350.9
1353.02
1354.88
1356.53
1358.01
1359.38
1360.69
1361.94
1363.16
1364.35
1365.51
1366.6
1367.63
1368.58
1369.44
1370.23
1370.95
1371.61
1372.2
1372.74
1373.25
1373.74
1374.22
1374.7
1375.19
1375.74
1376.32
1376.96
1377.62
1378.25
1378.83
1379.33
1379.67
1379.76
1379.71
1379.77
1076.11
1076.45
1076.89
1077.62
1078.36
1079.51
1080.59
1081.98
1083.39
1084.73
1086.22
1087.74
1089.28
1090.77
1092.17
1093.68
1095.2
1096.93
1098.74
1100.47
1102.39
1104.35
1106.34
1108.54
1110.78
1112.93
1115.14
1117.44
1119.63
1121.78
1123.99
1126.27
1128.53
1130.79
1133.16
1135.59
1137.99
1140.36
1142.78
1145.26
1147.78
1150.27
1152.7
1155.15
1157.68
1160.25
1162.79
1165.27
1167.76
1170.28
1172.85
1175.46
1178.13
1180.89
1183.76
1186.75
1189.81
1192.91
1196.03
1199.14
1202.18
1205.12
1207.89
1210.43
1212.71
1214.72
1216.47
1217.99
1219.36
1220.63
1221.85
1223.06
1224.26
1225.45
1226.61
1227.73
1228.78
1229.76
1230.69
1231.54
1232.32
1233
1233.58
1234.08
1234.54
1234.97
1235.38
1235.81
1236.27
1236.77
1237.33
1237.96
1238.62
1239.26
1239.84
1240.37
1240.83
1241.06
1241.07
1241.08
937.882
938.142
938.682
939.456
940.281
941.445
942.661
943.873
945.256
946.632
948.091
949.49
950.947
952.375
953.701
955.146
956.61
958.266
960.063
961.822
963.742
965.735
967.776
970.033
972.392
974.652
976.915
979.253
981.574
983.859
986.155
988.48
990.792
993.096
995.452
997.846
1000.23
1002.59
1004.99
1007.46
1009.98
1012.47
1014.88
1017.28
1019.79
1022.39
1024.98
1027.5
1029.96
1032.41
1034.9
1037.49
1040.19
1043
1045.91
1048.9
1051.96
1055.06
1058.18
1061.27
1064.29
1067.16
1069.82
1072.25
1074.4
1076.29
1077.93
1079.38
1080.67
1081.88
1083.05
1084.19
1085.34
1086.5
1087.65
1088.77
1089.85
1090.88
1091.86
1092.75
1093.53
1094.19
1094.73
1095.2
1095.64
1096.05
1096.45
1096.85
1097.27
1097.72
1098.26
1098.89
1099.54
1100.17
1100.79
1101.32
1101.84
1102.15
1102.25
1102.24
799.703
800.045
800.538
801.305
802.142
803.149
804.398
805.641
806.932
808.224
809.602
810.97
812.288
813.672
814.966
816.362
817.836
819.471
821.218
823.008
824.947
826.964
829.109
831.435
833.813
836.119
838.497
840.892
843.238
845.578
848.004
850.433
852.737
854.978
857.305
859.74
862.166
864.5
866.792
869.176
871.703
874.282
876.803
879.267
881.746
884.266
886.797
889.312
891.807
894.292
896.797
899.365
902.035
904.832
907.754
910.773
913.842
916.924
919.991
923.017
925.959
928.761
931.364
933.72
935.801
937.61
939.178
940.561
941.814
942.986
944.119
945.241
946.37
947.507
948.641
949.763
950.864
951.933
952.953
953.887
954.694
955.362
955.909
956.37
956.766
957.112
957.454
957.828
958.238
958.698
959.22
959.81
960.434
961.022
961.692
962.232
962.755
963.084
963.239
963.263
661.376
661.77
662.314
663.024
663.831
664.756
665.736
666.923
668.192
669.469
670.766
672.122
673.386
674.717
676.042
677.452
678.929
680.58
682.285
684.096
686.089
688.118
690.279
692.644
695.058
697.351
699.732
702.182
704.595
706.952
709.376
711.854
714.232
716.483
718.716
721.032
723.432
725.834
728.184
730.565
733.058
735.627
738.191
740.727
743.254
745.776
748.28
750.771
753.26
755.758
758.279
760.853
763.519
766.307
769.219
772.224
775.269
778.309
781.316
784.267
787.131
789.865
792.416
794.738
796.798
798.595
800.158
801.538
802.788
803.958
805.092
806.22
807.356
808.495
809.629
810.756
811.875
812.98
814.045
815.02
815.852
816.526
817.064
817.502
817.867
818.18
818.493
818.839
819.219
819.669
820.179
820.736
821.301
821.859
822.51
823.057
823.557
823.854
824.046
824.078
523.275
523.465
523.998
524.581
525.302
526.195
527.122
528.153
529.332
530.571
531.848
533.164
534.497
535.81
537.194
538.672
540.14
541.776
543.491
545.33
547.334
549.372
551.536
553.884
556.285
558.575
560.929
563.371
565.805
568.204
570.643
573.118
575.494
577.746
579.985
582.292
584.689
587.115
589.509
591.921
594.429
597.005
599.583
602.138
604.672
607.177
609.648
612.093
614.539
617.011
619.53
622.111
624.776
627.544
630.422
633.384
636.387
639.382
642.338
645.232
648.04
650.726
653.248
655.564
657.645
659.488
661.115
662.566
663.881
665.106
666.284
667.443
668.593
669.732
670.858
671.979
673.106
674.228
675.308
676.291
677.127
677.811
678.363
678.804
679.155
679.445
679.724
680.021
680.352
680.758
681.221
681.723
682.229
682.785
683.358
683.867
684.311
684.558
684.794
684.801
385.27
385.338
385.793
386.25
386.918
387.574
388.489
389.434
390.577
391.826
393.121
394.386
395.774
397.149
398.567
400.104
401.66
403.321
405.052
406.938
408.981
411.041
413.193
415.511
417.875
420.168
422.488
424.894
427.309
429.737
432.208
434.706
437.126
439.411
441.654
443.959
446.373
448.849
451.318
453.789
456.305
458.851
461.397
463.931
466.439
468.894
471.291
473.657
476.033
478.454
480.935
483.48
486.098
488.807
491.618
494.512
497.447
500.378
503.275
506.117
508.884
511.548
514.072
516.418
518.561
520.493
522.226
523.78
525.19
526.5
527.751
528.967
530.153
531.305
532.424
533.522
534.618
535.712
536.767
537.731
538.555
539.233
539.78
540.204
540.537
540.826
541.099
541.366
541.633
541.947
542.342
542.766
543.193
543.714
544.178
544.621
544.971
545.16
545.374
545.413
247.275
247.22
247.544
247.879
248.517
249.14
250.008
250.982
252.085
253.303
254.635
255.985
257.362
258.807
260.319
261.932
263.581
265.32
267.131
269.082
271.151
273.246
275.42
277.741
280.052
282.31
284.595
286.997
289.429
291.88
294.363
296.842
299.277
301.613
303.879
306.193
308.629
311.141
313.651
316.147
318.642
321.126
323.588
326.042
328.481
330.876
333.217
335.521
337.821
340.155
342.542
344.991
347.514
350.128
352.836
355.62
358.44
361.261
364.061
366.825
369.536
372.171
374.697
377.084
379.309
381.358
383.227
384.923
386.468
387.901
389.251
390.536
391.755
392.907
394.003
395.066
396.119
397.169
398.182
399.112
399.92
400.597
401.149
401.57
401.895
402.183
402.437
402.662
402.87
403.076
403.379
403.694
404.032
404.463
404.788
405.131
405.378
405.516
405.614
405.665
109.321
109.246
109.449
109.757
110.222
110.963
111.754
112.74
113.872
115.064
116.357
117.792
119.249
120.77
122.389
124.154
125.947
127.784
129.681
131.75
133.906
136.06
138.243
140.565
142.874
145.141
147.416
149.795
152.253
154.737
157.217
159.623
161.977
164.317
166.625
168.955
171.361
173.802
176.23
178.652
181.086
183.517
185.925
188.307
190.657
192.962
195.223
197.455
199.682
201.93
204.217
206.557
208.966
211.457
214.031
216.663
219.322
221.984
224.641
227.289
229.918
232.51
235.038
237.474
239.794
241.975
243.996
245.849
247.548
249.121
250.59
251.965
253.243
254.422
255.515
256.547
257.545
258.522
259.461
260.333
261.119
261.805
262.376
262.804
263.126
263.407
263.653
263.854
263.987
264.085
264.268
264.452
264.679
264.981
265.16
265.352
265.482
265.528
265.537
265.526
-28.7039
-28.7259
-28.5892
-28.181
-27.7907
-27.0691
-26.2647
-25.3167
-24.1932
-22.9878
-21.6494
-20.1915
-18.6091
-16.9635
-15.2283
-13.3288
-11.3781
-9.38514
-7.37509
-5.20057
-2.94854
-0.712666
1.49679
3.79742
6.11851
8.42647
10.7578
13.1254
15.5744
18.0517
20.522
22.9082
25.1994
27.47
29.7382
32.036
34.388
36.7454
39.0646
41.3611
43.6698
46.0016
48.3382
50.6458
52.8922
55.0695
57.2033
59.3316
61.4798
63.6552
65.8559
68.0859
70.3639
72.7118
75.1329
77.6046
80.0953
82.5848
85.0715
87.5639
90.0679
92.5797
95.0838
97.5566
99.9662
102.274
104.444
106.458
108.319
110.045
111.645
113.121
114.468
115.682
116.775
117.776
118.718
119.624
120.488
121.296
122.051
122.739
123.326
123.784
124.128
124.405
124.619
124.787
124.857
124.875
124.922
124.962
125.041
125.179
125.225
125.255
125.274
125.174
125.128
125.103
-166.527
-166.496
-166.364
-166.012
-165.507
-164.873
-164.043
-163.118
-162.052
-160.859
-159.449
-157.937
-156.273
-154.521
-152.65
-150.616
-148.533
-146.393
-144.232
-141.953
-139.628
-137.317
-135.039
-132.747
-130.421
-128.086
-125.678
-123.269
-120.801
-118.317
-115.884
-113.531
-111.268
-109.074
-106.897
-104.676
-102.405
-100.151
-97.9582
-95.8151
-93.6842
-91.5299
-89.3461
-87.1691
-85.048
-83.0023
-81.0042
-79.0004
-76.9526
-74.8567
-72.7323
-70.5949
-68.4371
-66.2375
-63.9851
-61.6908
-59.3766
-57.0568
-54.7299
-52.3837
-50.005
-47.5864
-45.1292
-42.6477
-40.1743
-37.7571
-35.4443
-33.2656
-31.2312
-29.3445
-27.6117
-26.0409
-24.637
-23.3975
-22.3014
-21.3119
-20.3956
-19.5328
-18.7316
-17.9993
-17.3061
-16.6464
-16.0579
-15.5745
-15.2126
-14.9466
-14.7642
-14.6631
-14.6635
-14.6998
-14.7826
-14.8922
-14.9736
-14.9994
-15.0854
-15.1965
-15.2727
-15.4351
-15.5483
-15.5252
-304.334
-304.29
-304.042
-303.7
-303.191
-302.615
-301.853
-300.934
-299.859
-298.657
-297.274
-295.703
-293.968
-292.143
-290.183
-288.041
-285.844
-283.602
-281.311
-278.931
-276.557
-274.238
-271.916
-269.594
-267.214
-264.811
-262.329
-259.864
-257.395
-254.912
-252.518
-250.214
-247.952
-245.773
-243.689
-241.616
-239.502
-237.392
-235.336
-233.34
-231.381
-229.418
-227.426
-225.427
-223.458
-221.535
-219.634
-217.709
-215.728
-213.696
-211.639
-209.577
-207.508
-205.416
-203.291
-201.142
-198.985
-196.826
-194.657
-192.46
-190.212
-187.892
-185.489
-183.008
-180.485
-177.975
-175.54
-173.221
-171.041
-169.012
-167.147
-165.46
-163.966
-162.672
-161.562
-160.592
-159.71
-158.883
-158.114
-157.413
-156.759
-156.151
-155.608
-155.139
-154.781
-154.55
-154.4
-154.376
-154.465
-154.569
-154.757
-155.005
-155.249
-155.416
-155.614
-155.826
-156.006
-156.124
-156.246
-156.193
-442.036
-441.975
-441.791
-441.367
-440.919
-440.305
-439.593
-438.745
-437.678
-436.452
-435.088
-433.51
-431.736
-429.878
-427.894
-425.699
-423.415
-421.098
-418.741
-416.326
-413.931
-411.614
-409.261
-406.89
-404.454
-401.97
-399.447
-396.928
-394.452
-391.974
-389.591
-387.345
-385.166
-383.064
-381.079
-379.161
-377.237
-375.302
-373.396
-371.546
-369.753
-367.976
-366.183
-364.375
-362.567
-360.76
-358.926
-357.031
-355.06
-353.035
-350.993
-348.961
-346.939
-344.915
-342.882
-340.846
-338.816
-336.791
-334.758
-332.69
-330.56
-328.335
-325.993
-323.534
-320.992
-318.427
-315.9
-313.461
-311.144
-308.975
-306.974
-305.166
-303.574
-302.213
-301.068
-300.089
-299.213
-298.405
-297.655
-296.961
-296.319
-295.747
-295.258
-294.839
-294.525
-294.345
-294.233
-294.274
-294.451
-294.645
-294.919
-295.253
-295.629
-295.922
-296.196
-296.451
-296.668
-296.757
-296.801
-296.725
-579.674
-579.535
-579.394
-579.025
-578.598
-578.015
-577.3
-576.459
-575.394
-574.208
-572.844
-571.3
-569.523
-567.648
-565.647
-563.436
-561.12
-558.771
-556.379
-553.958
-551.573
-549.267
-546.915
-544.507
-542.036
-539.464
-536.913
-534.373
-531.894
-529.481
-527.169
-524.983
-522.891
-520.891
-519.005
-517.216
-515.478
-513.76
-512.061
-510.391
-508.753
-507.126
-505.491
-503.845
-502.185
-500.485
-498.706
-496.821
-494.833
-492.785
-490.728
-488.694
-486.685
-484.691
-482.71
-480.747
-478.81
-476.894
-474.979
-473.036
-471.024
-468.902
-466.636
-464.222
-461.695
-459.115
-456.543
-454.031
-451.623
-449.353
-447.245
-445.33
-443.636
-442.185
-440.966
-439.927
-439.007
-438.18
-437.43
-436.735
-436.102
-435.558
-435.123
-434.773
-434.534
-434.407
-434.333
-434.415
-434.649
-434.925
-435.273
-435.636
-436.066
-436.435
-436.734
-437.001
-437.153
-437.247
-437.226
-437.146
-717.16
-717.107
-716.9
-716.656
-716.19
-715.651
-714.966
-714.125
-713.059
-711.9
-710.539
-708.996
-707.242
-705.391
-703.378
-701.162
-698.844
-696.523
-694.136
-691.704
-689.325
-687
-684.631
-682.175
-679.666
-677.036
-674.476
-671.981
-669.501
-667.112
-664.878
-662.77
-660.767
-658.889
-657.14
-655.487
-653.897
-652.343
-650.814
-649.31
-647.822
-646.33
-644.822
-643.296
-641.738
-640.11
-638.364
-636.478
-634.47
-632.397
-630.319
-628.272
-626.263
-624.284
-622.338
-620.435
-618.582
-616.773
-614.983
-613.173
-611.296
-609.299
-607.144
-604.829
-602.385
-599.866
-597.323
-594.803
-592.349
-590
-587.792
-585.766
-583.968
-582.418
-581.108
-579.985
-578.995
-578.124
-577.35
-576.651
-576.042
-575.536
-575.139
-574.847
-574.705
-574.629
-574.601
-574.713
-574.982
-575.304
-575.684
-576.036
-576.454
-576.833
-577.109
-577.351
-577.459
-577.547
-577.514
-577.497
-854.51
-854.537
-854.368
-854.139
-853.667
-853.085
-852.366
-851.525
-850.467
-849.281
-847.938
-846.38
-844.64
-842.836
-840.848
-838.651
-836.336
-834.046
-831.691
-829.233
-826.834
-824.471
-822.086
-819.62
-817.082
-814.44
-811.882
-809.49
-807.112
-804.763
-802.573
-800.548
-798.653
-796.895
-795.271
-793.746
-792.281
-790.849
-789.443
-788.063
-786.693
-785.305
-783.884
-782.423
-780.904
-779.289
-777.536
-775.632
-773.608
-771.524
-769.442
-767.395
-765.388
-763.423
-761.51
-759.668
-757.907
-756.216
-754.565
-752.907
-751.186
-749.345
-747.344
-745.183
-742.889
-740.501
-738.059
-735.601
-733.166
-730.796
-728.542
-726.455
-724.59
-722.968
-721.568
-720.341
-719.252
-718.305
-717.485
-716.774
-716.187
-715.729
-715.359
-715.097
-715.033
-715.001
-715.022
-715.15
-715.419
-715.75
-716.117
-716.423
-716.789
-717.14
-717.396
-717.58
-717.716
-717.838
-717.84
-717.891
-991.964
-991.904
-991.795
-991.495
-991.052
-990.45
-989.653
-988.774
-987.685
-986.466
-985.14
-983.625
-981.93
-980.173
-978.217
-976.046
-973.754
-971.486
-969.179
-966.713
-964.276
-961.853
-959.437
-957.009
-954.487
-951.893
-949.36
-947.017
-944.77
-942.551
-940.43
-938.46
-936.645
-934.977
-933.438
-931.997
-930.618
-929.274
-927.957
-926.659
-925.358
-924.026
-922.644
-921.199
-919.674
-918.038
-916.262
-914.348
-912.336
-910.283
-908.241
-906.233
-904.267
-902.349
-900.498
-898.74
-897.087
-895.529
-894.033
-892.55
-891.018
-889.374
-887.577
-885.622
-883.527
-881.32
-879.031
-876.694
-874.342
-872.018
-869.774
-867.669
-865.763
-864.086
-862.615
-861.305
-860.127
-859.077
-858.167
-857.411
-856.833
-856.413
-856.052
-855.789
-855.735
-855.716
-855.768
-855.894
-856.118
-856.406
-856.725
-856.964
-857.253
-857.549
-857.813
-857.99
-858.157
-858.348
-858.457
-858.558
-1129.26
-1129.21
-1129.08
-1128.75
-1128.25
-1127.59
-1126.73
-1125.83
-1124.69
-1123.48
-1122.18
-1120.73
-1119.1
-1117.42
-1115.54
-1113.42
-1111.16
-1108.89
-1106.61
-1104.19
-1101.8
-1099.37
-1096.94
-1094.53
-1092.02
-1089.5
-1087.09
-1084.84
-1082.69
-1080.59
-1078.56
-1076.62
-1074.83
-1073.19
-1071.71
-1070.35
-1069.06
-1067.8
-1066.53
-1065.26
-1063.97
-1062.64
-1061.27
-1059.83
-1058.29
-1056.64
-1054.85
-1052.94
-1050.96
-1048.97
-1047
-1045.06
-1043.16
-1041.32
-1039.56
-1037.91
-1036.38
-1034.97
-1033.64
-1032.34
-1031
-1029.56
-1027.98
-1026.25
-1024.38
-1022.38
-1020.27
-1018.08
-1015.84
-1013.6
-1011.41
-1009.33
-1007.41
-1005.69
-1004.15
-1002.77
-1001.52
-1000.39
-999.387
-998.56
-997.963
-997.543
-997.161
-996.881
-996.77
-996.724
-996.771
-996.865
-997.013
-997.207
-997.455
-997.632
-997.86
-998.101
-998.375
-998.634
-998.865
-999.127
-999.365
-999.527
-1266.26
-1266.26
-1266.06
-1265.73
-1265.2
-1264.47
-1263.55
-1262.62
-1261.5
-1260.33
-1259.1
-1257.74
-1256.2
-1254.57
-1252.79
-1250.79
-1248.64
-1246.47
-1244.23
-1241.88
-1239.56
-1237.19
-1234.82
-1232.5
-1230.08
-1227.61
-1225.29
-1223.12
-1221.03
-1219
-1217.05
-1215.22
-1213.5
-1211.89
-1210.4
-1209.02
-1207.74
-1206.51
-1205.28
-1204.04
-1202.75
-1201.41
-1200.01
-1198.56
-1197.02
-1195.39
-1193.63
-1191.77
-1189.85
-1187.93
-1186.04
-1184.19
-1182.39
-1180.64
-1178.97
-1177.42
-1176
-1174.72
-1173.52
-1172.37
-1171.2
-1169.95
-1168.59
-1167.09
-1165.44
-1163.64
-1161.68
-1159.62
-1157.48
-1155.33
-1153.23
-1151.22
-1149.33
-1147.58
-1145.98
-1144.53
-1143.23
-1142.04
-1140.97
-1140.07
-1139.43
-1138.98
-1138.55
-1138.24
-1138.03
-1137.92
-1137.92
-1137.96
-1138.02
-1138.11
-1138.27
-1138.4
-1138.61
-1138.85
-1139.18
-1139.53
-1139.88
-1140.22
-1140.52
-1140.69
-1403.22
-1403.24
-1403.01
-1402.58
-1402.03
-1401.3
-1400.4
-1399.47
-1398.46
-1397.38
-1396.25
-1394.96
-1393.53
-1392
-1390.33
-1388.46
-1386.42
-1384.38
-1382.22
-1379.99
-1377.83
-1375.6
-1373.33
-1371.06
-1368.72
-1366.36
-1364.14
-1362.09
-1360.11
-1358.16
-1356.25
-1354.44
-1352.73
-1351.12
-1349.6
-1348.19
-1346.87
-1345.61
-1344.38
-1343.12
-1341.82
-1340.47
-1339.06
-1337.61
-1336.1
-1334.51
-1332.83
-1331.06
-1329.26
-1327.45
-1325.67
-1323.93
-1322.23
-1320.58
-1319.01
-1317.57
-1316.25
-1315.06
-1313.97
-1312.92
-1311.86
-1310.73
-1309.51
-1308.17
-1306.69
-1305.05
-1303.26
-1301.34
-1299.33
-1297.29
-1295.27
-1293.32
-1291.47
-1289.73
-1288.09
-1286.57
-1285.21
-1283.99
-1282.87
-1281.9
-1281.19
-1280.65
-1280.16
-1279.82
-1279.52
-1279.32
-1279.24
-1279.21
-1279.17
-1279.17
-1279.27
-1279.4
-1279.62
-1279.89
-1280.32
-1280.75
-1281.21
-1281.65
-1281.97
-1282.1
-1540.06
-1540.03
-1539.84
-1539.35
-1538.79
-1538.09
-1537.28
-1536.45
-1535.55
-1534.59
-1533.58
-1532.37
-1531.02
-1529.58
-1528.03
-1526.32
-1524.45
-1522.56
-1520.48
-1518.35
-1516.29
-1514.23
-1512.17
-1510.08
-1507.89
-1505.67
-1503.59
-1501.63
-1499.72
-1497.83
-1495.96
-1494.16
-1492.44
-1490.79
-1489.23
-1487.75
-1486.36
-1485.04
-1483.74
-1482.43
-1481.08
-1479.7
-1478.28
-1476.84
-1475.36
-1473.84
-1472.24
-1470.59
-1468.91
-1467.24
-1465.61
-1464
-1462.43
-1460.91
-1459.46
-1458.12
-1456.89
-1455.78
-1454.74
-1453.75
-1452.75
-1451.7
-1450.58
-1449.37
-1448.03
-1446.54
-1444.89
-1443.09
-1441.2
-1439.27
-1437.36
-1435.49
-1433.68
-1431.94
-1430.27
-1428.69
-1427.26
-1425.99
-1424.82
-1423.81
-1423.02
-1422.38
-1421.82
-1421.43
-1421.06
-1420.8
-1420.62
-1420.52
-1420.41
-1420.36
-1420.42
-1420.59
-1420.9
-1421.24
-1421.78
-1422.3
-1422.85
-1423.33
-1423.67
-1423.84
-1676.75
-1676.71
-1676.45
-1676
-1675.51
-1674.9
-1674.15
-1673.49
-1672.69
-1671.83
-1670.9
-1669.79
-1668.55
-1667.21
-1665.76
-1664.14
-1662.37
-1660.59
-1658.6
-1656.61
-1654.64
-1652.73
-1650.88
-1649.03
-1647.04
-1644.99
-1643.01
-1641.14
-1639.32
-1637.48
-1635.62
-1633.78
-1632
-1630.3
-1628.69
-1627.17
-1625.73
-1624.34
-1622.96
-1621.58
-1620.18
-1618.77
-1617.36
-1615.95
-1614.53
-1613.08
-1611.58
-1610.06
-1608.53
-1607.02
-1605.55
-1604.11
-1602.7
-1601.33
-1600.02
-1598.79
-1597.65
-1596.6
-1595.62
-1594.66
-1593.7
-1592.7
-1591.64
-1590.51
-1589.27
-1587.9
-1586.38
-1584.73
-1582.98
-1581.18
-1579.37
-1577.58
-1575.83
-1574.1
-1572.42
-1570.81
-1569.33
-1568
-1566.78
-1565.73
-1564.88
-1564.15
-1563.53
-1563.07
-1562.65
-1562.33
-1562.08
-1561.94
-1561.84
-1561.79
-1561.87
-1562.1
-1562.52
-1563
-1563.62
-1564.26
-1564.88
-1565.35
-1565.71
-1565.94
-1813.19
-1813.21
-1812.92
-1812.48
-1812.09
-1811.61
-1810.99
-1810.44
-1809.75
-1808.99
-1808.12
-1807.07
-1805.91
-1804.67
-1803.31
-1801.76
-1800.1
-1798.4
-1796.51
-1794.67
-1792.83
-1791.03
-1789.36
-1787.71
-1785.94
-1784.06
-1782.18
-1780.36
-1778.56
-1776.76
-1774.93
-1773.08
-1771.23
-1769.43
-1767.74
-1766.16
-1764.68
-1763.26
-1761.85
-1760.43
-1759
-1757.58
-1756.18
-1754.82
-1753.47
-1752.11
-1750.74
-1749.35
-1747.99
-1746.66
-1745.38
-1744.12
-1742.88
-1741.66
-1740.49
-1739.38
-1738.33
-1737.35
-1736.41
-1735.49
-1734.55
-1733.59
-1732.59
-1731.53
-1730.38
-1729.1
-1727.69
-1726.15
-1724.53
-1722.88
-1721.2
-1719.51
-1717.82
-1716.13
-1714.46
-1712.83
-1711.33
-1709.98
-1708.74
-1707.67
-1706.77
-1705.96
-1705.28
-1704.78
-1704.33
-1704
-1703.7
-1703.55
-1703.47
-1703.49
-1703.65
-1703.98
-1704.55
-1705.17
-1705.87
-1706.61
-1707.28
-1707.8
-1708.23
-1708.54
-1949.43
-1949.41
-1949.19
-1948.82
-1948.5
-1948.15
-1947.73
-1947.25
-1946.68
-1946.01
-1945.24
-1944.3
-1943.25
-1942.12
-1940.87
-1939.38
-1937.82
-1936.2
-1934.47
-1932.79
-1931.12
-1929.46
-1927.92
-1926.43
-1924.86
-1923.18
-1921.43
-1919.65
-1917.84
-1915.99
-1914.11
-1912.19
-1910.27
-1908.4
-1906.65
-1905.02
-1903.51
-1902.07
-1900.65
-1899.22
-1897.79
-1896.38
-1895.02
-1893.72
-1892.45
-1891.2
-1889.95
-1888.71
-1887.51
-1886.35
-1885.23
-1884.14
-1883.06
-1882
-1880.98
-1879.99
-1879.05
-1878.14
-1877.25
-1876.35
-1875.43
-1874.49
-1873.52
-1872.5
-1871.4
-1870.2
-1868.86
-1867.41
-1865.9
-1864.34
-1862.76
-1861.15
-1859.52
-1857.89
-1856.26
-1854.66
-1853.17
-1851.83
-1850.58
-1849.51
-1848.58
-1847.74
-1847.02
-1846.46
-1845.98
-1845.67
-1845.36
-1845.28
-1845.27
-1845.41
-1845.69
-1846.15
-1846.87
-1847.65
-1848.46
-1849.29
-1850.03
-1850.61
-1851.11
-1851.5
-2085.58
-2085.5
-2085.32
-2085.08
-2084.89
-2084.64
-2084.38
-2084.05
-2083.61
-2083.07
-2082.43
-2081.62
-2080.68
-2079.68
-2078.58
-2077.19
-2075.71
-2074.13
-2072.58
-2071.12
-2069.67
-2068.24
-2066.86
-2065.49
-2064.05
-2062.51
-2060.85
-2059.08
-2057.23
-2055.31
-2053.36
-2051.4
-2049.44
-2047.54
-2045.76
-2044.13
-2042.61
-2041.18
-2039.77
-2038.37
-2036.98
-2035.64
-2034.35
-2033.13
-2031.96
-2030.81
-2029.67
-2028.55
-2027.48
-2026.45
-2025.47
-2024.52
-2023.58
-2022.66
-2021.76
-2020.88
-2020.03
-2019.2
-2018.35
-2017.47
-2016.57
-2015.63
-2014.65
-2013.63
-2012.55
-2011.36
-2010.06
-2008.65
-2007.19
-2005.69
-2004.17
-2002.63
-2001.06
-1999.49
-1997.9
-1996.33
-1994.87
-1993.54
-1992.32
-1991.24
-1990.29
-1989.41
-1988.67
-1988.09
-1987.64
-1987.37
-1987.11
-1987.08
-1987.19
-1987.49
-1987.96
-1988.58
-1989.42
-1990.32
-1991.26
-1992.18
-1993.05
-1993.73
-1994.23
-1994.59
-2221.45
-2221.47
-2221.31
-2221.18
-2221.15
-2221.08
-2220.92
-2220.78
-2220.51
-2220.11
-2219.62
-2218.93
-2218.14
-2217.22
-2216.26
-2215.05
-2213.71
-2212.18
-2210.78
-2209.57
-2208.38
-2207.17
-2205.98
-2204.73
-2203.37
-2201.89
-2200.3
-2198.57
-2196.7
-2194.72
-2192.69
-2190.66
-2188.68
-2186.8
-2185.07
-2183.47
-2181.99
-2180.58
-2179.2
-2177.83
-2176.49
-2175.21
-2174.01
-2172.88
-2171.8
-2170.74
-2169.7
-2168.68
-2167.69
-2166.76
-2165.86
-2165
-2164.16
-2163.36
-2162.58
-2161.82
-2161.07
-2160.3
-2159.51
-2158.65
-2157.75
-2156.78
-2155.77
-2154.7
-2153.58
-2152.38
-2151.09
-2149.72
-2148.3
-2146.84
-2145.35
-2143.82
-2142.31
-2140.81
-2139.27
-2137.72
-2136.28
-2134.96
-2133.76
-2132.7
-2131.74
-2130.87
-2130.12
-2129.54
-2129.16
-2128.97
-2128.84
-2128.93
-2129.17
-2129.65
-2130.31
-2131.13
-2132.1
-2133.14
-2134.19
-2135.18
-2136.17
-2136.91
-2137.42
-2137.67
-2357.24
-2357.36
-2357.28
-2357.26
-2357.33
-2357.45
-2357.45
-2357.47
-2357.36
-2357.09
-2356.7
-2356.12
-2355.46
-2354.64
-2353.76
-2352.74
-2351.63
-2350.31
-2349.01
-2347.93
-2346.99
-2346.04
-2345.02
-2343.89
-2342.61
-2341.18
-2339.62
-2337.9
-2336.03
-2334.05
-2332
-2329.95
-2327.99
-2326.16
-2324.49
-2322.97
-2321.55
-2320.19
-2318.84
-2317.51
-2316.22
-2315
-2313.87
-2312.81
-2311.8
-2310.81
-2309.82
-2308.85
-2307.92
-2307.03
-2306.19
-2305.39
-2304.65
-2303.95
-2303.3
-2302.67
-2302.03
-2301.35
-2300.6
-2299.77
-2298.87
-2297.9
-2296.86
-2295.77
-2294.61
-2293.39
-2292.09
-2290.75
-2289.36
-2287.94
-2286.47
-2284.96
-2283.47
-2282.03
-2280.53
-2279.01
-2277.59
-2276.28
-2275.09
-2274.05
-2273.1
-2272.26
-2271.57
-2271.05
-2270.75
-2270.64
-2270.67
-2270.93
-2271.34
-2272.01
-2272.86
-2273.83
-2274.91
-2276.05
-2277.22
-2278.3
-2279.34
-2280.05
-2280.55
-2280.74
-2493.24
-2493.38
-2493.36
-2493.45
-2493.64
-2493.82
-2493.97
-2494.11
-2494.09
-2493.93
-2493.63
-2493.13
-2492.57
-2491.87
-2491.09
-2490.24
-2489.31
-2488.28
-2487.23
-2486.26
-2485.43
-2484.65
-2483.81
-2482.83
-2481.64
-2480.27
-2478.72
-2477.01
-2475.14
-2473.16
-2471.14
-2469.15
-2467.25
-2465.49
-2463.9
-2462.45
-2461.09
-2459.78
-2458.49
-2457.23
-2456
-2454.85
-2453.77
-2452.76
-2451.78
-2450.81
-2449.85
-2448.9
-2447.98
-2447.11
-2446.29
-2445.54
-2444.87
-2444.28
-2443.75
-2443.27
-2442.77
-2442.21
-2441.55
-2440.78
-2439.92
-2438.99
-2437.97
-2436.89
-2435.73
-2434.49
-2433.19
-2431.86
-2430.5
-2429.12
-2427.68
-2426.19
-2424.73
-2423.32
-2421.87
-2420.4
-2418.99
-2417.7
-2416.54
-2415.54
-2414.64
-2413.84
-2413.2
-2412.76
-2412.59
-2412.59
-2412.78
-2413.21
-2413.78
-2414.61
-2415.63
-2416.71
-2417.91
-2419.14
-2420.35
-2421.48
-2422.48
-2423.16
-2423.62
-2423.83
-2629.27
-2629.43
-2629.43
-2629.55
-2629.82
-2630.05
-2630.25
-2630.46
-2630.49
-2630.42
-2630.22
-2629.86
-2629.4
-2628.85
-2628.18
-2627.52
-2626.73
-2625.92
-2625.18
-2624.45
-2623.74
-2623.04
-2622.28
-2621.38
-2620.28
-2618.98
-2617.47
-2615.78
-2613.93
-2611.99
-2610.02
-2608.09
-2606.27
-2604.6
-2603.08
-2601.7
-2600.4
-2599.16
-2597.94
-2596.76
-2595.61
-2594.53
-2593.49
-2592.49
-2591.51
-2590.53
-2589.55
-2588.58
-2587.65
-2586.78
-2585.97
-2585.25
-2584.63
-2584.13
-2583.72
-2583.38
-2583.04
-2582.62
-2582.1
-2581.45
-2580.69
-2579.82
-2578.86
-2577.81
-2576.68
-2575.45
-2574.16
-2572.84
-2571.53
-2570.22
-2568.84
-2567.39
-2565.96
-2564.57
-2563.16
-2561.76
-2560.42
-2559.19
-2558.06
-2557.1
-2556.27
-2555.57
-2555.04
-2554.7
-2554.64
-2554.76
-2555.1
-2555.7
-2556.44
-2557.39
-2558.5
-2559.68
-2560.95
-2562.24
-2563.46
-2564.57
-2565.46
-2566.11
-2566.54
-2566.78
-2765.13
-2765.28
-2765.3
-2765.44
-2765.68
-2765.98
-2766.19
-2766.44
-2766.53
-2766.59
-2766.5
-2766.34
-2765.99
-2765.57
-2764.97
-2764.5
-2763.95
-2763.34
-2762.79
-2762.29
-2761.75
-2761.15
-2760.46
-2759.63
-2758.64
-2757.45
-2756.05
-2754.44
-2752.67
-2750.8
-2748.91
-2747.09
-2745.39
-2743.82
-2742.39
-2741.08
-2739.86
-2738.69
-2737.56
-2736.46