/*--------------------------------*- C++ -*----------------------------------*\
| =========                 |                                                 |
| \\      /  F ield         | OpenFOAM: The Open Source CFD Toolbox           |
|  \\    /   O peration     | Version:  2406                                  |
|   \\  /    A nd           | Website:  www.openfoam.com                      |
|    \\/     M anipulation  |                                                 |
\*---------------------------------------------------------------------------*/
FoamFile
{
    version     2.0;
    format      ascii;
    arch        "LSB;label=32;scalar=64";
    class       volScalarField;
    location    "1";
    object      p_rgh;
}
// * * * * * * * * * * * * * * * * * * * * * * * * * * * * * * * * * * * * * //

dimensions      [1 -1 -2 0 0 0 0];

internalField   nonuniform List<scalar> 
10000
(
1972.41
1972.22
1972.25
1972.3
1973.06
1974.05
1974.83
1975.58
1977.06
1978.42
1979.95
1981.68
1983.36
1985.23
1987.11
1989.09
1991.17
1993.22
1995.24
1997.24
1999.31
2001.21
2003
2004.78
2006.54
2008.25
2010.02
2011.78
2013.42
2015.08
2016.95
2018.98
2021.03
2023.12
2025.43
2027.91
2030.41
2032.92
2035.52
2038.2
2040.89
2043.58
2046.25
2048.89
2051.54
2054.2
2056.87
2059.56
2062.27
2064.97
2067.64
2070.3
2073.01
2075.79
2078.64
2081.52
2084.42
2087.34
2090.26
2093.21
2096.21
2099.2
2102.13
2104.93
2107.57
2110.05
2112.36
2114.49
2116.42
2118.17
2119.75
2121.17
2122.46
2123.64
2124.71
2125.69
2126.58
2127.42
2128.19
2128.9
2129.55
2130.15
2130.72
2131.28
2131.86
2132.47
2133.11
2133.76
2134.44
2135.11
2135.8
2136.48
2137.13
2137.71
2138.18
2138.54
2138.72
2138.7
2138.48
2138.18
1971.78
1971.9
1972.23
1972.19
1972.81
1973.72
1974.65
1975.59
1976.88
1978.27
1979.73
1981.38
1983.07
1984.93
1986.87
1988.87
1990.86
1992.83
1994.87
1996.82
1998.84
2000.78
2002.58
2004.35
2006.17
2007.97
2009.74
2011.49
2013.21
2014.98
2016.87
2018.85
2020.91
2023.05
2025.34
2027.79
2030.31
2032.84
2035.41
2038.06
2040.73
2043.4
2046.05
2048.69
2051.34
2053.98
2056.6
2059.25
2061.91
2064.58
2067.26
2069.95
2072.68
2075.47
2078.32
2081.22
2084.14
2087.08
2090.05
2093.06
2096.08
2099.08
2102
2104.81
2107.47
2109.98
2112.29
2114.4
2116.31
2118.02
2119.56
2120.96
2122.24
2123.4
2124.47
2125.46
2126.37
2127.22
2128
2128.7
2129.33
2129.91
2130.47
2131.05
2131.65
2132.28
2132.92
2133.56
2134.21
2134.87
2135.56
2136.25
2136.91
2137.48
2137.92
2138.24
2138.46
2138.56
2138.47
2138.14
1971.44
1971.41
1971.82
1972.1
1972.51
1973.53
1974.53
1975.6
1976.84
1978.22
1979.69
1981.33
1983.01
1984.83
1986.68
1988.62
1990.61
1992.49
1994.49
1996.47
1998.44
2000.34
2002.17
2004.03
2005.89
2007.72
2009.6
2011.49
2013.25
2015.03
2017
2019.07
2021.12
2023.23
2025.56
2028.04
2030.54
2033.06
2035.62
2038.23
2040.88
2043.54
2046.19
2048.77
2051.36
2053.96
2056.57
2059.2
2061.86
2064.52
2067.16
2069.82
2072.55
2075.37
2078.24
2081.15
2084.09
2087.06
2090.08
2093.12
2096.18
2099.19
2102.12
2104.92
2107.55
2110.01
2112.25
2114.28
2116.1
2117.73
2119.22
2120.59
2121.86
2123.03
2124.11
2125.1
2126.01
2126.85
2127.62
2128.31
2128.94
2129.53
2130.1
2130.68
2131.28
2131.9
2132.54
2133.18
2133.82
2134.46
2135.11
2135.77
2136.43
2137.03
2137.48
2137.77
2137.89
2137.94
2137.97
2137.79
1971.27
1971.39
1971.65
1971.99
1972.27
1973.17
1974.25
1975.44
1976.79
1978.22
1979.64
1981.21
1982.83
1984.64
1986.49
1988.29
1990.16
1992.04
1993.99
1995.91
1997.89
1999.79
2001.61
2003.52
2005.52
2007.45
2009.36
2011.31
2013.24
2015.16
2017.11
2019.17
2021.27
2023.44
2025.75
2028.21
2030.7
2033.2
2035.72
2038.3
2040.92
2043.54
2046.14
2048.73
2051.34
2053.96
2056.54
2059.11
2061.69
2064.29
2066.92
2069.59
2072.3
2075.08
2077.95
2080.9
2083.92
2086.95
2089.99
2093.03
2096.08
2099.09
2102.01
2104.77
2107.36
2109.73
2111.87
2113.79
2115.51
2117.07
2118.5
2119.83
2121.07
2122.24
2123.33
2124.36
2125.31
2126.17
2126.94
2127.65
2128.3
2128.91
2129.5
2130.07
2130.65
2131.23
2131.83
2132.43
2133.03
2133.65
2134.29
2134.94
2135.57
2136.18
2136.69
2137.02
2137.14
2137.14
2137.17
2137.12
1970.44
1970.45
1971.02
1971.63
1972.13
1972.97
1974.01
1975.22
1976.59
1978.03
1979.53
1981.2
1982.8
1984.43
1986.1
1987.84
1989.55
1991.38
1993.31
1995.17
1997.09
1999.02
2000.93
2002.91
2004.95
2006.94
2008.98
2011.07
2013.06
2015.03
2017.08
2019.18
2021.3
2023.51
2025.87
2028.3
2030.73
2033.16
2035.68
2038.26
2040.85
2043.4
2045.92
2048.47
2051.09
2053.72
2056.28
2058.79
2061.32
2063.91
2066.53
2069.17
2071.85
2074.62
2077.49
2080.47
2083.5
2086.56
2089.62
2092.71
2095.8
2098.83
2101.75
2104.47
2106.97
2109.21
2111.22
2113
2114.6
2116.07
2117.44
2118.74
2119.97
2121.15
2122.27
2123.33
2124.31
2125.2
2126.02
2126.76
2127.45
2128.09
2128.69
2129.24
2129.77
2130.31
2130.85
2131.4
2131.96
2132.53
2133.14
2133.76
2134.39
2135.04
2135.61
2136.02
2136.24
2136.22
2136.19
2136.24
1969.79
1969.87
1970.33
1971
1971.67
1972.71
1973.78
1975.06
1976.36
1977.79
1979.31
1980.87
1982.46
1984.1
1985.64
1987.25
1988.82
1990.58
1992.46
1994.3
1996.21
1998.09
2000.04
2002.15
2004.29
2006.36
2008.47
2010.65
2012.75
2014.82
2016.92
2019.1
2021.3
2023.55
2025.89
2028.29
2030.72
2033.16
2035.63
2038.13
2040.65
2043.16
2045.63
2048.13
2050.71
2053.31
2055.87
2058.39
2060.91
2063.45
2066
2068.58
2071.25
2074.03
2076.93
2079.95
2083.01
2086.08
2089.16
2092.25
2095.33
2098.34
2101.21
2103.87
2106.27
2108.39
2110.25
2111.9
2113.38
2114.75
2116.06
2117.31
2118.53
2119.72
2120.88
2121.97
2123
2123.95
2124.81
2125.6
2126.32
2126.98
2127.57
2128.11
2128.62
2129.11
2129.59
2130.07
2130.56
2131.11
2131.69
2132.33
2132.99
2133.62
2134.2
2134.7
2135.04
2135.13
2135.08
2135.14
1968.82
1969.16
1969.6
1970.33
1971.07
1972.22
1973.3
1974.69
1976.1
1977.44
1978.93
1980.45
1981.99
1983.48
1984.88
1986.39
1987.91
1989.64
1991.45
1993.18
1995.1
1997.06
1999.05
2001.25
2003.49
2005.64
2007.85
2010.15
2012.34
2014.49
2016.7
2018.98
2021.24
2023.5
2025.87
2028.3
2030.7
2033.07
2035.49
2037.97
2040.49
2042.98
2045.41
2047.86
2050.39
2052.96
2055.5
2057.98
2060.47
2062.99
2065.56
2068.17
2070.84
2073.6
2076.47
2079.46
2082.52
2085.62
2088.74
2091.85
2094.89
2097.83
2100.6
2103.14
2105.42
2107.43
2109.18
2110.7
2112.07
2113.34
2114.56
2115.77
2116.97
2118.16
2119.32
2120.44
2121.49
2122.47
2123.4
2124.25
2125.03
2125.71
2126.29
2126.79
2127.25
2127.68
2128.09
2128.52
2128.98
2129.48
2130.04
2130.67
2131.33
2131.97
2132.55
2133.08
2133.54
2133.77
2133.78
2133.79
1967.93
1968.19
1968.73
1969.51
1970.33
1971.5
1972.71
1973.92
1975.31
1976.68
1978.14
1979.54
1981
1982.42
1983.75
1985.2
1986.66
1988.32
1990.11
1991.87
1993.79
1995.78
1997.83
2000.08
2002.44
2004.7
2006.97
2009.3
2011.62
2013.91
2016.21
2018.53
2020.84
2023.15
2025.5
2027.9
2030.28
2032.64
2035.04
2037.51
2040.03
2042.52
2044.93
2047.33
2049.84
2052.44
2055.03
2057.55
2060.01
2062.46
2064.95
2067.54
2070.24
2073.05
2075.96
2078.95
2082.01
2085.11
2088.23
2091.32
2094.34
2097.21
2099.87
2102.3
2104.45
2106.34
2107.98
2109.43
2110.72
2111.93
2113.1
2114.24
2115.39
2116.55
2117.7
2118.82
2119.9
2120.93
2121.91
2122.8
2123.58
2124.24
2124.78
2125.25
2125.69
2126.1
2126.5
2126.9
2127.32
2127.77
2128.31
2128.94
2129.59
2130.22
2130.84
2131.37
2131.89
2132.2
2132.3
2132.29
1967.09
1967.44
1967.93
1968.69
1969.53
1970.54
1971.79
1973.03
1974.32
1975.61
1976.99
1978.36
1979.68
1981.06
1982.36
1983.75
1985.23
1986.86
1988.61
1990.4
1992.34
1994.35
1996.5
1998.82
2001.2
2003.51
2005.89
2008.28
2010.63
2012.97
2015.39
2017.82
2020.13
2022.37
2024.7
2027.13
2029.56
2031.89
2034.18
2036.57
2039.09
2041.67
2044.19
2046.66
2049.14
2051.66
2054.19
2056.7
2059.2
2061.68
2064.19
2066.75
2069.43
2072.22
2075.14
2078.16
2081.23
2084.31
2087.38
2090.41
2093.35
2096.15
2098.75
2101.11
2103.19
2105
2106.57
2107.95
2109.2
2110.38
2111.51
2112.63
2113.76
2114.9
2116.03
2117.15
2118.25
2119.32
2120.34
2121.28
2122.08
2122.75
2123.3
2123.76
2124.16
2124.5
2124.84
2125.22
2125.63
2126.09
2126.61
2127.2
2127.82
2128.41
2129.08
2129.62
2130.15
2130.47
2130.63
2130.65
1966.11
1966.5
1967.04
1967.75
1968.56
1969.49
1970.47
1971.65
1972.92
1974.2
1975.5
1976.85
1978.12
1979.45
1980.77
1982.18
1983.66
1985.31
1987.01
1988.83
1990.82
1992.85
1995.01
1997.37
1999.79
2002.08
2004.46
2006.91
2009.33
2011.68
2014.11
2016.58
2018.96
2021.21
2023.45
2025.76
2028.16
2030.56
2032.91
2035.29
2037.79
2040.36
2042.92
2045.46
2047.98
2050.51
2053.01
2055.5
2057.99
2060.49
2063.01
2065.58
2068.25
2071.04
2073.95
2076.95
2080
2083.04
2086.05
2089
2091.86
2094.59
2097.15
2099.47
2101.53
2103.32
2104.89
2106.27
2107.52
2108.69
2109.82
2110.95
2112.09
2113.23
2114.36
2115.49
2116.61
2117.71
2118.77
2119.75
2120.58
2121.26
2121.79
2122.23
2122.6
2122.91
2123.22
2123.57
2123.95
2124.4
2124.91
2125.47
2126.03
2126.59
2127.24
2127.79
2128.29
2128.58
2128.78
2128.81
1965.35
1965.54
1966.07
1966.65
1967.37
1968.27
1969.19
1970.22
1971.4
1972.64
1973.92
1975.23
1976.57
1977.88
1979.26
1980.74
1982.21
1983.85
1985.56
1987.4
1989.4
1991.44
1993.61
1995.95
1998.36
2000.64
2003
2005.44
2007.87
2010.27
2012.71
2015.19
2017.56
2019.82
2022.05
2024.36
2026.76
2029.18
2031.58
2033.99
2036.5
2039.08
2041.65
2044.21
2046.74
2049.25
2051.72
2054.16
2056.61
2059.08
2061.6
2064.18
2066.85
2069.61
2072.49
2075.45
2078.46
2081.45
2084.41
2087.3
2090.11
2092.8
2095.32
2097.63
2099.71
2101.56
2103.19
2104.64
2105.95
2107.18
2108.35
2109.51
2110.66
2111.8
2112.93
2114.05
2115.18
2116.3
2117.38
2118.36
2119.2
2119.88
2120.43
2120.87
2121.22
2121.52
2121.79
2122.09
2122.42
2122.83
2123.29
2123.79
2124.3
2124.86
2125.43
2125.94
2126.38
2126.63
2126.86
2126.87
1964.68
1964.75
1965.2
1965.66
1966.33
1966.98
1967.9
1968.84
1969.99
1971.24
1972.53
1973.8
1975.18
1976.56
1977.98
1979.51
1981.07
1982.73
1984.46
1986.35
1988.39
1990.45
1992.6
1994.92
1997.28
1999.58
2001.9
2004.3
2006.72
2009.15
2011.62
2014.12
2016.54
2018.82
2021.06
2023.37
2025.78
2028.26
2030.73
2033.2
2035.71
2038.26
2040.81
2043.34
2045.85
2048.3
2050.7
2053.07
2055.44
2057.86
2060.35
2062.89
2065.51
2068.22
2071.03
2073.92
2076.86
2079.79
2082.69
2085.53
2088.29
2090.96
2093.48
2095.83
2097.97
2099.9
2101.64
2103.19
2104.6
2105.91
2107.16
2108.38
2109.56
2110.72
2111.83
2112.93
2114.03
2115.12
2116.18
2117.14
2117.96
2118.64
2119.19
2119.61
2119.95
2120.24
2120.51
2120.78
2121.04
2121.36
2121.75
2122.18
2122.6
2123.12
2123.59
2124.03
2124.38
2124.57
2124.78
2124.82
1964.02
1963.97
1964.29
1964.63
1965.27
1965.89
1966.76
1967.73
1968.83
1970.05
1971.39
1972.74
1974.11
1975.56
1977.07
1978.68
1980.33
1982.07
1983.88
1985.83
1987.9
1990
1992.17
1994.49
1996.8
1999.06
2001.34
2003.75
2006.18
2008.63
2011.11
2013.59
2016.03
2018.36
2020.63
2022.94
2025.38
2027.89
2030.4
2032.9
2035.39
2037.88
2040.34
2042.79
2045.23
2047.63
2049.97
2052.27
2054.57
2056.9
2059.29
2061.74
2064.26
2066.88
2069.59
2072.37
2075.19
2078.01
2080.81
2083.57
2086.29
2088.92
2091.45
2093.83
2096.06
2098.11
2099.98
2101.67
2103.22
2104.65
2106
2107.29
2108.5
2109.66
2110.75
2111.82
2112.87
2113.92
2114.93
2115.86
2116.67
2117.35
2117.9
2118.32
2118.65
2118.93
2119.19
2119.41
2119.62
2119.83
2120.13
2120.44
2120.78
2121.21
2121.54
2121.88
2122.13
2122.27
2122.36
2122.42
1963.41
1963.34
1963.54
1963.85
1964.31
1965.05
1965.84
1966.83
1967.96
1969.15
1970.45
1971.88
1973.34
1974.86
1976.48
1978.24
1980.04
1981.87
1983.77
1985.84
1988
1990.15
1992.33
1994.66
1996.96
1999.23
2001.51
2003.88
2006.34
2008.83
2011.31
2013.71
2016.07
2018.41
2020.71
2023.04
2025.45
2027.89
2030.32
2032.74
2035.18
2037.61
2040.02
2042.4
2044.75
2047.05
2049.31
2051.55
2053.77
2056.02
2058.31
2060.65
2063.06
2065.55
2068.12
2070.75
2073.41
2076.07
2078.73
2081.38
2084.01
2086.6
2089.13
2091.56
2093.88
2096.07
2098.09
2099.94
2101.64
2103.21
2104.68
2106.05
2107.33
2108.51
2109.6
2110.64
2111.63
2112.61
2113.55
2114.42
2115.21
2115.89
2116.47
2116.89
2117.22
2117.5
2117.74
2117.94
2118.08
2118.18
2118.36
2118.54
2118.77
2119.07
2119.25
2119.44
2119.57
2119.62
2119.63
2119.62
1962.73
1962.7
1962.84
1963.25
1963.64
1964.36
1965.17
1966.11
1967.24
1968.44
1969.78
1971.24
1972.82
1974.47
1976.2
1978.1
1980.05
1982.04
1984.05
1986.23
1988.48
1990.72
1992.93
1995.23
1997.55
1999.86
2002.19
2004.56
2007
2009.48
2011.95
2014.34
2016.63
2018.9
2021.17
2023.47
2025.82
2028.18
2030.49
2032.79
2035.1
2037.43
2039.77
2042.08
2044.32
2046.5
2048.63
2050.76
2052.91
2055.09
2057.29
2059.52
2061.79
2064.14
2066.56
2069.03
2071.53
2074.01
2076.5
2078.99
2081.5
2084.01
2086.51
2088.99
2091.4
2093.7
2095.87
2097.89
2099.75
2101.48
2103.08
2104.55
2105.9
2107.11
2108.2
2109.21
2110.15
2111.05
2111.92
2112.73
2113.48
2114.17
2114.76
2115.21
2115.56
2115.83
2116.05
2116.22
2116.29
2116.3
2116.35
2116.39
2116.47
2116.61
2116.65
2116.68
2116.7
2116.6
2116.56
2116.53
1962.24
1962.27
1962.41
1962.76
1963.26
1963.9
1964.73
1965.65
1966.72
1967.91
1969.32
1970.83
1972.5
1974.25
1976.12
1978.15
1980.24
1982.38
1984.54
1986.82
1989.14
1991.45
1993.73
1996.02
1998.35
2000.68
2003.09
2005.5
2007.97
2010.45
2012.89
2015.24
2017.5
2019.7
2021.87
2024.09
2026.36
2028.62
2030.81
2032.95
2035.09
2037.24
2039.42
2041.6
2043.72
2045.77
2047.77
2049.77
2051.82
2053.91
2056.04
2058.18
2060.33
2062.53
2064.78
2067.08
2069.39
2071.71
2074.04
2076.39
2078.76
2081.18
2083.64
2086.12
2088.6
2091.01
2093.33
2095.5
2097.54
2099.43
2101.16
2102.73
2104.13
2105.37
2106.47
2107.46
2108.37
2109.24
2110.04
2110.77
2111.46
2112.12
2112.71
2113.2
2113.56
2113.82
2114.01
2114.11
2114.11
2114.07
2113.99
2113.88
2113.8
2113.77
2113.68
2113.57
2113.5
2113.33
2113.22
2113.24
1961.78
1961.82
1962.07
1962.41
1962.92
1963.49
1964.26
1965.18
1966.25
1967.45
1968.84
1970.41
1972.14
1973.97
1975.93
1978.07
1980.27
1982.51
1984.8
1987.18
1989.55
1991.87
1994.19
1996.52
1998.9
2001.3
2003.78
2006.25
2008.71
2011.2
2013.59
2015.9
2018.16
2020.34
2022.42
2024.49
2026.61
2028.72
2030.77
2032.77
2034.73
2036.69
2038.68
2040.68
2042.65
2044.57
2046.48
2048.4
2050.38
2052.41
2054.47
2056.53
2058.6
2060.69
2062.82
2064.97
2067.13
2069.28
2071.45
2073.65
2075.9
2078.22
2080.62
2083.1
2085.63
2088.13
2090.57
2092.89
2095.07
2097.1
2098.96
2100.65
2102.14
2103.44
2104.55
2105.52
2106.4
2107.23
2108
2108.7
2109.35
2109.96
2110.5
2110.97
2111.33
2111.56
2111.71
2111.73
2111.64
2111.54
2111.35
2111.1
2110.86
2110.69
2110.5
2110.28
2110.1
2109.99
2109.86
2109.92
1961.41
1961.48
1961.66
1962.08
1962.53
1963.15
1963.86
1964.7
1965.77
1967
1968.36
1969.94
1971.71
1973.57
1975.56
1977.75
1980.03
1982.35
1984.71
1987.12
1989.52
1991.84
1994.19
1996.56
1999
2001.48
2004
2006.52
2009
2011.48
2013.86
2016.1
2018.28
2020.39
2022.37
2024.29
2026.21
2028.15
2030.05
2031.9
2033.7
2035.47
2037.27
2039.08
2040.88
2042.69
2044.52
2046.42
2048.39
2050.42
2052.46
2054.49
2056.51
2058.54
2060.57
2062.6
2064.63
2066.66
2068.69
2070.76
2072.89
2075.12
2077.46
2079.92
2082.46
2085.02
2087.55
2089.99
2092.31
2094.48
2096.48
2098.28
2099.88
2101.24
2102.38
2103.36
2104.24
2105.05
2105.79
2106.49
2107.13
2107.7
2108.19
2108.61
2108.93
2109.1
2109.22
2109.18
2109
2108.8
2108.53
2108.2
2107.82
2107.53
2107.25
2107
2106.78
2106.69
2106.65
2106.72
1961.12
1961.26
1961.4
1961.76
1962.19
1962.77
1963.49
1964.33
1965.4
1966.58
1967.95
1969.49
1971.27
1973.14
1975.14
1977.35
1979.67
1982.02
1984.41
1986.83
1989.22
1991.52
1993.87
1996.28
1998.75
2001.33
2003.88
2006.42
2008.9
2011.31
2013.62
2015.81
2017.9
2019.9
2021.79
2023.57
2025.31
2027.03
2028.73
2030.4
2032.04
2033.66
2035.3
2036.95
2038.61
2040.31
2042.08
2043.97
2045.96
2048.01
2050.06
2052.1
2054.1
2056.1
2058.08
2060.04
2061.98
2063.9
2065.81
2067.75
2069.77
2071.89
2074.15
2076.57
2079.09
2081.68
2084.25
2086.76
2089.17
2091.44
2093.54
2095.46
2097.15
2098.61
2099.82
2100.86
2101.78
2102.61
2103.36
2104.06
2104.69
2105.23
2105.67
2106.02
2106.26
2106.38
2106.46
2106.38
2106.14
2105.87
2105.52
2105.15
2104.72
2104.36
2104.06
2103.79
2103.64
2103.54
2103.56
2103.64
1960.97
1961.02
1961.23
1961.47
1961.94
1962.48
1963.16
1964
1965.07
1966.23
1967.59
1969.13
1970.89
1972.74
1974.75
1976.97
1979.29
1981.61
1983.99
1986.43
1988.81
1991.13
1993.5
1995.96
1998.46
2001.09
2003.65
2006.15
2008.63
2011.02
2013.25
2015.36
2017.36
2019.24
2020.99
2022.64
2024.23
2025.79
2027.32
2028.82
2030.31
2031.8
2033.31
2034.83
2036.39
2038.02
2039.77
2041.65
2043.66
2045.73
2047.81
2049.86
2051.87
2053.85
2055.79
2057.7
2059.55
2061.36
2063.15
2064.96
2066.83
2068.83
2070.99
2073.3
2075.74
2078.26
2080.81
2083.33
2085.78
2088.13
2090.34
2092.36
2094.16
2095.71
2097.02
2098.15
2099.14
2100.01
2100.78
2101.48
2102.09
2102.59
2102.99
2103.28
2103.43
2103.5
2103.53
2103.42
2103.15
2102.83
2102.45
2102.09
2101.68
2101.3
2101.02
2100.78
2100.67
2100.58
2100.62
2100.63
1960.96
1960.93
1961.1
1961.33
1961.8
1962.38
1963.1
1963.95
1965
1966.19
1967.53
1969.09
1970.83
1972.63
1974.62
1976.82
1979.13
1981.42
1983.78
1986.24
1988.64
1991
1993.38
1995.85
1998.39
2001.03
2003.59
2005.98
2008.36
2010.71
2012.9
2014.92
2016.82
2018.57
2020.2
2021.72
2023.19
2024.62
2026.03
2027.41
2028.78
2030.16
2031.59
2033.05
2034.57
2036.18
2037.93
2039.84
2041.86
2043.95
2046.03
2048.08
2050.08
2052.05
2053.96
2055.8
2057.56
2059.25
2060.91
2062.56
2064.28
2066.13
2068.13
2070.29
2072.58
2074.97
2077.41
2079.87
2082.3
2084.67
2086.93
2089.01
2090.88
2092.5
2093.9
2095.13
2096.22
2097.17
2097.99
2098.7
2099.28
2099.74
2100.11
2100.37
2100.44
2100.47
2100.45
2100.32
2100.05
2099.72
2099.35
2099.05
2098.68
2098.33
2098.07
2097.89
2097.75
2097.63
2097.63
2097.58
1960.85
1960.91
1961.02
1961.32
1961.76
1962.36
1963.16
1964.04
1965.12
1966.34
1967.67
1969.18
1970.88
1972.64
1974.59
1976.76
1979.06
1981.32
1983.63
1986.1
1988.53
1990.96
1993.37
1995.8
1998.32
2000.92
2003.45
2005.79
2008.04
2010.26
2012.38
2014.35
2016.17
2017.83
2019.37
2020.81
2022.19
2023.54
2024.85
2026.15
2027.45
2028.78
2030.17
2031.61
2033.14
2034.77
2036.55
2038.46
2040.47
2042.53
2044.57
2046.58
2048.54
2050.46
2052.31
2054.07
2055.72
2057.28
2058.78
2060.26
2061.79
2063.44
2065.23
2067.19
2069.28
2071.49
2073.78
2076.12
2078.47
2080.79
2083.04
2085.14
2087.05
2088.72
2090.2
2091.5
2092.68
2093.73
2094.64
2095.4
2095.98
2096.4
2096.76
2097.02
2097.07
2097.09
2097.04
2096.92
2096.69
2096.4
2096.09
2095.85
2095.56
2095.26
2095
2094.82
2094.65
2094.46
2094.35
2094.25
1960.89
1960.94
1961.07
1961.4
1961.9
1962.56
1963.42
1964.32
1965.46
1966.67
1967.97
1969.42
1971.05
1972.73
1974.61
1976.73
1978.99
1981.26
1983.54
1985.96
1988.35
1990.78
1993.21
1995.62
1998.13
2000.65
2003.06
2005.31
2007.46
2009.56
2011.59
2013.53
2015.32
2016.96
2018.44
2019.8
2021.09
2022.35
2023.62
2024.89
2026.18
2027.51
2028.88
2030.32
2031.86
2033.51
2035.3
2037.21
2039.19
2041.18
2043.15
2045.09
2046.99
2048.83
2050.59
2052.24
2053.77
2055.18
2056.51
2057.81
2059.15
2060.59
2062.17
2063.9
2065.77
2067.77
2069.88
2072.07
2074.31
2076.55
2078.74
2080.82
2082.74
2084.46
2086
2087.38
2088.63
2089.76
2090.76
2091.59
2092.19
2092.61
2092.99
2093.27
2093.38
2093.43
2093.38
2093.28
2093.14
2092.94
2092.7
2092.52
2092.29
2092.05
2091.78
2091.52
2091.28
2091.02
2090.79
2090.62
1961.23
1961.23
1961.43
1961.76
1962.29
1963.02
1963.94
1964.87
1965.99
1967.16
1968.39
1969.75
1971.29
1972.92
1974.7
1976.7
1978.85
1981.02
1983.26
1985.61
1987.93
1990.3
1992.67
1994.99
1997.41
1999.88
2002.2
2004.37
2006.46
2008.49
2010.44
2012.27
2013.99
2015.6
2017.09
2018.47
2019.75
2020.98
2022.21
2023.45
2024.74
2026.08
2027.48
2028.93
2030.47
2032.1
2033.86
2035.72
2037.64
2039.56
2041.45
2043.3
2045.1
2046.85
2048.52
2050.07
2051.49
2052.77
2053.97
2055.12
2056.29
2057.54
2058.9
2060.4
2062.05
2063.85
2065.81
2067.87
2070.01
2072.16
2074.26
2076.27
2078.16
2079.91
2081.51
2082.96
2084.26
2085.45
2086.52
2087.42
2088.06
2088.51
2088.94
2089.25
2089.46
2089.57
2089.57
2089.53
2089.47
2089.38
2089.22
2089.09
2088.88
2088.64
2088.31
2087.96
2087.61
2087.27
2086.97
2086.8
1961.61
1961.59
1961.82
1962.25
1962.8
1963.53
1964.43
1965.36
1966.37
1967.45
1968.58
1969.87
1971.3
1972.83
1974.5
1976.37
1978.41
1980.45
1982.61
1984.84
1987
1989.23
1991.5
1993.77
1996.11
1998.47
2000.69
2002.74
2004.72
2006.67
2008.58
2010.39
2012.1
2013.71
2015.23
2016.64
2017.96
2019.22
2020.45
2021.71
2023.01
2024.36
2025.77
2027.22
2028.73
2030.32
2032
2033.77
2035.57
2037.38
2039.16
2040.9
2042.6
2044.25
2045.82
2047.26
2048.58
2049.77
2050.86
2051.91
2052.97
2054.1
2055.32
2056.66
2058.14
2059.78
2061.57
2063.49
2065.5
2067.54
2069.56
2071.51
2073.36
2075.1
2076.74
2078.26
2079.62
2080.84
2081.96
2082.93
2083.64
2084.18
2084.67
2085.01
2085.31
2085.51
2085.59
2085.62
2085.66
2085.66
2085.56
2085.43
2085.21
2084.94
2084.51
2084.08
2083.62
2083.18
2082.86
2082.73
1962.11
1962.14
1962.33
1962.82
1963.38
1964.08
1964.89
1965.72
1966.63
1967.58
1968.59
1969.8
1971.15
1972.59
1974.14
1975.85
1977.72
1979.61
1981.69
1983.82
1985.88
1987.94
1990
1992.09
1994.28
1996.5
1998.58
2000.54
2002.45
2004.34
2006.21
2008.01
2009.73
2011.38
2012.94
2014.42
2015.81
2017.13
2018.43
2019.74
2021.09
2022.47
2023.89
2025.33
2026.81
2028.33
2029.93
2031.58
2033.26
2034.93
2036.56
2038.17
2039.74
2041.26
2042.71
2044.05
2045.28
2046.39
2047.43
2048.42
2049.42
2050.47
2051.59
2052.8
2054.14
2055.63
2057.28
2059.08
2060.97
2062.9
2064.81
2066.68
2068.49
2070.23
2071.9
2073.48
2074.91
2076.18
2077.35
2078.36
2079.15
2079.79
2080.35
2080.74
2081.11
2081.37
2081.55
2081.65
2081.76
2081.81
2081.75
2081.58
2081.27
2080.93
2080.39
2079.87
2079.32
2078.84
2078.5
2078.33
1962.76
1962.8
1963.06
1963.51
1964
1964.61
1965.36
1966.02
1966.82
1967.68
1968.61
1969.72
1970.96
1972.3
1973.75
1975.37
1977.14
1978.92
1980.91
1982.9
1984.87
1986.78
1988.63
1990.48
1992.47
1994.52
1996.5
1998.37
2000.19
2002.03
2003.89
2005.73
2007.51
2009.21
2010.82
2012.34
2013.78
2015.17
2016.55
2017.93
2019.33
2020.74
2022.15
2023.56
2024.98
2026.43
2027.93
2029.45
2030.98
2032.49
2033.96
2035.4
2036.81
2038.18
2039.49
2040.72
2041.86
2042.91
2043.9
2044.85
2045.81
2046.81
2047.87
2049
2050.24
2051.61
2053.13
2054.78
2056.53
2058.33
2060.14
2061.93
2063.68
2065.41
2067.09
2068.7
2070.18
2071.51
2072.73
2073.78
2074.63
2075.36
2075.98
2076.44
2076.86
2077.18
2077.43
2077.57
2077.67
2077.72
2077.64
2077.41
2076.99
2076.51
2075.89
2075.25
2074.63
2074.16
2073.8
2073.57
1963.66
1963.64
1963.93
1964.37
1964.76
1965.24
1965.86
1966.41
1967.1
1967.86
1968.73
1969.78
1970.94
1972.18
1973.54
1975.09
1976.75
1978.45
1980.34
1982.18
1984.02
1985.82
1987.49
1989.14
1990.91
1992.79
1994.67
1996.49
1998.29
2000.09
2001.92
2003.77
2005.62
2007.42
2009.11
2010.69
2012.17
2013.59
2015
2016.42
2017.85
2019.27
2020.67
2022.03
2023.38
2024.74
2026.11
2027.5
2028.86
2030.19
2031.47
2032.73
2033.97
2035.19
2036.36
2037.47
2038.52
2039.5
2040.44
2041.36
2042.3
2043.26
2044.26
2045.32
2046.47
2047.75
2049.16
2050.7
2052.32
2053.97
2055.65
2057.34
2059.03
2060.72
2062.39
2064.02
2065.52
2066.87
2068.11
2069.18
2070.08
2070.89
2071.57
2072.07
2072.52
2072.85
2073.15
2073.3
2073.38
2073.36
2073.2
2072.87
2072.3
2071.68
2070.98
2070.24
2069.57
2069.05
2068.62
2068.31
1964.76
1964.78
1965
1965.37
1965.69
1966.04
1966.46
1966.94
1967.51
1968.18
1968.95
1969.89
1970.94
1972.07
1973.32
1974.81
1976.37
1977.99
1979.72
1981.4
1983.07
1984.73
1986.27
1987.76
1989.33
1991.01
1992.76
1994.54
1996.35
1998.2
2000.08
2002
2003.92
2005.79
2007.54
2009.17
2010.68
2012.12
2013.54
2014.97
2016.4
2017.81
2019.16
2020.47
2021.74
2022.99
2024.24
2025.48
2026.68
2027.84
2028.96
2030.05
2031.13
2032.19
2033.21
2034.2
2035.14
2036.05
2036.94
2037.84
2038.76
2039.7
2040.67
2041.69
2042.79
2043.99
2045.33
2046.78
2048.29
2049.85
2051.43
2053.04
2054.67
2056.3
2057.93
2059.53
2061.02
2062.36
2063.61
2064.68
2065.61
2066.45
2067.17
2067.73
2068.21
2068.52
2068.83
2068.91
2068.92
2068.78
2068.5
2068.04
2067.32
2066.54
2065.73
2064.9
2064.16
2063.58
2063.08
2062.69
1965.95
1966.03
1966.21
1966.45
1966.64
1966.89
1967.15
1967.48
1967.92
1968.46
1969.1
1969.91
1970.85
1971.85
1972.95
1974.34
1975.82
1977.4
1978.94
1980.41
1981.86
1983.29
1984.67
1986.04
1987.48
1989.02
1990.68
1992.45
1994.3
1996.22
1998.17
2000.13
2002.09
2003.99
2005.77
2007.4
2008.92
2010.35
2011.76
2013.16
2014.55
2015.89
2017.18
2018.4
2019.57
2020.72
2021.86
2022.98
2024.05
2025.08
2026.06
2027.01
2027.95
2028.87
2029.77
2030.65
2031.5
2032.33
2033.18
2034.06
2034.96
2035.9
2036.88
2037.9
2038.98
2040.17
2041.47
2042.88
2044.34
2045.84
2047.36
2048.9
2050.47
2052.04
2053.63
2055.2
2056.66
2057.99
2059.21
2060.29
2061.24
2062.12
2062.86
2063.44
2063.89
2064.16
2064.42
2064.45
2064.34
2064.04
2063.57
2062.95
2062.11
2061.21
2060.27
2059.35
2058.48
2057.8
2057.3
2056.94
1967.42
1967.4
1967.56
1967.69
1967.72
1967.79
1967.95
1968.09
1968.36
1968.76
1969.25
1969.94
1970.73
1971.65
1972.61
1973.82
1975.16
1976.69
1978.09
1979.3
1980.49
1981.7
1982.89
1984.14
1985.5
1986.98
1988.57
1990.3
1992.17
1994.15
1996.18
1998.21
2000.19
2002.07
2003.8
2005.4
2006.88
2008.29
2009.67
2011.04
2012.38
2013.66
2014.86
2015.99
2017.07
2018.13
2019.17
2020.19
2021.18
2022.11
2023.01
2023.87
2024.71
2025.51
2026.29
2027.05
2027.8
2028.57
2029.36
2030.22
2031.12
2032.09
2033.1
2034.17
2035.29
2036.49
2037.78
2039.15
2040.57
2042.03
2043.52
2045.05
2046.56
2048.06
2049.6
2051.15
2052.59
2053.91
2055.11
2056.17
2057.13
2058
2058.75
2059.33
2059.71
2059.9
2060.03
2059.94
2059.7
2059.22
2058.56
2057.74
2056.77
2055.73
2054.68
2053.69
2052.7
2051.96
2051.45
2051.2
1968.97
1968.85
1968.93
1968.95
1968.88
1968.76
1968.76
1968.74
1968.85
1969.12
1969.51
1970.09
1970.75
1971.57
1972.45
1973.47
1974.58
1975.9
1977.2
1978.28
1979.22
1980.17
1981.19
1982.32
1983.6
1985.03
1986.59
1988.31
1990.18
1992.16
1994.21
1996.26
1998.22
2000.05
2001.72
2003.24
2004.66
2006.02
2007.37
2008.7
2009.99
2011.21
2012.34
2013.4
2014.41
2015.4
2016.39
2017.36
2018.29
2019.18
2020.02
2020.82
2021.56
2022.26
2022.91
2023.54
2024.18
2024.86
2025.61
2026.44
2027.34
2028.31
2029.34
2030.44
2031.6
2032.82
2034.11
2035.46
2036.85
2038.27
2039.74
2041.25
2042.74
2044.18
2045.68
2047.2
2048.62
2049.93
2051.12
2052.16
2053.11
2053.95
2054.64
2055.16
2055.46
2055.57
2055.54
2055.28
2054.87
2054.2
2053.35
2052.38
2051.3
2050.16
2048.99
2047.91
2046.87
2046.16
2045.66
2045.47
1970.31
1970.17
1970.19
1970.1
1969.91
1969.73
1969.58
1969.44
1969.46
1969.62
1969.92
1970.42
1970.98
1971.68
1972.46
1973.31
1974.24
1975.27
1976.32
1977.29
1978.12
1978.9
1979.74
1980.72
1981.91
1983.28
1984.83
1986.54
1988.41
1990.39
1992.41
1994.4
1996.3
1998.06
1999.65
2001.1
2002.46
2003.77
2005.06
2006.32
2007.55
2008.7
2009.78
2010.79
2011.77
2012.74
2013.7
2014.65
2015.57
2016.44
2017.26
2018.01
2018.68
2019.27
2019.8
2020.28
2020.78
2021.34
2022
2022.77
2023.63
2024.56
2025.58
2026.66
2027.82
2029.06
2030.36
2031.69
2033.05
2034.43
2035.87
2037.36
2038.82
2040.23
2041.68
2043.15
2044.55
2045.85
2047.01
2048.01
2048.91
2049.71
2050.35
2050.79
2050.96
2050.96
2050.77
2050.34
2049.77
2048.94
2047.92
2046.84
2045.64
2044.41
2043.2
2042.07
2041.07
2040.39
2039.93
2039.72
1971.62
1971.46
1971.46
1971.34
1971.07
1970.84
1970.64
1970.43
1970.4
1970.47
1970.67
1971.03
1971.49
1972.04
1972.71
1973.37
1974.16
1974.97
1975.71
1976.44
1977.15
1977.85
1978.61
1979.51
1980.61
1981.91
1983.42
1985.11
1986.96
1988.9
1990.87
1992.8
1994.62
1996.29
1997.81
1999.19
2000.49
2001.73
2002.95
2004.13
2005.27
2006.36
2007.4
2008.4
2009.38
2010.36
2011.34
2012.31
2013.24
2014.11
2014.92
2015.64
2016.26
2016.76
2017.17
2017.51
2017.85
2018.27
2018.79
2019.44
2020.2
2021.07
2022.03
2023.08
2024.21
2025.44
2026.73
2028.05
2029.36
2030.67
2032.05
2033.5
2034.93
2036.32
2037.73
2039.13
2040.47
2041.7
2042.83
2043.79
2044.62
2045.32
2045.85
2046.19
2046.25
2046.13
2045.79
2045.19
2044.45
2043.5
2042.39
2041.21
2039.94
2038.65
2037.43
2036.32
2035.43
2034.78
2034.35
2034.11
1973.1
1972.95
1972.93
1972.79
1972.55
1972.25
1972.04
1971.79
1971.7
1971.64
1971.73
1971.89
1972.24
1972.66
1973.26
1973.73
1974.28
1974.89
1975.44
1975.94
1976.48
1977.08
1977.77
1978.6
1979.59
1980.78
1982.18
1983.79
1985.56
1987.43
1989.32
1991.14
1992.84
1994.41
1995.84
1997.15
1998.37
1999.54
2000.67
2001.77
2002.84
2003.88
2004.9
2005.92
2006.93
2007.96
2008.99
2009.99
2010.94
2011.83
2012.63
2013.33
2013.9
2014.32
2014.62
2014.84
2015.05
2015.32
2015.7
2016.21
2016.84
2017.62
2018.51
2019.51
2020.6
2021.78
2023.03
2024.33
2025.61
2026.86
2028.18
2029.56
2030.95
2032.32
2033.7
2035.04
2036.29
2037.45
2038.5
2039.43
2040.17
2040.78
2041.19
2041.38
2041.33
2041.09
2040.63
2039.9
2039.04
2038
2036.84
2035.63
2034.36
2033.07
2031.88
2030.86
2030.06
2029.45
2029.04
2028.88
1974.61
1974.52
1974.55
1974.4
1974.17
1973.84
1973.56
1973.28
1973.07
1972.91
1972.93
1972.92
1973.12
1973.36
1973.77
1974.18
1974.54
1974.91
1975.27
1975.63
1976.03
1976.51
1977.1
1977.85
1978.76
1979.84
1981.11
1982.59
1984.22
1985.95
1987.68
1989.36
1990.93
1992.38
1993.7
1994.92
1996.05
1997.14
1998.18
1999.21
2000.22
2001.24
2002.27
2003.32
2004.4
2005.5
2006.59
2007.64
2008.62
2009.52
2010.32
2010.99
2011.52
2011.9
2012.14
2012.28
2012.4
2012.55
2012.79
2013.14
2013.63
2014.29
2015.1
2016.02
2017.05
2018.15
2019.34
2020.59
2021.84
2023.05
2024.3
2025.61
2026.92
2028.26
2029.58
2030.85
2032
2033.07
2034.03
2034.9
2035.54
2036.04
2036.34
2036.4
2036.25
2035.88
2035.32
2034.5
2033.57
2032.53
2031.34
2030.13
2028.91
2027.7
2026.6
2025.69
2024.97
2024.39
2024.02
2023.97
1976.11
1976.05
1976.13
1975.99
1975.69
1975.38
1974.99
1974.67
1974.34
1974.08
1974
1973.91
1973.92
1974.06
1974.21
1974.44
1974.72
1975
1975.24
1975.5
1975.8
1976.18
1976.7
1977.36
1978.16
1979.11
1980.25
1981.56
1983.02
1984.55
1986.09
1987.58
1988.98
1990.27
1991.47
1992.59
1993.65
1994.67
1995.66
1996.64
1997.63
1998.65
1999.72
2000.84
2002
2003.17
2004.33
2005.42
2006.43
2007.35
2008.15
2008.82
2009.33
2009.68
2009.88
2009.96
2010
2010.05
2010.16
2010.36
2010.7
2011.21
2011.89
2012.72
2013.65
2014.66
2015.75
2016.93
2018.11
2019.25
2020.41
2021.61
2022.83
2024.07
2025.3
2026.47
2027.5
2028.46
2029.34
2030.14
2030.68
2031.04
2031.22
2031.17
2030.94
2030.48
2029.87
2029
2028.04
2027.01
2025.84
2024.69
2023.55
2022.49
2021.51
2020.67
2020.04
2019.51
2019.26