/*--------------------------------*- C++ -*----------------------------------*\
| =========                 |                                                 |
| \\      /  F ield         | OpenFOAM: The Open Source CFD Toolbox           |
|  \\    /   O peration     | Version:  2406                                  |
|   \\  /    A nd           | Website:  www.openfoam.com                      |
|    \\/     M anipulation  |                                                 |
\*---------------------------------------------------------------------------*/
FoamFile
{
    version     2.0;
    format      ascii;
    arch        "LSB;label=32;scalar=64";
    class       surfaceScalarField;
    location    "1";
    object      phi;
}
// * * * * * * * * * * * * * * * * * * * * * * * * * * * * * * * * * * * * * //

dimensions      [0 3 -1 0 0 0 0];

oriented        oriented;

internalField   nonuniform List<scalar> 
19800
(
9.0121e-15
1.20181e-13
-3.9514e-14
1.13689e-13
-6.95631e-14
6.38006e-14
-2.04735e-13
5.5865e-14
-2.61268e-13
7.36141e-14
-2.45559e-13
8.44718e-14
-2.4887e-13
5.22546e-14
-3.68223e-13
1.40138e-14
-3.67957e-13
4.70992e-14
-4.04728e-13
4.71637e-14
-4.4052e-13
6.40167e-14
-4.42491e-13
8.6707e-14
-4.82791e-13
9.37683e-14
-4.97016e-13
1.00264e-13
-5.21851e-13
9.27389e-14
-5.44115e-13
8.97506e-14
-5.46821e-13
1.10801e-13
-5.48622e-13
1.33441e-13
-5.48796e-13
1.35127e-13
-5.59839e-13
1.43133e-13
-5.31504e-13
1.5091e-13
-5.10153e-13
1.47085e-13
-5.07114e-13
1.46285e-13
-5.0388e-13
1.42284e-13
-4.99905e-13
1.22258e-13
-5.06401e-13
9.81199e-14
-5.02191e-13
8.88494e-14
-4.86917e-13
8.36917e-14
-4.9378e-13
6.39797e-14
-5.35429e-13
3.94824e-14
-5.69581e-13
3.08621e-14
-5.8238e-13
3.30264e-14
-6.00043e-13
2.72962e-14
-6.47896e-13
1.85542e-14
-6.88967e-13
2.02347e-14
-7.02834e-13
2.24106e-14
-7.10105e-13
1.71305e-14
-7.27598e-13
1.61866e-14
-7.41809e-13
2.53737e-14
-7.46735e-13
3.17624e-14
-7.46834e-13
3.42274e-14
-7.39337e-13
3.80105e-14
-7.31816e-13
4.1874e-14
-7.30138e-13
4.46702e-14
-7.29276e-13
4.76749e-14
-7.29095e-13
5.41069e-14
-7.30479e-13
6.51648e-14
-7.30145e-13
7.85342e-14
-7.2402e-13
9.23391e-14
-7.1366e-13
1.01556e-13
-7.09467e-13
9.92659e-14
-7.18374e-13
8.87706e-14
-7.33808e-13
8.0305e-14
-7.46399e-13
7.6238e-14
-7.54321e-13
7.18254e-14
-7.58323e-13
6.50874e-14
-7.59098e-13
5.64792e-14
-7.61072e-13
4.41915e-14
-7.68201e-13
2.70214e-14
-7.76087e-13
9.03668e-15
-7.74209e-13
-3.41546e-15
-7.55774e-13
-8.60832e-15
-7.22676e-13
-1.07629e-14
-6.81226e-13
-1.47275e-14
-6.35664e-13
-2.10011e-14
-5.86651e-13
-2.59108e-14
-5.33905e-13
-2.51957e-14
-4.78524e-13
-1.71348e-14
-4.23113e-13
-3.49779e-15
-3.70553e-13
1.1574e-14
-3.22581e-13
2.39279e-14
-2.79147e-13
3.14832e-14
-2.39235e-13
3.46442e-14
-2.02367e-13
3.49752e-14
-1.69098e-13
3.3631e-14
-1.39853e-13
3.12564e-14
-1.13414e-13
2.90668e-14
-8.72126e-14
2.90937e-14
-5.96421e-14
3.2876e-14
-3.20841e-14
4.01669e-14
-8.4142e-15
4.901e-14
7.66573e-15
5.66866e-14
1.45813e-14
6.14044e-14
1.32751e-14
6.40737e-14
6.80726e-15
6.71286e-14
-2.67596e-15
7.21426e-14
-1.55198e-14
7.99322e-14
-3.19443e-14
9.0205e-14
-5.32721e-14
1.01613e-13
-8.02694e-14
1.12147e-13
-1.09006e-13
1.19237e-13
-1.32952e-13
1.20954e-13
-1.45508e-13
1.17668e-13
-1.43976e-13
1.09649e-13
-1.28732e-13
1.01552e-13
-9.28349e-14
9.03912e-14
-3.96327e-14
7.23827e-14
1.8253e-14
4.08441e-14
4.48222e-14
1.20925e-14
1.08398e-14
-6.91597e-14
1.03804e-13
-1.58839e-13
1.8856e-13
-1.40306e-13
1.49029e-13
-3.07643e-13
6.00211e-14
-3.99017e-13
8.62339e-14
-4.21313e-13
6.45543e-14
-4.33327e-13
4.13536e-14
-5.15143e-13
8.84259e-15
-5.555e-13
1.76809e-14
-5.87932e-13
2.77869e-14
-6.35403e-13
3.95584e-14
-6.60369e-13
5.60275e-14
-7.16523e-13
6.99835e-14
-7.53416e-13
9.0592e-14
-7.87396e-13
1.16491e-13
-8.02945e-13
1.38937e-13
-8.13454e-13
1.54564e-13
-8.44061e-13
1.83202e-13
-8.41164e-13
1.97717e-13
-8.6224e-13
1.98904e-13
-8.45873e-13
2.09379e-13
-8.16864e-13
2.15307e-13
-8.14996e-13
2.04049e-13
-8.25565e-13
1.7719e-13
-8.25751e-13
1.52703e-13
-8.23397e-13
1.325e-13
-8.15381e-13
9.97369e-14
-8.08774e-13
5.97156e-14
-8.22874e-13
3.61593e-14
-8.62726e-13
2.11762e-14
-8.98034e-13
-1.92841e-15
-9.26435e-13
-2.34376e-14
-9.58444e-13
-2.60553e-14
-1.01579e-12
-2.70675e-14
-1.07384e-12
-3.7373e-14
-1.10401e-12
-4.37822e-14
-1.11153e-12
-3.85662e-14
-1.12253e-12
-3.4226e-14
-1.14031e-12
-2.97089e-14
-1.147e-12
-2.25016e-14
-1.14321e-12
-1.71869e-14
-1.13044e-12
-1.44923e-14
-1.11691e-12
-9.63872e-15
-1.10931e-12
2.18879e-15
-1.10051e-12
1.57844e-14
-1.09251e-12
2.44616e-14
-1.08979e-12
3.2991e-14
-1.08597e-12
4.3808e-14
-1.07709e-12
5.16296e-14
-1.06788e-12
5.6758e-14
-1.0646e-12
6.2197e-14
-1.07149e-12
6.42776e-14
-1.08711e-12
5.87368e-14
-1.10379e-12
4.82607e-14
-1.11465e-12
3.82782e-14
-1.11849e-12
2.94027e-14
-1.11991e-12
1.74038e-14
-1.12545e-12
-3.10134e-16
-1.13542e-12
-2.10655e-14
-1.14056e-12
-4.01668e-14
-1.12946e-12
-5.52531e-14
-1.09741e-12
-6.65006e-14
-1.04734e-12
-7.41207e-14
-9.84105e-13
-7.69577e-14
-9.10061e-13
-7.3175e-14
-8.25944e-13
-6.14196e-14
-7.34005e-13
-4.15159e-14
-6.39161e-13
-1.50968e-14
-5.47217e-13
1.39911e-14
-4.62156e-13
4.0566e-14
-3.84766e-13
6.03541e-14
-3.13548e-13
7.18234e-14
-2.47165e-13
7.59803e-14
-1.86059e-13
7.48399e-14
-1.31186e-13
7.0591e-14
-8.129e-14
6.59985e-14
-3.22185e-14
6.4331e-14
2.02368e-14
6.76764e-14
7.63043e-14
7.53188e-14
1.30568e-13
8.44074e-14
1.74225e-13
9.26268e-14
2.00777e-13
9.99998e-14
2.09892e-13
1.08501e-13
2.05454e-13
1.20978e-13
1.92738e-13
1.38654e-13
1.74421e-13
1.59526e-13
1.47406e-13
1.82102e-13
1.07596e-13
2.07292e-13
5.18012e-14
2.35336e-13
-2.08623e-14
2.651e-13
-1.00017e-13
2.92183e-13
-1.71614e-13
3.09189e-13
-2.19755e-13
3.04575e-13
-2.39202e-13
2.71975e-13
-2.33178e-13
2.23227e-13
-1.96851e-13
1.82892e-13
-1.30124e-13
1.59054e-13
-3.64754e-14
1.43826e-13
5.50768e-14
1.16564e-13
6.63251e-14
-7.0949e-14
9.49721e-14
-2.02565e-13
1.39339e-13
-2.07981e-13
1.23789e-13
-2.77705e-13
6.25816e-14
-4.32777e-13
6.30531e-14
-4.54803e-13
8.27334e-14
-4.76018e-13
6.30066e-14
-5.21356e-13
3.07319e-14
-5.57037e-13
1.41473e-14
-5.81708e-13
1.72558e-14
-6.26736e-13
4.06152e-14
-6.54869e-13
7.13221e-14
-7.0455e-13
9.90421e-14
-7.36108e-13
1.20082e-13
-7.75222e-13
1.43601e-13
-8.05037e-13
1.91768e-13
-8.07227e-13
2.3335e-13
-8.55449e-13
2.49521e-13
-8.70815e-13
2.69896e-13
-8.89105e-13
2.85586e-13
-8.82774e-13
2.89295e-13
-8.74262e-13
2.86646e-13
-8.90633e-13
2.78646e-13
-9.01767e-13
2.54044e-13
-9.00746e-13
2.12271e-13
-9.13887e-13
1.75904e-13
-9.15855e-13
1.51276e-13
-8.93611e-13
1.16416e-13
-8.97186e-13
6.66872e-14
-9.41859e-13
2.56789e-14
-9.71929e-13
1.57616e-14
-9.77327e-13
1.04955e-14
-1.00392e-12
-8.84949e-15
-1.06795e-12
-2.66004e-14
-1.11972e-12
-2.67295e-14
-1.13378e-12
-2.18855e-14
-1.13683e-12
-1.80434e-14
-1.14225e-12
-1.07228e-14
-1.15208e-12
-1.97906e-15
-1.15541e-12
4.69455e-15
-1.15032e-12
1.15815e-14
-1.13314e-12
2.57501e-14
-1.11022e-12
4.09651e-14
-1.09689e-12
4.53761e-14
-1.08855e-12
4.16764e-14
-1.07751e-12
4.0287e-14
-1.07037e-12
4.89197e-14
-1.06687e-12
6.86017e-14
-1.05698e-12
9.09271e-14
-1.04348e-12
1.03947e-13
-1.04043e-12
1.03887e-13
-1.05345e-12
9.85098e-14
-1.07382e-12
9.71922e-14
-1.08966e-12
9.84492e-14
-1.09756e-12
9.18588e-14
-1.10073e-12
7.21789e-14
-1.10285e-12
4.52094e-14
-1.10663e-12
2.02594e-14
-1.1113e-12
1.97584e-15
-1.10962e-12
-1.07406e-14
-1.09165e-12
-2.09648e-14
-1.05207e-12
-2.99406e-14
-9.92588e-13
-3.58469e-14
-9.17931e-13
-3.47412e-14
-8.31388e-13
-2.26931e-14
-7.3502e-13
1.62253e-15
-6.32709e-13
3.53956e-14
-5.31107e-13
7.26025e-14
-4.36737e-13
1.0689e-13
-3.52232e-13
1.34347e-13
-2.75668e-13
1.54237e-13
-2.03548e-13
1.67351e-13
-1.34374e-13
1.73853e-13
-6.9228e-14
1.73198e-13
-8.9361e-15
1.6622e-13
4.84409e-14
1.56518e-13
1.06628e-13
1.48965e-13
1.67799e-13
1.46649e-13
2.30113e-13
1.49343e-13
2.87725e-13
1.54484e-13
3.32567e-13
1.60165e-13
3.58779e-13
1.68051e-13
3.66554e-13
1.82452e-13
3.58947e-13
2.06944e-13
3.39158e-13
2.42057e-13
3.10444e-13
2.85018e-13
2.70903e-13
3.33083e-13
2.15509e-13
3.84432e-13
1.39928e-13
4.35281e-13
4.31369e-14
4.81055e-13
-6.5153e-14
5.17105e-13
-1.69489e-13
5.35289e-13
-2.50282e-13
5.2391e-13
-2.8479e-13
4.69678e-13
-2.73517e-13
3.7893e-13
-2.27394e-13
2.76207e-13
-1.66668e-13
1.9793e-13
-9.38931e-14
1.71068e-13
1.20774e-14
1.74119e-13
1.23485e-13
-8.08083e-14
2.05559e-13
-1.73938e-13
3.3265e-13
-2.19248e-13
2.4095e-13
-2.44329e-13
1.22193e-13
-4.00973e-13
4.22433e-14
-4.70508e-13
4.221e-14
-5.0889e-13
4.35886e-14
-5.47965e-13
4.06639e-14
-5.67428e-13
4.38471e-14
-5.70324e-13
5.75121e-14
-6.05659e-13
6.21092e-14
-6.30099e-13
6.27725e-14
-6.82543e-13
8.76435e-14
-7.09948e-13
1.47899e-13
-7.23183e-13
2.11867e-13
-7.59573e-13
2.54996e-13
-7.86383e-13
3.09361e-13
-8.29004e-13
3.35175e-13
-8.49311e-13
3.50012e-13
-8.80045e-13
3.69095e-13
-8.81008e-13
3.82975e-13
-8.79739e-13
3.76211e-13
-9.12642e-13
3.48733e-13
-9.41249e-13
3.17793e-13
-9.38345e-13
2.91368e-13
-9.42712e-13
2.59516e-13
-9.54692e-13
2.14843e-13
-9.46274e-13
1.6728e-13
-9.41233e-13
1.33706e-13
-9.54182e-13
1.0341e-13
-9.76426e-13
7.26872e-14
-9.91075e-13
4.87268e-14
-1.0126e-12
3.26837e-14
-1.05655e-12
1.34459e-14
-1.1e-12
-9.60142e-16
-1.11024e-12
4.70968e-15
-1.10581e-12
2.23595e-14
-1.10629e-12
3.70755e-14
-1.11471e-12
4.09258e-14
-1.11609e-12
4.438e-14
-1.10354e-12
5.6876e-14
-1.08436e-12
7.91634e-14
-1.06968e-12
1.02919e-13
-1.06174e-12
1.15568e-13
-1.04947e-12
1.16206e-13
-1.02761e-12
1.15849e-13
-1.00858e-12
1.2357e-13
-1.00111e-12
1.38299e-13
-9.98901e-13
1.51545e-13
-9.97184e-13
1.57334e-13
-9.99395e-13
1.57831e-13
-1.00953e-12
1.57783e-13
-1.02827e-12
1.5771e-13
-1.05167e-12
1.54049e-13
-1.07156e-12
1.43681e-13
-1.0807e-12
1.27397e-13
-1.07894e-12
1.08419e-13
-1.07331e-12
8.86544e-14
-1.06918e-12
6.80694e-14
-1.06194e-12
4.68506e-14
-1.04011e-12
2.68279e-14
-9.95279e-13
1.13734e-14
-9.27142e-13
4.83372e-15
-8.40777e-13
1.15638e-14
-7.42341e-13
3.40458e-14
-6.37981e-13
7.08479e-14
-5.34477e-13
1.16189e-13
-4.38367e-13
1.61989e-13
-3.53283e-13
2.01311e-13
-2.78327e-13
2.30717e-13
-2.0984e-13
2.50001e-13
-1.44953e-13
2.60212e-13
-8.31774e-14
2.62355e-13
-2.48205e-14
2.5793e-13
3.14396e-14
2.49843e-13
8.84862e-14
2.41698e-13
1.48338e-13
2.35884e-13
2.10147e-13
2.32618e-13
2.69968e-13
2.31024e-13
3.22518e-13
2.3071e-13
3.62772e-13
2.33199e-13
3.87051e-13
2.4328e-13
3.94845e-13
2.6649e-13
3.86483e-13
3.04573e-13
3.62316e-13
3.55816e-13
3.25823e-13
4.17044e-13
2.76886e-13
4.84935e-13
2.1026e-13
5.56552e-13
1.23984e-13
6.27127e-13
1.93295e-14
6.91217e-13
-9.33013e-14
7.39978e-13
-2.03509e-13
7.58138e-13
-2.94582e-13
7.30068e-13
-3.35294e-13
6.47605e-13
-3.16717e-13
5.1426e-13
-2.51424e-13
3.55863e-13
-1.73325e-13
2.14083e-13
-1.11733e-13
1.57126e-13
-2.50731e-14
1.85087e-13
1.55641e-13
-6.16427e-14
1.96707e-13
-2.22404e-13
2.96554e-13
-2.7075e-13
2.82401e-13
-2.92337e-13
1.97851e-13
-3.97129e-13
1.13968e-13
-4.76917e-13
5.63802e-14
-5.31069e-13
4.23209e-14
-5.7589e-13
3.24665e-14
-5.92258e-13
6.07742e-14
-6.04209e-13
8.38624e-14
-6.40262e-13
1.04325e-13
-6.36598e-13
1.47022e-13
-6.48476e-13
1.78357e-13
-6.64216e-13
2.08284e-13
-6.91138e-13
2.65483e-13
-7.09178e-13
3.21816e-13
-7.59248e-13
3.73059e-13
-8.07643e-13
4.01336e-13
-8.20306e-13
4.22231e-13
-8.51777e-13
4.35193e-13
-8.68276e-13
4.41537e-13
-8.84373e-13
4.43509e-13
-9.18893e-13
4.24874e-13
-9.41948e-13
3.83518e-13
-9.43769e-13
3.42609e-13
-9.59692e-13
3.07656e-13
-9.74165e-13
2.72639e-13
-9.52276e-13
2.31464e-13
-9.44688e-13
1.86623e-13
-9.5873e-13
1.46902e-13
-9.75497e-13
1.15961e-13
-9.82955e-13
8.43041e-14
-1.00743e-12
5.24261e-14
-1.047e-12
3.25725e-14
-1.07239e-12
2.76652e-14
-1.07253e-12
3.24918e-14
-1.07125e-12
3.5267e-14
-1.08263e-12
3.9513e-14
-1.09186e-12
5.14053e-14
-1.0854e-12
7.0397e-14
-1.06472e-12
8.92667e-14
-1.04553e-12
1.06707e-13
-1.04251e-12
1.27205e-13
-1.0462e-12
1.47692e-13
-1.03467e-12
1.60927e-13
-1.00529e-12
1.65676e-13
-9.79768e-13
1.65275e-13
-9.7335e-13
1.65047e-13
-9.77703e-13
1.69809e-13
-9.80935e-13
1.7954e-13
-9.84324e-13
1.89458e-13
-9.95964e-13
1.94087e-13
-1.02015e-12
1.90665e-13
-1.05182e-12
1.79612e-13
-1.07844e-12
1.63215e-13
-1.0902e-12
1.44438e-13
-1.08859e-12
1.25505e-13
-1.0833e-12
1.06997e-13
-1.07998e-12
8.91314e-14
-1.07222e-12
7.34679e-14
-1.04644e-12
6.2729e-14
-9.9305e-13
5.95525e-14
-9.12138e-13
6.58955e-14
-8.11241e-13
8.31547e-14
-7.00797e-13
1.11925e-13
-5.91302e-13
1.50924e-13
-4.91612e-13
1.96127e-13
-4.06868e-13
2.41532e-13
-3.37006e-13
2.81494e-13
-2.77742e-13
3.12714e-13
-2.23999e-13
3.3431e-13
-1.72842e-13
3.46622e-13
-1.23371e-13
3.50643e-13
-7.47583e-14
3.4848e-13
-2.52449e-14
3.43174e-13
2.67412e-14
3.372e-13
8.1116e-14
3.31519e-13
1.36081e-13
3.26238e-13
1.883e-13
3.22107e-13
2.34337e-13
3.21513e-13
2.72098e-13
3.28138e-13
2.98543e-13
3.46266e-13
3.09775e-13
3.78496e-13
3.03038e-13
4.23805e-13
2.77529e-13
4.81374e-13
2.37551e-13
5.52251e-13
1.8498e-13
6.3518e-13
1.16077e-13
7.25119e-13
3.16926e-14
8.13352e-13
-6.48874e-14
8.89173e-13
-1.6738e-13
9.3835e-13
-2.6645e-13
9.42464e-13
-3.49109e-13
8.94528e-13
-3.8467e-13
7.94204e-13
-3.59214e-13
6.37822e-13
-2.83298e-13
4.40403e-13
-1.73939e-13
2.53093e-13
-1.00017e-13
1.50847e-13
-4.01852e-14
1.80405e-13
1.80499e-13
-7.14806e-14
2.51079e-13
-2.0012e-13
3.35993e-13
-2.94154e-13
3.06809e-13
-3.43408e-13
2.31849e-13
-4.54088e-13
1.70006e-13
-5.04842e-13
1.22955e-13
-5.71627e-13
1.10816e-13
-5.90662e-13
9.60719e-14
-6.18456e-13
9.75511e-14
-6.3826e-13
1.38134e-13
-6.4895e-13
1.73365e-13
-6.51717e-13
2.12319e-13
-6.55931e-13
2.53907e-13
-6.35146e-13
3.15491e-13
-6.55019e-13
3.71725e-13
-6.67628e-13
4.15838e-13
-7.30771e-13
4.47172e-13
-7.77537e-13
4.66466e-13
-7.90654e-13
4.9019e-13
-8.22278e-13
5.14694e-13
-8.37586e-13
5.13449e-13
-8.67846e-13
4.93855e-13
-9.18993e-13
4.69701e-13
-9.38064e-13
4.32797e-13
-9.3243e-13
3.92798e-13
-9.46308e-13
3.57007e-13
-9.65512e-13
3.15175e-13
-9.47259e-13
2.69665e-13
-9.36209e-13
2.26512e-13
-9.44255e-13
1.85209e-13
-9.64471e-13
1.40603e-13
-9.74956e-13
1.00562e-13
-9.91368e-13
7.2259e-14
-1.02102e-12
5.54063e-14
-1.04063e-12
4.19057e-14
-1.04649e-12
3.43564e-14
-1.04777e-12
3.99624e-14
-1.05579e-12
5.68709e-14
-1.06073e-12
7.38625e-14
-1.05644e-12
8.34333e-14
-1.04024e-12
8.84177e-14
-1.02166e-12
9.55169e-14
-1.02123e-12
1.09685e-13
-1.03309e-12
1.29049e-13
-1.03006e-12
1.44856e-13
-1.00626e-12
1.51874e-13
-9.82102e-13
1.53515e-13
-9.72697e-13
1.55954e-13
-9.73379e-13
1.60344e-13
-9.7664e-13
1.61839e-13
-9.85136e-13
1.56225e-13
-1.00515e-12
1.44995e-13
-1.03799e-12
1.33506e-13
-1.0763e-12
1.26148e-13
-1.10656e-12
1.22624e-13
-1.11978e-12
1.17814e-13
-1.11916e-12
1.05952e-13
-1.11479e-12
8.58995e-14
-1.11107e-12
6.32602e-14
-1.10043e-12
4.74229e-14
-1.06934e-12
4.55958e-14
-1.00893e-12
5.89096e-14
-9.19977e-13
8.35895e-14
-8.11026e-13
1.14988e-13
-6.94474e-13
1.50306e-13
-5.83525e-13
1.88388e-13
-4.89007e-13
2.28094e-13
-4.15861e-13
2.67365e-13
-3.61852e-13
3.03705e-13
-3.2026e-13
3.3504e-13
-2.84508e-13
3.59861e-13
-2.50692e-13
3.77255e-13
-2.16666e-13
3.87638e-13
-1.80714e-13
3.93317e-13
-1.41713e-13
3.9724e-13
-9.96268e-14
4.00693e-13
-5.53649e-14
4.02799e-13
-9.98509e-15
4.02001e-13
3.48629e-14
3.98338e-13
7.69791e-14
3.95852e-13
1.14826e-13
4.01794e-13
1.43954e-13
4.22693e-13
1.57424e-13
4.61255e-13
1.52813e-13
5.15978e-13
1.31464e-13
5.85033e-13
9.68081e-14
6.67346e-13
4.9514e-14
7.58774e-13
-1.44748e-14
8.53714e-13
-9.07123e-14
9.46483e-13
-1.74598e-13
1.02755e-12
-2.60097e-13
1.08049e-12
-3.31948e-13
1.08254e-12
-3.81152e-13
1.02055e-12
-4.00193e-13
8.9279e-13
-3.77894e-13
7.12446e-13
-3.04474e-13
4.97496e-13
-1.85162e-13
2.9087e-13
-8.42887e-14
1.68384e-13
-3.67773e-14
1.9076e-13
2.12164e-13
-1.13101e-13
2.46555e-13
-1.90133e-13
3.85383e-13
-3.08467e-13
3.39432e-13
-3.70079e-13
2.83605e-13
-4.96862e-13
2.30708e-13
-5.31304e-13
2.05302e-13
-6.12772e-13
1.81044e-13
-6.30941e-13
2.21012e-13
-6.28347e-13
2.46341e-13
-6.57559e-13
2.70154e-13
-6.61165e-13
3.08553e-13
-6.57228e-13
3.66414e-13
-6.34609e-13
4.16057e-13
-6.10125e-13
4.56659e-13
-6.31444e-13
4.94785e-13
-6.4575e-13
5.26216e-13
-7.09971e-13
5.4847e-13
-7.44755e-13
5.71376e-13
-7.48857e-13
5.78675e-13
-7.9707e-13
5.75151e-13
-8.23115e-13
5.69445e-13
-8.51653e-13
5.5404e-13
-9.10174e-13
5.31101e-13
-9.28219e-13
5.01551e-13
-9.15272e-13
4.58098e-13
-9.32379e-13
4.14661e-13
-9.54212e-13
3.80777e-13
-9.34585e-13
3.49538e-13
-9.22882e-13
3.02615e-13
-9.3593e-13
2.52376e-13
-9.54837e-13
2.0968e-13
-9.58537e-13
1.77564e-13
-9.68413e-13
1.51956e-13
-9.99474e-13
1.36502e-13
-1.01776e-12
1.3438e-13
-1.01558e-12
1.35447e-13
-1.01097e-12
1.35439e-13
-1.02423e-12
1.40047e-13
-1.04094e-12
1.52948e-13
-1.04423e-12
1.63078e-13
-1.02856e-12
1.63458e-13
-1.00561e-12
1.60327e-13
-1.00245e-12
1.6234e-13
-1.02024e-12
1.71094e-13
-1.02822e-12
1.79015e-13
-1.01153e-12
1.76516e-13
-9.87711e-13
1.63526e-13
-9.77011e-13
1.51483e-13
-9.81051e-13
1.51692e-13
-9.92193e-13
1.62734e-13
-1.00744e-12
1.72282e-13
-1.02868e-12
1.69843e-13
-1.05788e-12
1.54839e-13
-1.0927e-12
1.345e-13
-1.12515e-12
1.16617e-13
-1.14717e-12
1.03948e-13
-1.15702e-12
9.41899e-14
-1.15757e-12
8.42896e-14
-1.14923e-12
7.46412e-14
-1.1267e-12
6.95092e-14
-1.08275e-12
7.38847e-14
-1.01377e-12
9.01834e-14
-9.21815e-13
1.17359e-13
-8.1368e-13
1.52051e-13
-6.99865e-13
1.90082e-13
-5.93176e-13
2.27421e-13
-5.05223e-13
2.60966e-13
-4.41622e-13
2.89459e-13
-4.00068e-13
3.13781e-13
-3.73358e-13
3.35877e-13
-3.54161e-13
3.57057e-13
-3.37103e-13
3.77508e-13
-3.18137e-13
3.96965e-13
-2.94865e-13
4.14928e-13
-2.67638e-13
4.3016e-13
-2.38341e-13
4.40665e-13
-2.0832e-13
4.45142e-13
-1.7686e-13
4.44575e-13
-1.41716e-13
4.42839e-13
-1.02126e-13
4.47064e-13
-6.03181e-14
4.64528e-13
-2.42549e-14
4.97293e-13
-4.70471e-15
5.42949e-13
-4.2004e-15
5.9888e-13
-1.98788e-14
6.64789e-13
-4.90024e-14
7.41594e-13
-8.98034e-14
8.2711e-13
-1.42798e-13
9.18789e-13
-2.02269e-13
1.01277e-12
-2.64619e-13
1.09472e-12
-3.27752e-13
1.14221e-12
-3.71113e-13
1.13749e-12
-3.89842e-13
1.0677e-12
-3.80841e-13
9.27283e-13
-3.5586e-13
7.15004e-13
-2.97883e-13
4.91934e-13
-1.87139e-13
2.89855e-13
-7.73668e-14
1.77733e-13
-1.98123e-14
2.0591e-13
2.34558e-13
-1.06255e-13
2.40527e-13
-2.04268e-13
3.49427e-13
-3.07095e-13
3.35605e-13
-3.83887e-13
3.0049e-13
-5.04672e-13
2.74713e-13
-5.61774e-13
2.94532e-13
-5.92205e-13
2.97267e-13
-6.3736e-13
3.09122e-13
-6.43653e-13
3.46959e-13
-6.62018e-13
3.91835e-13
-6.48207e-13
4.39574e-13
-6.47869e-13
4.79736e-13
-6.27571e-13
5.34923e-13
-5.97654e-13
5.67007e-13
-6.16997e-13
5.88325e-13
-6.3258e-13
6.0561e-13
-6.86522e-13
6.0928e-13
-7.28361e-13
6.17618e-13
-7.34766e-13
6.2827e-13
-7.78205e-13
6.1886e-13
-8.07931e-13
6.0707e-13
-8.37408e-13
5.92498e-13
-8.96572e-13
5.60876e-13
-9.25007e-13
5.31453e-13
-9.09476e-13
5.09284e-13
-9.1533e-13
4.81028e-13
-9.33261e-13
4.39989e-13
-9.28984e-13
4.07721e-13
-9.21603e-13
3.81476e-13
-9.29733e-13
3.48813e-13
-9.40452e-13
3.02403e-13
-9.40493e-13
2.62344e-13
-9.4519e-13
2.48747e-13
-9.69024e-13
2.53939e-13
-9.88992e-13
2.59113e-13
-9.91235e-13
2.51752e-13
-9.86125e-13
2.41892e-13
-9.96257e-13
2.4638e-13
-1.02054e-12
2.6939e-13
-1.03671e-12
2.90683e-13
-1.02709e-12
2.89623e-13
-1.00191e-12
2.65884e-13
-9.94862e-13
2.35292e-13
-1.01575e-12
2.17255e-13
-1.03559e-12
2.20268e-13
-1.03011e-12
2.35402e-13
-1.00607e-12
2.46344e-13
-9.84181e-13
2.44038e-13
-9.78301e-13
2.31552e-13
-9.91377e-13
2.17988e-13
-1.01892e-12
2.10107e-13
-1.05333e-12
2.08024e-13
-1.08886e-12
2.06229e-13
-1.12243e-12
1.99076e-13
-1.15089e-12
1.85856e-13
-1.17121e-12
1.70932e-13
-1.18254e-12
1.60239e-13
-1.18453e-12
1.57834e-13
-1.17378e-12
1.64508e-13
-1.14408e-12
1.78375e-13
-1.09064e-12
1.96409e-13
-1.01341e-12
2.1612e-13
-9.17103e-13
2.36707e-13
-8.09644e-13
2.58806e-13
-7.01421e-13
2.82774e-13
-6.0412e-13
3.07159e-13
-5.27354e-13
3.29299e-13
-4.74568e-13
3.47608e-13
-4.42385e-13
3.62767e-13
-4.24163e-13
3.7651e-13
-4.13711e-13
3.8999e-13
-4.06293e-13
4.03911e-13
-3.98229e-13
4.19131e-13
-3.87739e-13
4.35742e-13
-3.75629e-13
4.52148e-13
-3.62798e-13
4.65716e-13
-3.48076e-13
4.74303e-13
-3.27757e-13
4.77771e-13
-2.96556e-13
4.78772e-13
-2.53733e-13
4.83042e-13
-2.0639e-13
4.96715e-13
-1.66598e-13
5.21787e-13
-1.45239e-13
5.58377e-13
-1.42287e-13
6.09029e-13
-1.52666e-13
6.76763e-13
-1.74524e-13
7.60664e-13
-2.0369e-13
8.52185e-13
-2.3815e-13
9.42013e-13
-2.76604e-13
1.02535e-12
-3.19002e-13
1.09255e-12
-3.56776e-13
1.13212e-12
-3.7068e-13
1.12706e-12
-3.61451e-13
1.055e-12
-3.45759e-13
9.10215e-13
-3.00807e-13
6.92648e-13
-2.56462e-13
4.62311e-13
-1.64655e-13
2.7381e-13
-6.80688e-14
1.87636e-13
-5.32029e-15
2.37485e-13
2.58313e-13
-1.19445e-13
2.58114e-13
-1.91052e-13
3.77116e-13
-2.95523e-13
3.61689e-13
-3.72099e-13
3.46731e-13
-4.61432e-13
3.4048e-13
-5.50807e-13
3.59412e-13
-5.84538e-13
4.21507e-13
-6.15939e-13
4.53813e-13
-6.26149e-13
4.81998e-13
-6.44378e-13
5.1118e-13
-6.4018e-13
5.53681e-13
-6.22053e-13
5.83151e-13
-6.21307e-13
6.15173e-13
-5.95637e-13
6.39918e-13
-6.11905e-13
6.40954e-13
-6.34304e-13
6.38767e-13
-6.77689e-13
6.38104e-13
-7.10978e-13
6.36903e-13
-7.30109e-13
6.43334e-13
-7.69499e-13
6.3356e-13
-7.97206e-13
6.15786e-13
-8.38725e-13
6.04956e-13
-8.90981e-13
5.91722e-13
-9.09802e-13
5.72124e-13
-8.97564e-13
5.52172e-13
-9.1389e-13
5.39705e-13
-9.22572e-13
5.22965e-13
-9.13283e-13
4.95999e-13
-9.12366e-13
4.65684e-13
-9.34409e-13
4.43818e-13
-9.40908e-13
4.2527e-13
-9.18497e-13
3.97969e-13
-9.09001e-13
3.70282e-13
-9.36224e-13
3.62149e-13
-9.71264e-13
3.80757e-13
-9.78941e-13
4.04325e-13
-9.64026e-13
4.06314e-13
-9.60377e-13
3.88597e-13
-9.90051e-13
3.75071e-13
-1.03107e-12
3.76172e-13
-1.04647e-12
3.81374e-13
-1.03082e-12
3.76529e-13
-1.0138e-12
3.56756e-13
-1.01559e-12
3.3196e-13
-1.0243e-12
3.17613e-13
-1.02334e-12
3.186e-13
-1.0129e-12
3.27168e-13
-1.00184e-12
3.33064e-13
-9.97548e-13
3.31255e-13
-1.00506e-12
3.22917e-13
-1.02691e-12
3.12703e-13
-1.06154e-12
3.04707e-13
-1.10341e-12
2.99624e-13
-1.14426e-12
2.95604e-13
-1.1754e-12
2.91399e-13
-1.19202e-12
2.8809e-13
-1.19544e-12
2.88385e-13
-1.18913e-12
2.94949e-13
-1.17277e-12
3.08864e-13
-1.14124e-12
3.28706e-13
-1.0888e-12
3.50826e-13
-1.01347e-12
3.71065e-13
-9.18496e-13
3.86781e-13
-8.12271e-13
3.97514e-13
-7.07131e-13
4.03998e-13
-6.161e-13
4.06998e-13
-5.47876e-13
4.07414e-13
-5.03696e-13
4.0693e-13
-4.78979e-13
4.07458e-13
-4.67454e-13
4.09786e-13
-4.63352e-13
4.13549e-13
-4.6191e-13
4.18866e-13
-4.60217e-13
4.27064e-13
-4.58001e-13
4.3895e-13
-4.56887e-13
4.53226e-13
-4.57093e-13
4.66796e-13
-4.55376e-13
4.76285e-13
-4.45369e-13
4.8083e-13
-4.18972e-13
4.83442e-13
-3.74953e-13
4.89285e-13
-3.23842e-13
5.02955e-13
-2.79253e-13
5.26302e-13
-2.49943e-13
5.60479e-13
-2.35182e-13
6.07755e-13
-2.32832e-13
6.68505e-13
-2.46842e-13
7.40968e-13
-2.71049e-13
8.22041e-13
-2.94922e-13
9.07275e-13
-3.16823e-13
9.89142e-13
-3.33268e-13
1.0527e-12
-3.4056e-13
1.08535e-12
-3.30778e-13
1.07535e-12
-3.00796e-13
1.00618e-12
-2.88009e-13
8.60782e-13
-2.32763e-13
6.58791e-13
-1.93173e-13
4.38754e-13
-1.18463e-13
2.6797e-13
-4.95035e-14
2.08479e-13
-1.22685e-15
2.77587e-13
2.95975e-13
-1.23039e-13
2.18922e-13
-1.90513e-13
3.71247e-13
-2.7077e-13
3.83493e-13
-3.43662e-13
3.97321e-13
-4.17103e-13
4.10992e-13
-4.72235e-13
4.24306e-13
-5.45997e-13
4.49174e-13
-5.89468e-13
4.95492e-13
-6.0929e-13
5.32749e-13
-6.2068e-13
5.62003e-13
-6.31734e-13
5.86598e-13
-6.10514e-13
6.11023e-13
-6.14321e-13
6.13875e-13
-6.07782e-13
6.2422e-13
-6.21865e-13
6.14352e-13
-6.37717e-13
5.97777e-13
-6.78301e-13
5.94672e-13
-6.98803e-13
5.96244e-13
-7.28533e-13
5.92226e-13
-7.71534e-13
5.80702e-13
-7.89199e-13
5.71624e-13
-8.29615e-13
5.63376e-13
-8.84462e-13
5.54918e-13
-9.01315e-13
5.48911e-13
-8.80206e-13
5.41776e-13
-9.00108e-13
5.32181e-13
-9.1782e-13
5.25494e-13
-9.11272e-13
5.13421e-13
-9.03027e-13
4.93485e-13
-9.23305e-13
4.68809e-13
-9.39278e-13
4.49003e-13
-9.17973e-13
4.32647e-13
-8.92066e-13
4.17169e-13
-8.97263e-13
4.06174e-13
-9.3034e-13
4.02326e-13
-9.60343e-13
4.04013e-13
-9.66816e-13
4.00048e-13
-9.62807e-13
3.84863e-13
-9.81999e-13
3.65993e-13
-1.02186e-12
3.5355e-13
-1.0489e-12
3.48617e-13
-1.0491e-12
3.45158e-13
-1.03831e-12
3.37206e-13
-1.03129e-12
3.26585e-13
-1.02593e-12
3.21735e-13
-1.01786e-12
3.27468e-13
-1.01038e-12
3.41117e-13
-1.00756e-12
3.56902e-13
-1.01028e-12
3.68881e-13
-1.01975e-12
3.72846e-13
-1.03918e-12
3.69222e-13
-1.07073e-12
3.62989e-13
-1.11162e-12
3.59603e-13
-1.15305e-12
3.61441e-13
-1.18391e-12
3.67662e-13
-1.19754e-12
3.76266e-13
-1.19526e-12
3.86216e-13
-1.18232e-12
3.98145e-13
-1.16111e-12
4.13151e-13
-1.12878e-12
4.30902e-13
-1.08004e-12
4.48929e-13
-1.01131e-12
4.63649e-13
-9.23659e-13
4.71925e-13
-8.24208e-13
4.71837e-13
-7.25212e-13
4.62725e-13
-6.39669e-13
4.45502e-13
-5.75715e-13
4.23222e-13
-5.3443e-13
4.00423e-13
-5.12207e-13
3.80885e-13
-5.03797e-13
3.66235e-13
-5.03031e-13
3.56971e-13
-5.04059e-13
3.53939e-13
-5.04413e-13
3.58076e-13
-5.0575e-13
3.68924e-13
-5.11335e-13
3.84165e-13
-5.21471e-13
4.00373e-13
-5.30351e-13
4.14234e-13
-5.2791e-13
4.25389e-13
-5.03998e-13
4.37095e-13
-4.57721e-13
4.52028e-13
-4.01854e-13
4.70241e-13
-3.50689e-13
4.91043e-13
-3.12237e-13
5.16618e-13
-2.87077e-13
5.52778e-13
-2.74357e-13
6.01847e-13
-2.78494e-13
6.62359e-13
-2.92004e-13
7.34291e-13
-3.03467e-13
8.14923e-13
-3.1339e-13
8.94741e-13
-3.11135e-13
9.60245e-13
-2.93611e-13
9.96406e-13
-2.61268e-13
9.88266e-13
-2.24626e-13
9.21059e-13
-2.08532e-13
7.79089e-13
-1.58746e-13
6.03891e-13
-1.22581e-13
4.11582e-13
-6.35456e-14
2.67324e-13
-2.8667e-14
2.30611e-13
4.41105e-15
3.12257e-13
3.23837e-13
-7.58226e-14
1.93239e-13
-1.73188e-13
3.22095e-13
-2.28387e-13
3.57065e-13
-2.99586e-13
3.87854e-13
-3.73028e-13
4.03377e-13
-4.23216e-13
4.46945e-13
-4.85614e-13
4.56091e-13
-5.47613e-13
4.83044e-13
-5.82916e-13
5.03867e-13
-6.04862e-13
5.18521e-13
-6.18735e-13
5.30556e-13
-6.21254e-13
5.51216e-13
-6.14672e-13
5.4984e-13
-6.25262e-13
5.41868e-13
-6.42176e-13
5.32244e-13
-6.4186e-13
5.13663e-13
-6.7606e-13
4.89834e-13
-6.98056e-13
4.80207e-13
-7.30712e-13
4.7251e-13
-7.69249e-13
4.56307e-13
-7.84256e-13
4.40799e-13
-8.21916e-13
4.29351e-13
-8.72587e-13
4.23639e-13
-8.89567e-13
4.21364e-13
-8.6972e-13
4.19667e-13
-8.86102e-13
4.10427e-13
-9.09191e-13
4.0741e-13
-9.09741e-13
4.0252e-13
-9.06291e-13
3.89093e-13
-9.22806e-13
3.64659e-13
-9.36866e-13
3.41409e-13
-9.1586e-13
3.21533e-13
-8.86737e-13
2.97096e-13
-8.8736e-13
2.75167e-13
-9.17489e-13
2.63408e-13
-9.5471e-13
2.58179e-13
-9.73853e-13
2.48707e-13
-9.75701e-13
2.28716e-13
-9.90314e-13
2.02439e-13
-1.02394e-12
1.83025e-13
-1.05041e-12
1.79312e-13
-1.0557e-12
1.87319e-13
-1.04851e-12
1.96622e-13
-1.03717e-12
2.02842e-13
-1.02219e-12
2.1109e-13
-1.00612e-12
2.27103e-13
-9.96033e-13
2.50428e-13
-9.96905e-13
2.76204e-13
-1.00801e-12
2.98908e-13
-1.02577e-12
3.15127e-13
-1.04858e-12
3.25562e-13
-1.07774e-12
3.34276e-13
-1.11337e-12
3.45409e-13
-1.15015e-12
3.60734e-13
-1.17853e-12
3.79746e-13
-1.19109e-12
4.00935e-13
-1.18748e-12
4.22817e-13
-1.17232e-12
4.4439e-13
-1.14925e-12
4.64937e-13
-1.11747e-12
4.83411e-13
-1.07289e-12
4.97999e-13
-1.01167e-12
5.06274e-13
-9.3379e-13
5.05712e-13
-8.45017e-13
4.94238e-13
-7.55912e-13
4.71149e-13
-6.7737e-13
4.38406e-13
-6.16164e-13
4.00857e-13
-5.74105e-13
3.64155e-13
-5.49607e-13
3.31898e-13
-5.38575e-13
3.05244e-13
-5.34675e-13
2.84995e-13
-5.32045e-13
2.72668e-13
-5.29474e-13
2.6963e-13
-5.30291e-13
2.76089e-13
-5.38712e-13
2.90894e-13
-5.54765e-13
3.11715e-13
-5.69786e-13
3.35294e-13
-5.70382e-13
3.59344e-13
-5.46915e-13
3.83662e-13
-5.00783e-13
4.07597e-13
-4.45334e-13
4.30141e-13
-3.92244e-13
4.52191e-13
-3.4617e-13
4.77246e-13
-3.10248e-13
5.10505e-13
-2.86409e-13
5.51559e-13
-2.76911e-13
5.96904e-13
-2.74679e-13
6.51309e-13
-2.72486e-13
7.17742e-13
-2.70407e-13
7.93091e-13
-2.54577e-13
8.63299e-13
-2.23635e-13
9.0155e-13
-1.80162e-13
8.99544e-13
-1.48607e-13
8.42676e-13
-1.18056e-13
7.22519e-13
-8.01778e-14
5.76845e-13
-5.20336e-14
4.17651e-13
-1.15429e-14
3.05222e-13
-1.43561e-14
2.91683e-13
1.32944e-14
3.93133e-13
3.68146e-13
-3.66044e-14
1.79242e-13
-1.3763e-13
3.00625e-13
-1.79898e-13
3.52527e-13
-2.60409e-13
3.92704e-13
-3.00628e-13
4.03314e-13
-3.89487e-13
4.0544e-13
-4.39598e-13
4.08515e-13
-5.16357e-13
4.06359e-13
-5.65565e-13
4.23119e-13
-5.95321e-13
4.39281e-13
-6.02675e-13
4.43199e-13
-6.28324e-13
4.3696e-13
-6.27805e-13
4.4142e-13
-6.38592e-13
4.28292e-13
-6.6184e-13
4.04948e-13
-6.6486e-13
3.7987e-13
-6.84465e-13
3.51031e-13
-7.0343e-13
3.26643e-13
-7.40945e-13
3.02927e-13
-7.76964e-13
2.79803e-13
-7.87252e-13
2.62633e-13
-8.17985e-13
2.44703e-13
-8.64499e-13
2.303e-13
-8.79573e-13
2.21137e-13
-8.66611e-13
2.21391e-13
-8.7677e-13
2.17462e-13
-9.02172e-13
2.13482e-13
-9.10134e-13
2.02386e-13
-9.17797e-13
1.81472e-13
-9.35026e-13
1.55729e-13
-9.47307e-13
1.35878e-13
-9.31408e-13
1.25819e-13
-9.00182e-13
1.09722e-13
-8.92467e-13
8.48552e-14
-9.18105e-13
6.54528e-14
-9.60229e-13
5.35836e-14
-9.89925e-13
4.3899e-14
-9.99176e-13
3.30339e-14
-1.00857e-12
2.11768e-14
-1.02751e-12
1.49597e-14
-1.04208e-12
2.15057e-14
-1.04489e-12
4.00443e-14
-1.04006e-12
6.40393e-14
-1.0274e-12
8.81166e-14
-1.00589e-12
1.11058e-13
-9.83082e-13
1.33562e-13
-9.70423e-13
1.56327e-13
-9.74186e-13
1.80349e-13
-9.91859e-13
2.06482e-13
-1.01578e-12
2.34365e-13
-1.04084e-12
2.62843e-13
-1.06802e-12
2.91181e-13
-1.09969e-12
3.1969e-13
-1.13296e-12
3.49753e-13
-1.15946e-12
3.83096e-13
-1.17181e-12
4.2027e-13
-1.16907e-12
4.59651e-13
-1.15551e-12
4.98125e-13
-1.13505e-12
5.32583e-13
-1.10763e-12
5.60694e-13
-1.0698e-12
5.80649e-13
-1.01791e-12
5.90622e-13
-9.51507e-13
5.88521e-13
-8.74971e-13
5.72378e-13
-7.96267e-13
5.41743e-13
-7.23563e-13
4.99296e-13
-6.6287e-13
4.5054e-13
-6.17886e-13
4.0126e-13
-5.89312e-13
3.55414e-13
-5.73469e-13
3.15637e-13
-5.63411e-13
2.84755e-13
-5.5343e-13
2.65429e-13
-5.43425e-13
2.58876e-13
-5.38047e-13
2.64494e-13
-5.42613e-13
2.80045e-13
-5.57975e-13
3.02808e-13
-5.74595e-13
3.30629e-13
-5.77183e-13
3.61763e-13
-5.56268e-13
3.94183e-13
-5.13272e-13