/*--------------------------------*- C++ -*----------------------------------*\
| =========                 |                                                 |
| \\      /  F ield         | OpenFOAM: The Open Source CFD Toolbox           |
|  \\    /   O peration     | Version:  2406                                  |
|   \\  /    A nd           | Website:  www.openfoam.com                      |
|    \\/     M anipulation  |                                                 |
\*---------------------------------------------------------------------------*/
FoamFile
{
    version     2.0;
    format      ascii;
    arch        "LSB;label=32;scalar=64";
    class       volVectorField;
    location    "1";
    object      U;
}
// * * * * * * * * * * * * * * * * * * * * * * * * * * * * * * * * * * * * * //

dimensions      [0 1 -1 0 0 0 0];

internalField   nonuniform List<vector> 
10000
(
(4.856e-11 6.40113e-10 0)
(-1.35389e-10 6.8292e-10 0)
(-5.13088e-10 5.12097e-10 0)
(-1.37292e-09 3.58017e-10 0)
(-2.37078e-09 4.40579e-10 0)
(-2.55634e-09 5.07199e-10 0)
(-2.46828e-09 3.57518e-10 0)
(-3.06299e-09 1.75872e-10 0)
(-3.6844e-09 3.49809e-10 0)
(-3.88998e-09 3.17357e-10 0)
(-4.21951e-09 3.97276e-10 0)
(-4.41233e-09 5.13217e-10 0)
(-4.62039e-09 5.67108e-10 0)
(-4.89769e-09 6.11056e-10 0)
(-5.1049e-09 5.48685e-10 0)
(-5.33469e-09 4.77874e-10 0)
(-5.45535e-09 5.50077e-10 0)
(-5.47994e-09 6.8846e-10 0)
(-5.49618e-09 7.23057e-10 0)
(-5.5545e-09 7.1838e-10 0)
(-5.46528e-09 7.32612e-10 0)
(-5.20463e-09 7.49154e-10 0)
(-5.07516e-09 7.75225e-10 0)
(-5.05101e-09 7.73291e-10 0)
(-5.02203e-09 6.69562e-10 0)
(-5.03667e-09 5.17779e-10 0)
(-5.0439e-09 4.61397e-10 0)
(-4.93549e-09 4.52433e-10 0)
(-4.88595e-09 3.76559e-10 0)
(-5.13751e-09 2.71715e-10 0)
(-5.53028e-09 2.10876e-10 0)
(-5.76113e-09 1.77456e-10 0)
(-5.90003e-09 1.36804e-10 0)
(-6.22977e-09 1.11847e-10 0)
(-6.69298e-09 1.13989e-10 0)
(-6.97829e-09 9.85623e-11 0)
(-7.07504e-09 7.55849e-11 0)
(-7.18699e-09 1.01766e-10 0)
(-7.3459e-09 1.70027e-10 0)
(-7.44944e-09 2.02047e-10 0)
(-7.47714e-09 2.03329e-10 0)
(-7.43652e-09 2.18542e-10 0)
(-7.35523e-09 2.44987e-10 0)
(-7.30575e-09 2.6787e-10 0)
(-7.29446e-09 2.89519e-10 0)
(-7.29141e-09 3.26067e-10 0)
(-7.30049e-09 3.85816e-10 0)
(-7.30894e-09 4.61226e-10 0)
(-7.27408e-09 5.42794e-10 0)
(-7.18424e-09 5.99437e-10 0)
(-7.10586e-09 5.90058e-10 0)
(-7.12949e-09 5.28528e-10 0)
(-7.25684e-09 4.70489e-10 0)
(-7.4042e-09 4.38032e-10 0)
(-7.51027e-09 4.12503e-10 0)
(-7.56768e-09 3.7733e-10 0)
(-7.58585e-09 3.24806e-10 0)
(-7.59558e-09 2.43224e-10 0)
(-7.64369e-09 1.32372e-10 0)
(-7.72744e-09 2.14147e-11 0)
(-7.76588e-09 -5.19267e-11 0)
(-7.66677e-09 -7.87843e-11 0)
(-7.40593e-09 -8.49874e-11 0)
(-7.02878e-09 -1.01368e-10 0)
(-6.59124e-09 -1.35225e-10 0)
(-6.11745e-09 -1.6848e-10 0)
(-5.60732e-09 -1.75315e-10 0)
(-5.06405e-09 -1.40755e-10 0)
(-4.50701e-09 -7.01839e-11 0)
(-3.96511e-09 1.30634e-11 0)
(-3.46207e-09 8.09946e-11 0)
(-3.00545e-09 1.17154e-10 0)
(-2.58837e-09 1.24013e-10 0)
(-2.20313e-09 1.1618e-10 0)
(-1.85186e-09 1.07316e-10 0)
(-1.54117e-09 1.04723e-10 0)
(-1.26653e-09 1.13507e-10 0)
(-1.00618e-09 1.38927e-10 0)
(-7.36439e-10 1.81658e-10 0)
(-4.55636e-10 2.34112e-10 0)
(-1.92722e-10 2.83499e-10 0)
(1.00556e-11 3.16567e-10 0)
(1.24416e-10 3.27316e-10 0)
(1.49452e-10 3.26246e-10 0)
(1.08577e-10 3.31038e-10 0)
(2.92779e-11 3.47817e-10 0)
(-7.97481e-11 3.7029e-10 0)
(-2.23538e-10 3.88306e-10 0)
(-4.10017e-10 3.98559e-10 0)
(-6.55889e-10 4.05269e-10 0)
(-9.42469e-10 4.00318e-10 0)
(-1.22012e-09 3.8661e-10 0)
(-1.40823e-09 3.63606e-10 0)
(-1.47691e-09 3.54762e-10 0)
(-1.39306e-09 3.50366e-10 0)
(-1.14669e-09 3.58077e-10 0)
(-6.84505e-10 2.99563e-10 0)
(-1.07701e-10 1.79082e-10 0)
(3.77511e-10 4.39306e-11 0)
(2.91953e-10 3.92402e-11 0)
(-3.29797e-10 1.17725e-09 0)
(-1.1458e-09 1.51982e-09 0)
(-1.50929e-09 1.10405e-09 0)
(-2.23833e-09 6.5058e-10 0)
(-3.56698e-09 8.90976e-10 0)
(-4.1734e-09 8.2943e-10 0)
(-4.25175e-09 4.97676e-10 0)
(-4.71006e-09 1.25113e-10 0)
(-5.36755e-09 3.39695e-10 0)
(-5.73342e-09 4.16458e-10 0)
(-6.11238e-09 5.67559e-10 0)
(-6.46565e-09 7.84791e-10 0)
(-6.87362e-09 8.93242e-10 0)
(-7.35344e-09 1.01278e-09 0)
(-7.71567e-09 1.08322e-09 0)
(-7.95955e-09 1.18637e-09 0)
(-8.08617e-09 1.39204e-09 0)
(-8.28244e-09 1.64766e-09 0)
(-8.43315e-09 1.72599e-09 0)
(-8.54852e-09 1.79171e-09 0)
(-8.55678e-09 1.89054e-09 0)
(-8.30154e-09 1.89668e-09 0)
(-8.15009e-09 1.83531e-09 0)
(-8.2034e-09 1.66723e-09 0)
(-8.25607e-09 1.42694e-09 0)
(-8.25336e-09 1.20124e-09 0)
(-8.20717e-09 9.91017e-10 0)
(-8.10996e-09 7.6106e-10 0)
(-8.12067e-09 5.30534e-10 0)
(-8.40906e-09 3.13515e-10 0)
(-8.82122e-09 1.54516e-10 0)
(-9.12776e-09 7.20412e-11 0)
(-9.39175e-09 3.15655e-11 0)
(-9.84932e-09 -2.41951e-11 0)
(-1.0474e-08 -6.10479e-11 0)
(-1.09275e-08 -7.72066e-11 0)
(-1.10905e-08 -8.994e-11 0)
(-1.11682e-08 -8.69509e-11 0)
(-1.13159e-08 -1.82509e-11 0)
(-1.1447e-08 5.71228e-11 0)
(-1.14675e-08 9.8602e-11 0)
(-1.138e-08 1.26514e-10 0)
(-1.12353e-08 1.64963e-10 0)
(-1.11233e-08 2.39426e-10 0)
(-1.10451e-08 3.30518e-10 0)
(-1.09638e-08 4.16884e-10 0)
(-1.09117e-08 5.24914e-10 0)
(-1.08854e-08 6.5412e-10 0)
(-1.08237e-08 7.68969e-10 0)
(-1.07209e-08 8.44587e-10 0)
(-1.06437e-08 8.58631e-10 0)
(-1.06618e-08 8.10266e-10 0)
(-1.07879e-08 7.33678e-10 0)
(-1.09615e-08 6.5582e-10 0)
(-1.11019e-08 5.80049e-10 0)
(-1.11709e-08 5.00917e-10 0)
(-1.11894e-08 3.99049e-10 0)
(-1.12187e-08 2.47615e-10 0)
(-1.13008e-08 4.99192e-11 0)
(-1.13916e-08 -1.47977e-10 0)
(-1.13769e-08 -2.96294e-10 0)
(-1.11656e-08 -3.8433e-10 0)
(-1.07496e-08 -4.37709e-10 0)
(-1.01761e-08 -4.80419e-10 0)
(-9.48614e-09 -5.07221e-10 0)
(-8.69336e-09 -4.88844e-10 0)
(-7.80894e-09 -3.96758e-10 0)
(-6.8683e-09 -2.26281e-10 0)
(-5.92793e-09 -5.456e-12 0)
(-5.03963e-09 2.15568e-10 0)
(-4.22739e-09 3.89931e-10 0)
(-3.48505e-09 4.96104e-10 0)
(-2.79601e-09 5.39839e-10 0)
(-2.15668e-09 5.38936e-10 0)
(-1.57765e-09 5.10021e-10 0)
(-1.05937e-09 4.704e-10 0)
(-5.72004e-10 4.44462e-10 0)
(-6.78863e-11 4.56486e-10 0)
(4.79555e-10 5.13812e-10 0)
(1.04381e-09 6.01222e-10 0)
(1.54758e-09 6.94252e-10 0)
(1.90627e-09 7.74814e-10 0)
(2.08309e-09 8.40568e-10 0)
(2.10052e-09 9.10179e-10 0)
(2.01049e-09 1.00345e-09 0)
(1.85702e-09 1.11971e-09 0)
(1.63659e-09 1.25902e-09 0)
(1.3116e-09 1.428e-09 0)
(8.36489e-10 1.62347e-09 0)
(1.89472e-10 1.82351e-09 0)
(-5.95425e-10 1.9983e-09 0)
(-1.37e-09 2.09252e-09 0)
(-2.00662e-09 2.07318e-09 0)
(-2.35331e-09 1.87833e-09 0)
(-2.44905e-09 1.64197e-09 0)
(-2.2171e-09 1.40245e-09 0)
(-1.71061e-09 1.23428e-09 0)
(-8.3664e-10 9.53813e-10 0)
(1.72319e-10 6.42359e-10 0)
(4.6176e-10 3.64061e-10 0)
(-3.23448e-10 9.89277e-10 0)
(-1.5096e-09 1.66963e-09 0)
(-2.02821e-09 1.30115e-09 0)
(-2.37761e-09 5.89939e-10 0)
(-3.59e-09 7.39837e-10 0)
(-4.50961e-09 7.4009e-10 0)
(-4.65541e-09 5.40247e-10 0)
(-4.97702e-09 1.79912e-10 0)
(-5.40779e-09 1.39854e-10 0)
(-5.68865e-09 1.96171e-10 0)
(-6.02149e-09 3.86682e-10 0)
(-6.39455e-09 6.2263e-10 0)
(-6.78992e-09 8.28276e-10 0)
(-7.20893e-09 1.0393e-09 0)
(-7.56685e-09 1.28958e-09 0)
(-7.89701e-09 1.63535e-09 0)
(-8.05484e-09 1.92583e-09 0)
(-8.31728e-09 2.15783e-09 0)
(-8.63594e-09 2.33073e-09 0)
(-8.82071e-09 2.42212e-09 0)
(-8.88394e-09 2.49916e-09 0)
(-8.77649e-09 2.50135e-09 0)
(-8.80849e-09 2.39549e-09 0)
(-8.97324e-09 2.14133e-09 0)
(-9.02497e-09 1.80483e-09 0)
(-9.07317e-09 1.51234e-09 0)
(-9.15868e-09 1.22094e-09 0)
(-9.05184e-09 8.38211e-10 0)
(-8.93121e-09 4.59934e-10 0)
(-9.17786e-09 1.73587e-10 0)
(-9.57942e-09 9.78126e-12 0)
(-9.74743e-09 -1.15358e-10 0)
(-9.87489e-09 -2.165e-10 0)
(-1.03387e-08 -3.09939e-10 0)
(-1.0965e-08 -3.67345e-10 0)
(-1.13098e-08 -3.76065e-10 0)
(-1.13659e-08 -3.2897e-10 0)
(-1.13875e-08 -2.69294e-10 0)
(-1.1473e-08 -2.06693e-10 0)
(-1.15517e-08 -1.45177e-10 0)
(-1.15429e-08 -8.96351e-11 0)
(-1.1422e-08 -6.22721e-12 0)
(-1.12141e-08 9.22429e-11 0)
(-1.10346e-08 1.6692e-10 0)
(-1.09289e-08 2.09844e-10 0)
(-1.08272e-08 2.46663e-10 0)
(-1.07332e-08 3.40113e-10 0)
(-1.06856e-08 5.02293e-10 0)
(-1.0623e-08 6.59982e-10 0)
(-1.04994e-08 7.51832e-10 0)
(-1.04052e-08 7.7402e-10 0)
(-1.04522e-08 7.51823e-10 0)
(-1.06285e-08 7.16089e-10 0)
(-1.08227e-08 6.73012e-10 0)
(-1.09484e-08 5.9378e-10 0)
(-1.1001e-08 4.52044e-10 0)
(-1.1018e-08 2.54967e-10 0)
(-1.10405e-08 3.74505e-11 0)
(-1.10873e-08 -1.61326e-10 0)
(-1.11176e-08 -3.21302e-10 0)
(-1.10341e-08 -4.46631e-10 0)
(-1.07512e-08 -5.47298e-10 0)
(-1.0252e-08 -6.17435e-10 0)
(-9.57513e-09 -6.30812e-10 0)
(-8.76408e-09 -5.55692e-10 0)
(-7.84406e-09 -3.76015e-10 0)
(-6.84325e-09 -1.04136e-10 0)
(-5.8161e-09 2.20522e-10 0)
(-4.83188e-09 5.4488e-10 0)
(-3.93751e-09 8.21945e-10 0)
(-3.13416e-09 1.02653e-09 0)
(-2.39118e-09 1.15548e-09 0)
(-1.68247e-09 1.2143e-09 0)
(-1.00878e-09 1.20862e-09 0)
(-3.83676e-10 1.15196e-09 0)
(1.97768e-10 1.07646e-09 0)
(7.68315e-10 1.02514e-09 0)
(1.36397e-09 1.0267e-09 0)
(1.98989e-09 1.07815e-09 0)
(2.60492e-09 1.15218e-09 0)
(3.13177e-09 1.22538e-09 0)
(3.49363e-09 1.30348e-09 0)
(3.662e-09 1.41705e-09 0)
(3.658e-09 1.59914e-09 0)
(3.51714e-09 1.85893e-09 0)
(3.27533e-09 2.17222e-09 0)
(2.9435e-09 2.51899e-09 0)
(2.4792e-09 2.89872e-09 0)
(1.83078e-09 3.2926e-09 0)
(9.54074e-10 3.67663e-09 0)
(-8.93443e-11 3.99729e-09 0)
(-1.19634e-09 4.19351e-09 0)
(-2.15059e-09 4.11415e-09 0)
(-2.7817e-09 3.70512e-09 0)
(-2.88114e-09 2.99863e-09 0)
(-2.60313e-09 2.34109e-09 0)
(-2.02179e-09 1.83709e-09 0)
(-1.35567e-09 1.6755e-09 0)
(-3.62374e-10 1.50741e-09 0)
(2.96285e-10 9.80019e-10 0)
(-2.68758e-10 1.49394e-09 0)
(-1.38365e-09 2.36438e-09 0)
(-2.03449e-09 1.81266e-09 0)
(-2.2416e-09 8.73279e-10 0)
(-3.2337e-09 4.84578e-10 0)
(-4.41125e-09 6.06873e-10 0)
(-4.92612e-09 5.24383e-10 0)
(-5.29885e-09 3.59657e-10 0)
(-5.58514e-09 2.79093e-10 0)
(-5.68462e-09 3.60487e-10 0)
(-5.86459e-09 4.76605e-10 0)
(-6.16591e-09 6.36168e-10 0)
(-6.55803e-09 8.97433e-10 0)
(-6.95345e-09 1.31054e-09 0)
(-7.16892e-09 1.76599e-09 0)
(-7.40792e-09 2.23486e-09 0)
(-7.71345e-09 2.7171e-09 0)
(-8.08208e-09 2.93407e-09 0)
(-8.40587e-09 3.11133e-09 0)
(-8.65914e-09 3.27555e-09 0)
(-8.81637e-09 3.36543e-09 0)
(-8.80108e-09 3.32809e-09 0)
(-8.95689e-09 3.14716e-09 0)
(-9.28136e-09 2.86201e-09 0)
(-9.40706e-09 2.52504e-09 0)
(-9.40725e-09 2.18385e-09 0)
(-9.50587e-09 1.82571e-09 0)
(-9.51866e-09 1.40351e-09 0)
(-9.41832e-09 9.86175e-10 0)
(-9.4615e-09 6.3374e-10 0)
(-9.6639e-09 4.32839e-10 0)
(-9.83439e-09 2.85562e-10 0)
(-9.98681e-09 1.07606e-10 0)
(-1.03347e-08 -7.60291e-11 0)
(-1.0813e-08 -1.45879e-10 0)
(-1.10836e-08 -8.71446e-11 0)
(-1.10851e-08 2.68353e-11 0)
(-1.1053e-08 1.38422e-10 0)
(-1.11084e-08 2.00649e-10 0)
(-1.11679e-08 2.51931e-10 0)
(-1.11112e-08 3.49744e-10 0)
(-1.09412e-08 5.30733e-10 0)
(-1.07624e-08 7.24436e-10 0)
(-1.06568e-08 8.09312e-10 0)
(-1.05668e-08 7.90025e-10 0)
(-1.03881e-08 7.74497e-10 0)
(-1.01684e-08 8.53401e-10 0)
(-1.00365e-08 1.02829e-09 0)
(-9.99794e-09 1.2106e-09 0)
(-9.97842e-09 1.30914e-09 0)
(-9.97201e-09 1.31702e-09 0)
(-1.00295e-08 1.29607e-09 0)
(-1.01803e-08 1.29352e-09 0)
(-1.0403e-08 1.28246e-09 0)
(-1.06288e-08 1.19422e-09 0)
(-1.07753e-08 1.00674e-09 0)
(-1.08049e-08 7.6828e-10 0)
(-1.07593e-08 5.39727e-10 0)
(-1.07112e-08 3.45767e-10 0)
(-1.06672e-08 1.77725e-10 0)
(-1.05378e-08 2.35173e-11 0)
(-1.02124e-08 -1.07605e-10 0)
(-9.6448e-09 -1.80235e-10 0)
(-8.86357e-09 -1.46607e-10 0)
(-7.92946e-09 2.84185e-11 0)
(-6.90526e-09 3.42774e-10 0)
(-5.85656e-09 7.49218e-10 0)
(-4.85282e-09 1.17289e-09 0)
(-3.94718e-09 1.54482e-09 0)
(-3.15162e-09 1.82833e-09 0)
(-2.43849e-09 2.02072e-09 0)
(-1.7717e-09 2.13345e-09 0)
(-1.13556e-09 2.17309e-09 0)
(-5.33296e-10 2.14374e-09 0)
(3.72448e-11 2.06375e-09 0)
(5.98113e-10 1.9702e-09 0)
(1.17804e-09 1.90077e-09 0)
(1.78759e-09 1.87207e-09 0)
(2.40466e-09 1.87725e-09 0)
(2.9799e-09 1.9e-09 0)
(3.45572e-09 1.93803e-09 0)
(3.7846e-09 2.0252e-09 0)
(3.94632e-09 2.21323e-09 0)
(3.9423e-09 2.52975e-09 0)
(3.77608e-09 2.96753e-09 0)
(3.47189e-09 3.49457e-09 0)
(3.0506e-09 4.07986e-09 0)
(2.48295e-09 4.69813e-09 0)
(1.71662e-09 5.30961e-09 0)
(7.56182e-10 5.86206e-09 0)
(-3.57185e-10 6.30206e-09 0)
(-1.4928e-09 6.49042e-09 0)
(-2.56609e-09 6.31734e-09 0)
(-3.25025e-09 5.61507e-09 0)
(-3.39635e-09 4.50634e-09 0)
(-2.91099e-09 3.15558e-09 0)
(-2.18169e-09 2.09554e-09 0)
(-1.43695e-09 1.66855e-09 0)
(-6.98261e-10 1.86237e-09 0)
(1.00747e-10 1.4165e-09 0)
(-2.54365e-10 2.03313e-09 0)
(-1.47812e-09 3.14383e-09 0)
(-2.49741e-09 2.64467e-09 0)
(-2.79839e-09 1.58365e-09 0)
(-3.42742e-09 7.36982e-10 0)
(-4.41332e-09 4.41745e-10 0)
(-5.07368e-09 3.89885e-10 0)
(-5.5659e-09 3.27604e-10 0)
(-5.85383e-09 4.84948e-10 0)
(-5.97939e-09 6.69908e-10 0)
(-6.21418e-09 8.04277e-10 0)
(-6.37978e-09 1.00447e-09 0)
(-6.42902e-09 1.2829e-09 0)
(-6.5542e-09 1.73878e-09 0)
(-6.75633e-09 2.35824e-09 0)
(-6.98127e-09 2.88395e-09 0)
(-7.3308e-09 3.42285e-09 0)
(-7.84194e-09 3.6945e-09 0)
(-8.15412e-09 3.88135e-09 0)
(-8.37392e-09 4.05256e-09 0)
(-8.60408e-09 4.15229e-09 0)
(-8.74897e-09 4.1301e-09 0)
(-9.01905e-09 3.9073e-09 0)
(-9.33164e-09 3.54338e-09 0)
(-9.43475e-09 3.2011e-09 0)
(-9.50993e-09 2.87163e-09 0)
(-9.6909e-09 2.47761e-09 0)
(-9.65631e-09 2.0317e-09 0)
(-9.47065e-09 1.6369e-09 0)
(-9.4949e-09 1.29006e-09 0)
(-9.67344e-09 9.87079e-10 0)
(-9.79368e-09 7.08195e-10 0)
(-9.93279e-09 4.59949e-10 0)
(-1.02637e-08 2.58387e-10 0)
(-1.06193e-08 1.64598e-10 0)
(-1.0749e-08 2.23243e-10 0)
(-1.0721e-08 3.30274e-10 0)
(-1.07626e-08 4.25396e-10 0)
(-1.08795e-08 5.01604e-10 0)
(-1.09045e-08 6.14656e-10 0)
(-1.07614e-08 7.82516e-10 0)
(-1.0544e-08 9.98668e-10 0)
(-1.04258e-08 1.23141e-09 0)
(-1.04461e-08 1.39736e-09 0)
(-1.04249e-08 1.46245e-09 0)
(-1.02096e-08 1.48327e-09 0)
(-9.91058e-09 1.52334e-09 0)
(-9.74563e-09 1.60032e-09 0)
(-9.74749e-09 1.69146e-09 0)
(-9.79141e-09 1.76648e-09 0)
(-9.81797e-09 1.81724e-09 0)
(-9.88569e-09 1.84463e-09 0)
(-1.00675e-08 1.83523e-09 0)
(-1.03608e-08 1.76585e-09 0)
(-1.06681e-08 1.62757e-09 0)
(-1.08647e-08 1.44236e-09 0)
(-1.09052e-08 1.24509e-09 0)
(-1.08571e-08 1.052e-09 0)
(-1.08132e-08 8.60663e-10 0)
(-1.07733e-08 6.73646e-10 0)
(-1.06253e-08 5.10742e-10 0)
(-1.02392e-08 4.04033e-10 0)
(-9.56332e-09 3.89877e-10 0)
(-8.64067e-09 5.01628e-10 0)
(-7.5675e-09 7.56968e-10 0)
(-6.4527e-09 1.14156e-09 0)
(-5.39649e-09 1.60312e-09 0)
(-4.47191e-09 2.06729e-09 0)
(-3.70442e-09 2.46822e-09 0)
(-3.06759e-09 2.77122e-09 0)
(-2.50833e-09 2.97127e-09 0)
(-1.98415e-09 3.07624e-09 0)
(-1.47872e-09 3.0971e-09 0)
(-9.87466e-10 3.05326e-09 0)
(-4.98889e-10 2.97651e-09 0)
(5.20112e-12 2.89904e-09 0)
(5.35062e-10 2.83806e-09 0)
(1.08391e-09 2.79406e-09 0)
(1.62663e-09 2.76428e-09 0)
(2.12704e-09 2.75673e-09 0)
(2.55523e-09 2.79742e-09 0)
(2.88462e-09 2.93456e-09 0)
(3.0788e-09 3.212e-09 0)
(3.1022e-09 3.63404e-09 0)
(2.93737e-09 4.18716e-09 0)
(2.60686e-09 4.86065e-09 0)
(2.14814e-09 5.63014e-09 0)
(1.54222e-09 6.45355e-09 0)
(7.74425e-10 7.25837e-09 0)
(-1.44074e-10 7.97061e-09 0)
(-1.14854e-09 8.46447e-09 0)
(-2.19518e-09 8.59031e-09 0)
(-3.12892e-09 8.20094e-09 0)
(-3.784e-09 7.30513e-09 0)
(-3.82871e-09 5.81964e-09 0)
(-3.32645e-09 4.03251e-09 0)
(-2.29984e-09 2.31118e-09 0)
(-1.37896e-09 1.53777e-09 0)
(-6.96957e-10 1.81079e-09 0)
(-1.27519e-11 1.68777e-09 0)
(-3.48668e-10 2.24491e-09 0)
(-1.35565e-09 3.22787e-09 0)
(-2.50366e-09 2.97915e-09 0)
(-3.19745e-09 2.16218e-09 0)
(-3.98006e-09 1.38282e-09 0)
(-4.81759e-09 8.39766e-10 0)
(-5.42954e-09 6.78267e-10 0)
(-5.83992e-09 5.72031e-10 0)
(-6.06443e-09 7.3161e-10 0)
(-6.27545e-09 1.04739e-09 0)
(-6.44325e-09 1.32864e-09 0)
(-6.52347e-09 1.73538e-09 0)
(-6.53675e-09 2.10474e-09 0)
(-6.43893e-09 2.57658e-09 0)
(-6.42124e-09 3.1528e-09 0)
(-6.57808e-09 3.6653e-09 0)
(-6.98478e-09 4.09513e-09 0)
(-7.56135e-09 4.34122e-09 0)
(-7.8483e-09 4.56606e-09 0)
(-8.06272e-09 4.76496e-09 0)
(-8.3035e-09 4.80357e-09 0)
(-8.51756e-09 4.71293e-09 0)
(-8.93744e-09 4.49294e-09 0)
(-9.31818e-09 4.10413e-09 0)
(-9.36036e-09 3.69781e-09 0)
(-9.37936e-09 3.33964e-09 0)
(-9.57832e-09 2.9572e-09 0)
(-9.59071e-09 2.52647e-09 0)
(-9.40399e-09 2.08229e-09 0)
(-9.37886e-09 1.66907e-09 0)
(-9.54372e-09 1.28586e-09 0)
(-9.69709e-09 9.24816e-10 0)
(-9.8175e-09 6.17905e-10 0)
(-1.00605e-08 4.21167e-10 0)
(-1.03294e-08 3.18856e-10 0)
(-1.04504e-08 3.04668e-10 0)
(-1.04657e-08 3.52031e-10 0)
(-1.05123e-08 4.60258e-10 0)
(-1.05958e-08 6.02803e-10 0)
(-1.06091e-08 7.44928e-10 0)
(-1.04926e-08 8.6985e-10 0)
(-1.02946e-08 1.00648e-09 0)
(-1.01936e-08 1.1986e-09 0)
(-1.02747e-08 1.41472e-09 0)
(-1.03426e-08 1.57036e-09 0)
(-1.01976e-08 1.63251e-09 0)
(-9.9276e-09 1.63755e-09 0)
(-9.74965e-09 1.64712e-09 0)
(-9.71922e-09 1.69305e-09 0)
(-9.74899e-09 1.74932e-09 0)
(-9.80271e-09 1.76843e-09 0)
(-9.93609e-09 1.73016e-09 0)
(-1.02013e-08 1.64997e-09 0)
(-1.05711e-08 1.55593e-09 0)
(-1.09308e-08 1.46008e-09 0)
(-1.11534e-08 1.34902e-09 0)
(-1.12069e-08 1.1988e-09 0)
(-1.11704e-08 1.00196e-09 0)
(-1.11308e-08 7.88714e-10 0)
(-1.1074e-08 6.19819e-10 0)
(-1.08832e-08 5.50785e-10 0)
(-1.0434e-08 6.02003e-10 0)
(-9.68187e-09 7.6172e-10 0)
(-8.67694e-09 1.00999e-09 0)
(-7.52947e-09 1.33396e-09 0)
(-6.37333e-09 1.72202e-09 0)
(-5.33455e-09 2.1498e-09 0)
(-4.49574e-09 2.57769e-09 0)
(-3.86888e-09 2.9644e-09 0)
(-3.40259e-09 3.28157e-09 0)
(-3.02379e-09 3.51545e-09 0)
(-2.67827e-09 3.66199e-09 0)
(-2.33824e-09 3.72867e-09 0)
(-1.98722e-09 3.73971e-09 0)
(-1.61239e-09 3.72744e-09 0)
(-1.20804e-09 3.71148e-09 0)
(-7.77477e-10 3.6915e-09 0)
(-3.28788e-10 3.6592e-09 0)
(1.2527e-10 3.618e-09 0)
(5.65215e-10 3.60022e-09 0)
(9.73691e-10 3.66181e-09 0)
(1.32081e-09 3.85883e-09 0)
(1.54331e-09 4.21851e-09 0)
(1.58893e-09 4.72678e-09 0)
(1.45453e-09 5.36957e-09 0)
(1.1711e-09 6.14758e-09 0)
(7.60238e-10 7.03522e-09 0)
(2.02517e-10 7.97781e-09 0)
(-5.07329e-10 8.90469e-09 0)
(-1.31289e-09 9.7051e-09 0)
(-2.18227e-09 1.02296e-08 0)
(-2.98323e-09 1.02514e-08 0)
(-3.62776e-09 9.70489e-09 0)
(-3.97089e-09 8.53741e-09 0)
(-3.9999e-09 6.86257e-09 0)
(-3.49878e-09 4.74745e-09 0)
(-2.4958e-09 2.76086e-09 0)
(-1.31081e-09 1.5669e-09 0)
(-5.98794e-10 1.84443e-09 0)
(1.16944e-12 1.95091e-09 0)
(-6.21782e-10 2.49502e-09 0)
(-1.48587e-09 3.60377e-09 0)
(-2.49111e-09 3.25201e-09 0)
(-3.42024e-09 2.59347e-09 0)
(-4.3377e-09 2.01578e-09 0)
(-5.18562e-09 1.6162e-09 0)
(-5.76616e-09 1.41828e-09 0)
(-6.23116e-09 1.52143e-09 0)
(-6.31388e-09 1.67015e-09 0)
(-6.44311e-09 1.99611e-09 0)
(-6.60392e-09 2.36692e-09 0)
(-6.61219e-09 2.86876e-09 0)
(-6.46151e-09 3.34071e-09 0)
(-6.20689e-09 3.85569e-09 0)
(-6.17483e-09 4.33889e-09 0)
(-6.34712e-09 4.72068e-09 0)
(-6.76708e-09 4.99137e-09 0)
(-7.29577e-09 5.20747e-09 0)
(-7.47882e-09 5.36827e-09 0)
(-7.72158e-09 5.47077e-09 0)
(-8.09337e-09 5.43709e-09 0)
(-8.36564e-09 5.26556e-09 0)
(-8.82092e-09 5.02329e-09 0)
(-9.22603e-09 4.68315e-09 0)
(-9.22451e-09 4.26388e-09 0)
(-9.22322e-09 3.86079e-09 0)
(-9.44623e-09 3.47133e-09 0)
(-9.46528e-09 3.08324e-09 0)
(-9.27661e-09 2.63058e-09 0)
(-9.27504e-09 2.16231e-09 0)
(-9.45427e-09 1.70991e-09 0)
(-9.56616e-09 1.33807e-09 0)
(-9.62143e-09 1.06727e-09 0)
(-9.83739e-09 9.05553e-10 0)
(-1.01052e-08 8.18578e-10 0)
(-1.01816e-08 7.71929e-10 0)
(-1.01262e-08 7.9215e-10 0)
(-1.0164e-08 9.05021e-10 0)
(-1.03326e-08 1.06487e-09 0)
(-1.04535e-08 1.1665e-09 0)
(-1.03851e-08 1.18659e-09 0)
(-1.01595e-08 1.20166e-09 0)
(-1.00099e-08 1.29138e-09 0)
(-1.01046e-08 1.45081e-09 0)
(-1.02665e-08 1.58412e-09 0)
(-1.02239e-08 1.60722e-09 0)
(-9.99475e-09 1.53887e-09 0)
(-9.80326e-09 1.47884e-09 0)
(-9.77147e-09 1.49988e-09 0)
(-9.85518e-09 1.56975e-09 0)
(-9.98997e-09 1.59538e-09 0)
(-1.01719e-08 1.52369e-09 0)
(-1.0426e-08 1.38077e-09 0)
(-1.07537e-08 1.23377e-09 0)
(-1.11e-08 1.12619e-09 0)
(-1.13765e-08 1.04356e-09 0)
(-1.15324e-08 9.37582e-10 0)
(-1.15806e-08 7.81912e-10 0)
(-1.15459e-08 6.0824e-10 0)
(-1.14031e-08 4.91869e-10 0)
(-1.10816e-08 5.00857e-10 0)
(-1.05201e-08 6.55558e-10 0)
(-9.70893e-09 9.29085e-10 0)
(-8.69407e-09 1.27573e-09 0)
(-7.565e-09 1.65576e-09 0)
(-6.44352e-09 2.04133e-09 0)
(-5.45886e-09 2.41196e-09 0)
(-4.70159e-09 2.75296e-09 0)
(-4.18595e-09 3.05827e-09 0)
(-3.85725e-09 3.32873e-09 0)
(-3.6368e-09 3.5639e-09 0)
(-3.45944e-09 3.75975e-09 0)
(-3.2792e-09 3.91637e-09 0)
(-3.06571e-09 4.04236e-09 0)
(-2.81129e-09 4.14554e-09 0)
(-2.5294e-09 4.22112e-09 0)
(-2.23616e-09 4.25722e-09 0)
(-1.93257e-09 4.25103e-09 0)
(-1.60095e-09 4.22358e-09 0)
(-1.22318e-09 4.23362e-09 0)
(-8.04142e-10 4.35667e-09 0)
(-3.97987e-10 4.63589e-09 0)
(-1.09127e-10 5.06974e-09 0)
(-9.6452e-12 5.63424e-09 0)
(-9.13943e-11 6.31812e-09 0)
(-3.21281e-10 7.12234e-09 0)
(-6.75022e-10 8.01628e-09 0)
(-1.14891e-09 8.96287e-09 0)
(-1.71457e-09 9.91372e-09 0)
(-2.33578e-09 1.07493e-08 0)
(-2.97713e-09 1.12598e-08 0)
(-3.5373e-09 1.12511e-08 0)
(-3.84148e-09 1.05675e-08 0)
(-3.91088e-09 9.22162e-09 0)
(-3.73481e-09 7.21122e-09 0)
(-3.35175e-09 5.02017e-09 0)
(-2.45733e-09 2.92041e-09 0)
(-1.30504e-09 1.73181e-09 0)
(-4.40099e-10 1.95139e-09 0)
(5.91869e-11 2.22475e-09 0)
(-6.59143e-10 2.45759e-09 0)
(-1.53013e-09 3.68499e-09 0)
(-2.51375e-09 3.35425e-09 0)
(-3.46524e-09 2.91642e-09 0)
(-4.47014e-09 2.52322e-09 0)
(-5.36567e-09 2.49421e-09 0)
(-5.82123e-09 2.39849e-09 0)
(-6.17745e-09 2.64785e-09 0)
(-6.41256e-09 2.94651e-09 0)
(-6.54042e-09 3.30919e-09 0)
(-6.57172e-09 3.7543e-09 0)
(-6.49839e-09 4.25936e-09 0)
(-6.38e-09 4.79619e-09 0)
(-6.10864e-09 5.17203e-09 0)
(-6.03885e-09 5.47322e-09 0)
(-6.21377e-09 5.71656e-09 0)
(-6.5924e-09 5.83959e-09 0)
(-7.09166e-09 5.98694e-09 0)
(-7.31521e-09 6.07779e-09 0)
(-7.55964e-09 6.01156e-09 0)
(-7.92424e-09 5.9113e-09 0)
(-8.21282e-09 5.75256e-09 0)
(-8.68495e-09 5.47905e-09 0)
(-9.14546e-09 5.17718e-09 0)
(-9.17399e-09 4.83937e-09 0)
(-9.10831e-09 4.47499e-09 0)
(-9.26e-09 4.09358e-09 0)
(-9.32636e-09 3.76684e-09 0)
(-9.2333e-09 3.39567e-09 0)
(-9.24294e-09 2.9774e-09 0)
(-9.36572e-09 2.52515e-09 0)
(-9.40842e-09 2.15721e-09 0)
(-9.4031e-09 1.96095e-09 0)
(-9.55655e-09 1.91563e-09 0)
(-9.81071e-09 1.93228e-09 0)
(-9.92704e-09 1.89507e-09 0)
(-9.88437e-09 1.84052e-09 0)
(-9.88893e-09 1.88985e-09 0)
(-1.00748e-08 2.08104e-09 0)
(-1.03105e-08 2.24877e-09 0)
(-1.03533e-08 2.24483e-09 0)
(-1.01482e-08 2.09793e-09 0)
(-9.95493e-09 1.94038e-09 0)
(-1.00346e-08 1.88645e-09 0)
(-1.02722e-08 1.94048e-09 0)
(-1.03549e-08 2.00348e-09 0)
(-1.01885e-08 1.98851e-09 0)
(-9.93791e-09 1.90777e-09 0)
(-9.79192e-09 1.83793e-09 0)
(-9.83024e-09 1.82223e-09 0)
(-1.00384e-08 1.83331e-09 0)
(-1.03536e-08 1.81496e-09 0)
(-1.0709e-08 1.7314e-09 0)
(-1.10607e-08 1.58817e-09 0)
(-1.13769e-08 1.42255e-09 0)
(-1.16233e-08 1.27436e-09 0)
(-1.17801e-08 1.1653e-09 0)
(-1.18469e-08 1.10154e-09 0)
(-1.18089e-08 1.08788e-09 0)
(-1.16162e-08 1.13431e-09 0)
(-1.12072e-08 1.24966e-09 0)
(-1.05535e-08 1.43406e-09 0)
(-9.6778e-09 1.67957e-09 0)
(-8.64437e-09 1.97326e-09 0)
(-7.54697e-09 2.29527e-09 0)
(-6.50143e-09 2.61612e-09 0)
(-5.62168e-09 2.90473e-09 0)
(-4.9766e-09 3.1457e-09 0)
(-4.56282e-09 3.34749e-09 0)
(-4.32303e-09 3.53052e-09 0)
(-4.18825e-09 3.70909e-09 0)
(-4.1026e-09 3.88849e-09 0)
(-4.02434e-09 4.07136e-09 0)
(-3.92785e-09 4.25457e-09 0)
(-3.81209e-09 4.42253e-09 0)
(-3.68924e-09 4.55101e-09 0)
(-3.55852e-09 4.62237e-09 0)
(-3.39274e-09 4.6408e-09 0)
(-3.14075e-09 4.63953e-09 0)
(-2.76535e-09 4.68488e-09 0)
(-2.2975e-09 4.84613e-09 0)
(-1.84207e-09 5.14351e-09 0)
(-1.52646e-09 5.56384e-09 0)
(-1.40693e-09 6.10593e-09 0)
(-1.44956e-09 6.78401e-09 0)
(-1.61781e-09 7.59748e-09 0)
(-1.88269e-09 8.49141e-09 0)
(-2.20677e-09 9.40599e-09 0)
(-2.5773e-09 1.03001e-08 0)
(-2.9863e-09 1.10496e-08 0)
(-3.4058e-09 1.14916e-08 0)
(-3.67199e-09 1.14369e-08 0)
(-3.69555e-09 1.07257e-08 0)
(-3.55627e-09 9.26361e-09 0)
(-3.27268e-09 7.09724e-09 0)
(-2.8179e-09 4.77699e-09 0)
(-2.14294e-09 2.82161e-09 0)
(-1.13749e-09 1.79393e-09 0)
(-3.18531e-10 2.19198e-09 0)
(1.0523e-10 2.45306e-09 0)
(-7.50757e-10 2.49525e-09 0)
(-1.52951e-09 3.652e-09 0)
(-2.39967e-09 3.48661e-09 0)
(-3.33089e-09 3.22374e-09 0)
(-4.19865e-09 3.07459e-09 0)
(-5.09526e-09 3.27294e-09 0)
(-5.69866e-09 3.60695e-09 0)
(-6.04111e-09 3.85868e-09 0)
(-6.23473e-09 4.19737e-09 0)
(-6.36465e-09 4.56464e-09 0)
(-6.43803e-09 5.02727e-09 0)
(-6.32834e-09 5.38983e-09 0)
(-6.21758e-09 5.82944e-09 0)
(-6.06843e-09 6.11747e-09 0)
(-6.01552e-09 6.22135e-09 0)
(-6.20295e-09 6.28794e-09 0)
(-6.55491e-09 6.30139e-09 0)
(-6.95643e-09 6.33636e-09 0)
(-7.2018e-09 6.41081e-09 0)
(-7.49477e-09 6.3062e-09 0)
(-7.83033e-09 6.15349e-09 0)
(-8.16079e-09 6.02033e-09 0)
(-8.65936e-09 5.79301e-09 0)
(-9.0455e-09 5.5474e-09 0)
(-9.04099e-09 5.3337e-09 0)
(-9.03658e-09 5.12626e-09 0)
(-9.19461e-09 4.83778e-09 0)
(-9.19566e-09 4.54178e-09 0)
(-9.10998e-09 4.25782e-09 0)
(-9.21911e-09 3.98632e-09 0)
(-9.39413e-09 3.66575e-09 0)
(-9.31043e-09 3.33307e-09 0)
(-9.11498e-09 3.13043e-09 0)
(-9.19845e-09 3.12539e-09 0)
(-9.54386e-09 3.25867e-09 0)
(-9.77925e-09 3.35095e-09 0)
(-9.72444e-09 3.31691e-09 0)
(-9.60022e-09 3.25573e-09 0)
(-9.72868e-09 3.31164e-09 0)
(-1.01158e-08 3.43286e-09 0)
(-1.04249e-08 3.45532e-09 0)
(-1.0407e-08 3.29967e-09 0)
(-1.02099e-08 3.02422e-09 0)
(-1.01302e-08 2.78799e-09 0)
(-1.02048e-08 2.72024e-09 0)
(-1.02547e-08 2.79955e-09 0)
(-1.01877e-08 2.89702e-09 0)
(-1.00659e-08 2.90849e-09 0)
(-9.98157e-09 2.82343e-09 0)
(-9.99545e-09 2.69935e-09 0)
(-1.01434e-08 2.60056e-09 0)
(-1.04307e-08 2.55017e-09 0)
(-1.08216e-08 2.51947e-09 0)
(-1.12454e-08 2.46397e-09 0)
(-1.16136e-08 2.37073e-09 0)
(-1.18544e-08 2.27012e-09 0)
(-1.19511e-08 2.21194e-09 0)
(-1.1934e-08 2.23473e-09 0)
(-1.18244e-08 2.34777e-09 0)
(-1.15934e-08 2.52995e-09 0)
(-1.11808e-08 2.74236e-09 0)
(-1.05428e-08 2.94881e-09 0)
(-9.68356e-09 3.13299e-09 0)
(-8.66193e-09 3.29894e-09 0)
(-7.58501e-09 3.45475e-09 0)
(-6.58676e-09 3.59738e-09 0)
(-5.78307e-09 3.7167e-09 0)
(-5.22545e-09 3.81186e-09 0)
(-4.89234e-09 3.89551e-09 0)
(-4.72297e-09 3.98042e-09 0)
(-4.65317e-09 4.0707e-09 0)
(-4.62853e-09 4.17067e-09 0)
(-4.61041e-09 4.29152e-09 0)
(-4.58542e-09 4.43745e-09 0)
(-4.56549e-09 4.59324e-09 0)
(-4.56443e-09 4.72958e-09 0)
(-4.56794e-09 4.81862e-09 0)
(-4.52405e-09 4.85539e-09 0)
(-4.35078e-09 4.86893e-09 0)
(-3.99178e-09 4.91536e-09 0)
(-3.49594e-09 5.04966e-09 0)
(-2.99749e-09 5.29114e-09 0)
(-2.61899e-09 5.64663e-09 0)
(-2.39905e-09 6.14208e-09 0)
(-2.3165e-09 6.7955e-09 0)
(-2.38249e-09 7.59167e-09 0)
(-2.58636e-09 8.46814e-09 0)
(-2.83792e-09 9.3514e-09 0)
(-3.07326e-09 1.01755e-08 0)
(-3.27316e-09 1.08238e-08 0)
(-3.39811e-09 1.11759e-08 0)
(-3.38383e-09 1.10978e-08 0)
(-3.1666e-09 1.03789e-08 0)
(-2.95755e-09 8.91386e-09 0)
(-2.61152e-09 6.77563e-09 0)
(-2.1447e-09 4.50562e-09 0)
(-1.56112e-09 2.67487e-09 0)
(-8.26396e-10 1.95334e-09 0)
(-2.01961e-10 2.54051e-09 0)
(7.81243e-11 2.76474e-09 0)
(-7.7442e-10 2.39871e-09 0)
(-1.54036e-09 3.75658e-09 0)
(-2.28155e-09 3.75802e-09 0)
(-3.07456e-09 3.73996e-09 0)
(-3.81662e-09 3.77568e-09 0)
(-4.46944e-09 3.97902e-09 0)
(-5.11023e-09 4.4253e-09 0)
(-5.69858e-09 4.83138e-09 0)
(-6.02452e-09 5.17811e-09 0)
(-6.172e-09 5.47676e-09 0)
(-6.27651e-09 5.81022e-09 0)
(-6.22447e-09 6.07605e-09 0)
(-6.12529e-09 6.24621e-09 0)
(-6.09824e-09 6.4102e-09 0)
(-6.13798e-09 6.36073e-09 0)
(-6.28213e-09 6.2607e-09 0)
(-6.56944e-09 6.2352e-09 0)
(-6.88766e-09 6.23991e-09 0)
(-7.13654e-09 6.25409e-09 0)
(-7.50159e-09 6.1466e-09 0)
(-7.79739e-09 6.01427e-09 0)
(-8.07365e-09 5.92343e-09 0)
(-8.58289e-09 5.81778e-09 0)
(-8.96707e-09 5.69532e-09 0)
(-8.90827e-09 5.56895e-09 0)
(-8.88248e-09 5.46331e-09 0)
(-9.1025e-09 5.34708e-09 0)
(-9.15885e-09 5.15593e-09 0)
(-9.0502e-09 4.91437e-09 0)
(-9.11896e-09 4.69206e-09 0)
(-9.33777e-09 4.50588e-09 0)
(-9.30809e-09 4.29103e-09 0)
(-9.02931e-09 4.08135e-09 0)
(-8.90742e-09 3.99767e-09 0)
(-9.12885e-09 4.08813e-09 0)
(-9.47875e-09 4.22756e-09 0)
(-9.65524e-09 4.22089e-09 0)
(-9.63305e-09 4.05164e-09 0)
(-9.69565e-09 3.88382e-09 0)
(-1.00185e-08 3.82424e-09 0)
(-1.03859e-08 3.8254e-09 0)
(-1.05197e-08 3.7798e-09 0)
(-1.04416e-08 3.62664e-09 0)
(-1.03419e-08 3.42794e-09 0)
(-1.02867e-08 3.31408e-09 0)
(-1.02221e-08 3.34064e-09 0)
(-1.01376e-08 3.45323e-09 0)
(-1.00807e-08 3.56348e-09 0)
(-1.00796e-08 3.60949e-09 0)
(-1.01397e-08 3.57508e-09 0)
(-1.02816e-08 3.49028e-09 0)
(-1.05364e-08 3.40626e-09 0)
(-1.09052e-08 3.35645e-09 0)
(-1.13294e-08 3.34221e-09 0)
(-1.17029e-08 3.35025e-09 0)
(-1.19291e-08 3.37422e-09 0)
(-1.1981e-08 3.42294e-09 0)
(-1.18987e-08 3.51468e-09 0)
(-1.17279e-08 3.66178e-09 0)
(-1.14667e-08 3.85522e-09 0)
(-1.10695e-08 4.0625e-09 0)
(-1.04855e-08 4.24249e-09 0)
(-9.69794e-09 4.36485e-09 0)
(-8.74726e-09 4.41775e-09 0)
(-7.73503e-09 4.40242e-09 0)
(-6.79593e-09 4.32817e-09 0)
(-6.04215e-09 4.21566e-09 0)
(-5.52005e-09 4.09714e-09 0)
(-5.2126e-09 4.00189e-09 0)
(-5.07078e-09 3.94164e-09 0)
(-5.03361e-09 3.91588e-09 0)
(-5.03749e-09 3.92864e-09 0)
(-5.04e-09 3.99111e-09 0)
(-5.04098e-09 4.10483e-09 0)
(-5.07175e-09 4.25121e-09 0)
(-5.1558e-09 4.39709e-09 0)
(-5.26641e-09 4.50863e-09 0)
(-5.31786e-09 4.5801e-09 0)
(-5.19617e-09 4.64441e-09 0)
(-4.83643e-09 4.74243e-09 0)
(-4.30456e-09 4.89787e-09 0)
(-3.75149e-09 5.11585e-09 0)
(-3.29496e-09 5.41322e-09 0)
(-2.97434e-09 5.83175e-09 0)
(-2.78523e-09 6.38549e-09 0)
(-2.74836e-09 7.05812e-09 0)
(-2.85084e-09 7.83296e-09 0)
(-2.99114e-09 8.66977e-09 0)
(-3.10857e-09 9.47999e-09 0)
(-3.1529e-09 1.01205e-08 0)
(-3.05542e-09 1.04582e-08 0)
(-2.78444e-09 1.03578e-08 0)
(-2.42535e-09 9.66577e-09 0)
(-2.15834e-09 8.20647e-09 0)
(-1.835e-09 6.30158e-09 0)
(-1.39109e-09 4.20811e-09 0)
(-9.21245e-10 2.62606e-09 0)
(-4.38448e-10 2.13193e-09 0)
(-8.41568e-11 2.90376e-09 0)
(5.17427e-11 3.07199e-09 0)
(-4.70094e-10 2.07372e-09 0)
(-1.21685e-09 3.48481e-09 0)
(-1.98516e-09 3.72994e-09 0)
(-2.66185e-09 3.96128e-09 0)
(-3.36052e-09 4.11981e-09 0)
(-3.97473e-09 4.41189e-09 0)
(-4.55461e-09 4.616e-09 0)
(-5.1952e-09 4.9856e-09 0)
(-5.67935e-09 5.2743e-09 0)
(-5.95869e-09 5.4982e-09 0)
(-6.14058e-09 5.6771e-09 0)
(-6.21336e-09 5.88711e-09 0)
(-6.17916e-09 5.89407e-09 0)