/*--------------------------------*- C++ -*----------------------------------*\
| =========                 |                                                 |
| \\      /  F ield         | OpenFOAM: The Open Source CFD Toolbox           |
|  \\    /   O peration     | Version:  2406                                  |
|   \\  /    A nd           | Website:  www.openfoam.com                      |
|    \\/     M anipulation  |                                                 |
\*---------------------------------------------------------------------------*/
FoamFile
{
    version     2.0;
    format      ascii;
    arch        "LSB;label=32;scalar=64";
    class       volScalarField;
    location    "0.75";
    object      epsilon;
}
// * * * * * * * * * * * * * * * * * * * * * * * * * * * * * * * * * * * * * //

dimensions      [0 2 -3 0 0 0 0];

internalField   nonuniform List<scalar> 
2268
(
3.11056
4.22461
4.22461
4.22461
4.22461
4.22461
4.22461
4.22461
4.22461
4.22461
4.22461
4.22461
4.22461
0.0835004
0.0210276
0.0326099
0.0407835
0.0453548
0.0465181
0.0439328
0.0368046
0.0240577
0.00556284
1.99652
3.53904
3.87395
3.99094
4.04704
4.07915
4.09939
4.11284
4.12192
4.12796
4.13166
4.13343
4.13343
0.0946369
0.020293
0.0221836
0.0254881
0.0274957
0.0279345
0.0266019
0.0231785
0.0173627
0.0100403
1.99652
3.12319
3.57196
3.77087
3.87483
3.93633
3.9757
4.00204
4.01992
4.03183
4.03915
4.04265
4.04265
0.10117
0.0241527
0.022854
0.0247904
0.0261696
0.0264512
0.0254326
0.0229351
0.0189482
0.0163607
1.99652
2.85875
3.32579
3.572
3.71211
3.79847
3.85492
3.89313
3.91926
3.93673
3.9475
3.95264
3.95264
0.108776
0.0280304
0.0248272
0.0259593
0.0269933
0.0272175
0.0264261
0.024539
0.0217482
0.0224571
1.99652
2.68257
3.12893
3.39683
3.5614
3.66728
3.73821
3.78692
3.82053
3.84313
3.8571
3.86379
3.86379
0.115862
0.0315974
0.0270294
0.027568
0.0283525
0.0285614
0.0280009
0.0267022
0.0251002
0.0288614
1.99652
2.55993
2.97193
3.24473
3.4238
3.5439
3.62645
3.68409
3.72426
3.75145
3.76833
3.77643
3.77643
0.122404
0.0348455
0.0291664
0.0292128
0.0297914
0.0300076
0.0296945
0.0290373
0.0289405
0.0369191
1.99652
2.47111
2.84601
3.11357
3.29937
3.4289
3.52027
3.58515
3.63089
3.66207
3.68153
3.69088
3.69088
0.128523
0.0378005
0.0311097
0.0307078
0.0310996
0.0313308
0.0312673
0.0312906
0.0332537
0.0508864
1.99652
2.40455
2.74408
3.00067
3.1875
3.32243
3.42
3.49049
3.54077
3.57532
3.59697
3.60742
3.60742
0.134314
0.0404648
0.0327719
0.0319335
0.0321442
0.0323858
0.0325421
0.0331568
0.0374424
0.0877976
0.00652204
0.0308418
0.0487693
0.060745
0.0685541
0.0735607
0.0766092
0.0781845
0.0785508
0.0778332
0.0760625
0.0731999
0.0691514
0.0637746
0.0568734
0.0481739
0.03726
0.0234432
0.00616362
0.0109796
0.020857
0.0288164
0.0343192
0.0379746
0.040341
0.0417919
0.0425548
0.0427585
0.0424647
0.0416864
0.0403986
0.0385441
0.0360363
0.0327574
0.0285518
0.0232208
0.0165853
0.00929552
0.0181201
0.0220808
0.0274849
0.0314494
0.0341702
0.035965
0.0370771
0.0376681
0.0378341
0.0376216
0.0370387
0.0360613
0.0346371
0.0326877
0.0301086
0.0267734
0.0225619
0.0175454
0.0142076
0.0252573
0.0249505
0.0287159
0.031757
0.0339503
0.035438
0.0363735
0.0368738
0.0370138
0.0368302
0.036327
0.0354794
0.0342368
0.0325235
0.0302423
0.027285
0.0235861
0.0193948
0.0186631
0.032921
0.0284912
0.030679
0.0329118
0.0346709
0.035916
0.0367147
0.0371437
0.0372583
0.037086
0.0366267
0.0358548
0.0347204
0.0331505
0.0310539
0.0283388
0.024983
0.021371
0.0226744
0.0426222
0.0324949
0.0328253
0.0342554
0.0356102
0.0366342
0.0373092
0.0376726
0.0377606
0.0375913
0.0371608
0.0364423
0.035387
0.0339252
0.0319728
0.0294544
0.0263859
0.023265
0.0263541
0.0590331
0.0367968
0.0348322
0.0354811
0.036459
0.0372762
0.0378344
0.0381347
0.0381949
0.0380242
0.0376146
0.0369386
0.0359489
0.0345804
0.0327578
0.0304234
0.0276312
0.0249879
0.0298019
0.099316
0.0406498
0.0363888
0.0363984
0.0370483
0.0376765
0.0381249
0.0383644
0.0383965
0.0382216
0.037828
0.0371879
0.0362565
0.0349743
0.033277
0.0311269
0.0286193
0.0264808
0.0330843
1.99652
2.32441
2.61366
2.8485
3.03072
3.169
3.27269
3.34955
3.40536
3.44417
3.46869
3.48057
3.48057
0.142857
0.0441107
0.034824
0.0333166
0.0332521
0.033493
0.0338985
0.0349305
0.0383083
0.0506602
1.99652
2.25444
2.49121
2.69466
2.86184
2.99522
3.0994
3.17909
3.23832
3.2802
3.30696
3.32
3.32
0.152753
0.0484186
0.0374143
0.0352009
0.0348329
0.0350129
0.0354981
0.0364957
0.0386652
0.0432923
1.99652
2.20583
2.40242
2.57749
2.7271
2.85096
2.95086
3.0293
3.0888
3.13152
3.1591
3.17261
3.17261
0.161169
0.0521443
0.0397641
0.0369971
0.0363754
0.0364583
0.0369042
0.0377429
0.0392027
0.0415691
1.99652
2.17008
2.33538
2.48605
2.61836
2.73093
2.824
2.89864
2.95624
2.99814
3.02543
3.03889
3.03889
0.168398
0.0553508
0.0418072
0.0385843
0.0377439
0.0377182
0.0380887
0.0387873
0.0398875
0.0414974
1.99652
2.14268
2.28313
2.41317
2.52957
2.63061
2.71575
2.78519
2.83955
2.87952
2.90576
2.91876
2.91876
0.174631
0.0581149
0.0435576
0.0399448
0.0389131
0.0387811
0.039074
0.0396708
0.0405895
0.0419087
1.99652
2.12103
2.24141
2.35407
2.45629
2.54636
2.62336
2.68701
2.73739
2.77477
2.79948
2.81176
2.81176
0.180002
0.0604972
0.0450465
0.0410935
0.0398933
0.0396637
0.0398864
0.0404102
0.0412293
0.0424151
1.99652
2.10357
2.2075
2.3055
2.39531
2.47531
2.54447
2.60223
2.64836
2.68284
2.70575
2.71717
2.71717
0.184614
0.062546
0.0463072
0.0420559
0.0407073
0.0403906
0.0405522
0.041021
0.0417779
0.0428885
1.99652
2.08927
2.17958
2.2652
2.34424
2.41522
2.4771
2.52919
2.5711
2.6026
2.62362
2.63413
2.63413
0.18856
0.0643035
0.0473723
0.0428597
0.0413812
0.0409878
0.0410966
0.0415217
0.0422347
0.0432949
1.99652
2.07745
2.15641
2.23156
2.30131
2.36433
2.41963
2.46646
2.50434
2.53296
2.55211
2.56171
2.56171
0.191927
0.0658097
0.0482731
0.0435323
0.0419404
0.0414798
0.041543
0.0419321
0.0426113
0.0436339
1.99652
2.06761
2.13707
2.20338
2.26517
2.32125
2.3707
2.41278
2.44696
2.47287
2.49027
2.499
2.499
0.194801
0.0671051
0.0490407
0.0441007
0.0424091
0.0418892
0.0419123
0.0422706
0.0429222
0.0439151
1.99652
2.05941
2.12093
2.17979
2.23478
2.28488
2.32921
2.36708
2.39794
2.4214
2.43718
2.44511
2.44511
0.197265
0.068233
0.0497073
0.0445915
0.0428106
0.0422365
0.0422229
0.0425536
0.0431815
0.04415
1.99652
2.05259
2.10749
2.16009
2.20935
2.25434
2.29426
2.32845
2.35639
2.37768
2.39202
2.39924
2.39924
0.199412
0.0692426
0.0503085
0.0450324
0.043167
0.0425404
0.0424907
0.0427948
0.043401
0.0443484
1.99652
2.04695
2.09637
2.14377
2.18823
2.22892
2.2651
2.29615
2.32158
2.34098
2.35407
2.36066
2.36066
0.201344
0.0701946
0.0508858
0.0454531
0.0435005
0.0428176
0.0427293
0.0430056
0.0435901
0.0445181
1.99652
2.04235
2.08728
2.13042
2.17093
2.20805
2.24112
2.26955
2.29285
2.31066
2.32268
2.32874
2.32874
0.203199
0.071171
0.0514901
0.0458859
0.0438318
0.0430826
0.0429494
0.0431945
0.0437562
0.044665
1.99652
2.03867
2.08001
2.11972
2.15705
2.19129
2.22183
2.24811
2.26968
2.28618
2.29733
2.30295
2.30295
0.205183
0.0722915
0.052184
0.0463622
0.044177
0.0433446
0.0431576
0.0433671
0.043904
0.0447936
1.99652
2.03582
2.07437
2.11143
2.14628
2.17828
2.20684
2.23144
2.25165
2.26711
2.27757
2.28284
2.28284
0.207666
0.0737363
0.0530318
0.0468996
0.044539
0.0436035
0.0433542
0.0435248
0.044036
0.0449065
1.99652
2.03374
2.07025
2.10536
2.1384
2.16874
2.19585
2.2192
2.2384
2.2531
2.26305
2.26806
2.26806
0.211406
0.0757272
0.0540418
0.0474658
0.0448899
0.0438424
0.0435309
0.0436647
0.0441522
0.0450051
1.99652
2.03238
2.06756
2.10139
2.13323
2.16249
2.18864
2.21118
2.22971
2.24391
2.25351
2.25835
2.25835
0.217795
0.0781367
0.0549578
0.0479043
0.0451505
0.0440239
0.0436711
0.0437801
0.0442507
0.0450901
1.99652
2.0317
2.06622
2.09942
2.13067
2.1594
2.18507
2.2072
2.2254
2.23935
2.24878
2.25354
2.25354
0.221306
0.0780152
0.0547555
0.0478612
0.0451926
0.0440993
0.0437558
0.0438642
0.0443298
0.0451619
1.99652
2.0317
2.06622
2.09942
2.13067
2.1594
2.18507
2.2072
2.2254
2.23935
2.24878
2.25354
0.318443
0.101716
0.0634568
0.0516762
0.0469982
0.0449363
0.0440462
0.0437783
0.0439154
0.0443903
0.0452221
0.159133
0.169967
0.178252
0.184882
0.189977
0.193973
0.19727
0.200273
0.203509
0.207868
0.214871
0.219097
0.101189
0.0671057
0.0544474
0.0487223
0.0459171
0.0445302
0.0439087
0.0437546
0.0439411
0.0444363
0.045274
0.0314286
0.0397687
0.0479505
0.0540629
0.0586878
0.0622944
0.0652372
0.0678258
0.0703793
0.0732251
0.0763128
0.0767614
0.0628808
0.0542421
0.0493422
0.0465419
0.0449604
0.0441166
0.0437459
0.0437107
0.043954
0.0444751
0.045322
0.0317401
0.0291439
0.0335649
0.0377227
0.0411698
0.0439807
0.046313
0.0483344
0.0501985
0.051985
0.0534935
0.0537545
0.0510819
0.0484082
0.0464124
0.0450677
0.0442306
0.0437715
0.043601
0.0436703
0.0439673
0.0445146
0.0453717
0.0388395
0.029453
0.0315282
0.0343964
0.0370468
0.0393186
0.0412392
0.0428854
0.0443296
0.0455905
0.0465562
0.0469151
0.0463687
0.04552
0.0447296
0.0441243
0.0437261
0.0435226
0.0434986
0.0436505
0.0439927
0.0445629
0.0454288
0.0448462
0.03122
0.0318762
0.033915
0.0360216
0.0379112
0.0395361
0.0409199
0.042097
0.0430771
0.0438168
0.0442221
0.0442423
0.0440426
0.0437824
0.043557
0.043413
0.0433724
0.0434496
0.0436624
0.0440395
0.0446276
0.0454996
0.0496283
0.0330118
0.0327576
0.0342516
0.0359818
0.037595
0.0390017
0.0401962
0.0411955
0.0420107
0.0426341
0.0430452
0.0432461
0.0432997
0.0432819
0.043253
0.0432543
0.0433149
0.0434591
0.0437142
0.0441161
0.0447165
0.0455914
0.0534418
0.0345598
0.0336869
0.0348164
0.036287
0.0377025
0.03895
0.0400082
0.0408862
0.0415973
0.0421502
0.0425501
0.0428118
0.0429696
0.0430655
0.0431389
0.0432224
0.0433441
0.043531
0.0438138
0.0442318
0.0448392
0.0457132
0.0565181
0.0358484
0.0345359
0.0354187
0.0367128
0.0379907
0.0391255
0.0400876
0.0408823
0.0415248
0.0420307
0.0424148
0.0426952
0.0428963
0.0430461
0.0431725
0.0433017
0.0434593
0.0436721
0.0439717
0.0443987
0.0450082
0.0458775
0.0590705
0.0369328
0.0352962
0.0360116
0.0371888
0.038375
0.0394335
0.0403301
0.0410685
0.0416649
0.0421382
0.042507
0.0427904
0.0430086
0.0431834
0.0433367
0.0434906
0.0436681
0.0438953
0.0442037
0.044634
0.0452412
0.0461019
0.0613163
0.037897
0.0360103
0.0366126
0.037716
0.0388448
0.0398545
0.0407083
0.0414092
0.0419744
0.0424247
0.0427802
0.0430604
0.0432838
0.0434691
0.043635
0.043801
0.0439884
0.0442223
0.0445336
0.0449624
0.0455632
0.0464109
0.0635008
0.0388488
0.0367535
0.0372786
0.0383381
0.0394335
0.0404136
0.0412398
0.0419153
0.0424585
0.0428913
0.043235
0.0435092
0.0437317
0.0439196
0.0440898
0.0442603
0.044451
0.0446861
0.0449956
0.045419
0.0460092
0.046839
0.0659277
0.0399303
0.0376363
0.0381035
0.039136
0.0402108
0.0411707
0.0419762
0.0426316
0.0431562
0.0435733
0.0439048
0.0441706
0.0443882
0.0445736
0.0447429
0.0449126
0.045102
0.0453342
0.0456382
0.0460523
0.0466276
0.0474337
0.0690017
0.0413388
0.0388186
0.0392266
0.040232
0.041284
0.04222
0.0430011
0.0436328
0.0441359
0.0445345
0.0448509
0.0451049
0.0453137
0.0454926
0.0456568
0.045822
0.0460065
0.0462322
0.0465273
0.0469281
0.0474835
0.048259
0.0732892
0.0433604
0.0405327
0.040848
0.0417981
0.0428013
0.043691
0.0444295
0.0450237
0.0454948
0.0458669
0.046162
0.046399
0.0465943
0.0467626
0.0469179
0.0470751
0.0472514
0.0474676
0.0477502
0.0481336
0.0486633
0.0494
0.0796052
0.0464174
0.0431141
0.0432439
0.0440626
0.0449539
0.045748
0.0464073
0.0469377
0.0473584
0.0476909
0.047955
0.0481678
0.0483442
0.0484972
0.0486399
0.0487858
0.0489507
0.0491541
0.0494205
0.0497816
0.0502791
0.0509677
0.0891489
0.0511381
0.0470357
0.0467774
0.0473075
0.0479689
0.0485839
0.0491073
0.0495359
0.0498808
0.0501566
0.050378
0.0505582
0.0507092
0.0508422
0.0509683
0.0510994
0.0512498
0.0514369
0.051683
0.0520165
0.0524744
0.0531046
0.103759
0.0584718
0.0529425
0.0518892
0.0518457
0.0520892
0.0524069
0.0527217
0.0530042
0.0532456
0.053447
0.0536138
0.0537532
0.0538731
0.0539815
0.0540871
0.0542002
0.0543327
0.0544999
0.0547213
0.0550214
0.0554318
0.055993
0.126505
0.0698999
0.061658
0.0590356
0.0579608
0.0575331
0.057419
0.0574545
0.0575528
0.0576694
0.0577836
0.0578877
0.0579808
0.0580653
0.0581458
0.0582282
0.0583203
0.0584318
0.0585755
0.0587673
0.0590278
0.0593827
0.059864
0.163242
0.0878252
0.0740303
0.068484
0.0657771
0.0644326
0.0637938
0.063518
0.0634222
0.0634116
0.0634383
0.0634797
0.0635261
0.0635748
0.0636264
0.0636842
0.0637533
0.0638412
0.0639576
0.0641151
0.0643296
0.0646206
0.0650118
0.227915
0.11616
0.0901479
0.0797934
0.0750406
0.072766
0.0716701
0.0711468
0.0709026
0.0707944
0.0707523
0.0707428
0.07075
0.0707672
0.0707925
0.0708265
0.0708723
0.0709347
0.0710206
0.0711388
0.0713007
0.0715197
0.0718112
0.376523
0.160187
0.106951
0.0909868
0.084962
0.0823864
0.0812093
0.0806487
0.0803735
0.080235
0.0801645
0.080129
0.0801131
0.0801094
0.0801148
0.0801289
0.0801528
0.080189
0.0802416
0.0803159
0.0804185
0.0805572
0.0807403
1.44726
0.212411
0.115662
0.0990824
0.0948233
0.0933784
0.0927839
0.092507
0.0923667
0.0922909
0.0922477
0.0922221
0.0922068
0.0921983
0.0921949
0.0921961
0.0922018
0.0922129
0.0922305
0.0922565
0.0922931
0.0923428
0.0924088
0.112079
0.0899529
0.0922291
0.121404
0.0497392
0.0507973
0.0514105
0.051572
0.0438752
0.0449127
0.0451986
0.0447935
0.0430424
0.043833
0.0440175
0.0436834
0.043219
0.0438982
0.0440342
0.0437205
0.0436195
0.0442399
0.0443459
0.0440316
0.0440289
0.044611
0.0446958
0.0443771
0.0443896
0.0449434
0.0450125
0.0446897
0.0446935
0.0452254
0.0452825
0.0449564
0.0449472
0.045462
0.0455095
0.0451806
0.0451599
0.0456612
0.0457009
0.0453693
0.0453401
0.0458302
0.0458633
0.045529
0.0454941
0.0459747
0.046002
0.0456648
0.0456268
0.0460991
0.046121
0.0457808
0.045742
0.0462065
0.0462234
0.0458802
0.0458423
0.0462996
0.0463117
0.0459656
0.0459294
0.0463803
0.0463881
0.0460394
0.0460046
0.04645
0.0464544
0.0461036
0.0460692
0.0465104
0.0465124
0.0461602
0.0461251
0.0465635
0.046564
0.0462112
0.046175
0.0466118
0.0466118
0.046259
0.0462226
0.0466585
0.0466587
0.0463065
0.0462723
0.0467075
0.0467081
0.0463568
0.0463288
0.0467632
0.0467641
0.0464137
0.0463976
0.0468305
0.0468314
0.046482
0.0464855
0.0469159
0.0469164
0.046568
0.0466012
0.0470279
0.0470276
0.0466803
0.0467567
0.0471783
0.0471767
0.0468309
0.0469689
0.0473838
0.0473806
0.0470372
0.0472618
0.047668
0.047663
0.0473232
0.047669
0.0480641
0.0480573
0.0477229
0.0482368
0.0486179
0.0486092
0.0482827
0.049028
0.0493917
0.0493813
0.0490659
0.0501264
0.0504687
0.0504569
0.0501563
0.0516419
0.0519582
0.0519455
0.0516641
0.0537164
0.0540022
0.053989
0.0537315
0.0565319
0.0567825
0.0567694
0.0565406
0.0603202
0.0605314
0.060519
0.0603234
0.0653765
0.0655445
0.0655335
0.0653755
0.0720772
0.0721991
0.0721903
0.0720734
0.0809025
0.0809764
0.0809705
0.0808976
0.0924652
0.0924899
0.0924873
0.0924609
0.0542881
0.0408737
0.0376744
0.0371924
0.0374412
0.0378113
0.0381031
0.0382532
0.0382418
0.0380574
0.0376833
0.037092
0.0362435
0.0350893
0.0335847
0.0317275
0.0296841
0.0284014
0.0380274
0.0451912
0.0405127
0.0386581
0.0381298
0.0381289
0.0382815
0.0384213
0.0384767
0.0384147
0.0382145
0.0378544
0.0373069
0.0365367
0.0355062
0.0341907
0.032624
0.0310454
0.0306273
0.0434225
0.0427487
0.0405566
0.0394238
0.0389686
0.0388587
0.0388811
0.0389165
0.0389011
0.0387986
0.0385839
0.0382327
0.037717
0.037005
0.036066
0.0348888
0.0335307
0.0322798
0.0324713
0.047639
0.0423117
0.0408837
0.0400717
0.0396714
0.0395081
0.0394516
0.0394166
0.0393498
0.0392165
0.03899
0.0386448
0.038153
0.0374847
0.0366139
0.0355375
0.0343283
0.033308
0.0339352
0.050917
0.0425008
0.0413172
0.0406311
0.040253
0.0400571
0.0399505
0.0398679
0.0397648
0.0396087
0.039373
0.0390319
0.0385577
0.0379216
0.0371001
0.0360955
0.0349905
0.0341309
0.0350724
0.0534511
0.042856
0.0417513
0.0411074
0.0407309
0.040511
0.0403709
0.040256
0.0401272
0.0399545
0.0397118
0.0393734
0.0389115
0.0382979
0.0375109
0.0365558
0.0355218
0.0347732
0.0359422
0.0553947
0.0432198
0.0421403
0.0415058
0.0411218
0.0408829
0.0407192
0.0405818
0.0404349
0.0402501
0.0400019
0.0396646
0.0392107
0.0386121
0.037848
0.0369254
0.0359385
0.0352655
0.0365986
0.0568704
0.0435434
0.0424718
0.041835
0.0414408
0.0411866
0.0410058
0.0408523
0.0406922
0.0404983
0.0402454
0.039908
0.0394585
0.038869
0.0381189
0.0372166
0.0362596
0.035637
0.0370876
0.0579782
0.0438179
0.0427482
0.0421057
0.0417013
0.0414346
0.0412409
0.0410754
0.0409055
0.0407044
0.0404472
0.0401086
0.0396608
0.0390759
0.0383334
0.0374427
0.0365036
0.0359138
0.0374474
0.0587994
0.0440475
0.0429773
0.0423281
0.0419144
0.0416375
0.0414335
0.0412588
0.0410811
0.040874
0.0406128
0.040272
0.0398238
0.0392403
0.0385011
0.0376159
0.0366867
0.0361173
0.0377087
0.0594005
0.0442395
0.0431671
0.0425112
0.0420892
0.0418035
0.0415913
0.0414091
0.0412249
0.0410126
0.0407473
0.0404037
0.0399538
0.0393695
0.0386305
0.037747
0.0368224
0.0362653
0.0378962
0.0598349
0.0444005
0.0433249
0.0426625
0.0422328
0.0419396
0.0417202
0.0415317
0.0413419
0.0411248
0.0408557
0.0405088
0.0400562
0.0394698
0.0387294
0.0378452
0.0369219
0.0363715
0.0380291
0.0601447
0.0445362
0.0434565
0.0427876
0.0423509
0.0420509
0.0418253
0.0416312
0.0414365
0.041215
0.040942
0.0405917
0.0401361
0.039547
0.038804
0.0379179
0.0369941
0.036447
0.0381222
0.0603631
0.0446509
0.0435666
0.0428913
0.042448
0.0421419
0.0419107
0.0417115
0.0415123
0.0412868
0.0410101
0.0406565
0.0401977
0.0396056
0.0388598
0.0379712
0.0370458
0.0365001
0.0381867
0.0605154
0.0447484
0.0436589
0.0429774
0.042528
0.0422161
0.0419798
0.041776
0.0415727
0.0413435
0.0410634
0.0407066
0.0402448
0.0396496
0.038901
0.0380099
0.0370827
0.036537
0.038231
0.0606204
0.0448316
0.0437368
0.0430492
0.0425939
0.0422767
0.0420356
0.0418276
0.0416206
0.041388
0.0411048
0.040745
0.0402804
0.0396826
0.0389313
0.0380378
0.0371087
0.0365626
0.0382611
0.0606922
0.0449032
0.0438032
0.0431097
0.0426487
0.0423264
0.0420809
0.0418691
0.0416587
0.041423
0.041137
0.0407745
0.0403074
0.0397071
0.0389535
0.0380578
0.037127
0.0365802
0.0382816
0.0607412
0.0449656
0.0438607
0.0431614
0.042695
0.0423679
0.0421182
0.0419027
0.0416892
0.0414507
0.0411621
0.0407973
0.0403279
0.0397255
0.0389699
0.0380723
0.0371399
0.0365924
0.0382955
0.0607748
0.0450211
0.0439116
0.0432068
0.0427351
0.0424033
0.0421497
0.0419308
0.0417143
0.0414733
0.0411824
0.0408154
0.040344
0.0397397
0.0389823
0.0380831
0.0371494
0.0366011
0.0383053
0.0607985
0.045072
0.0439583
0.0432482
0.0427714
0.0424351
0.0421776
0.0419555
0.0417363
0.0414928
0.0411997
0.0408308
0.0403576
0.0397515
0.0389925
0.0380918
0.0371568
0.0366078
0.0383126
0.0608164
0.0451206
0.0440033
0.043288
0.0428062
0.0424655
0.0422042
0.041979
0.041757
0.0415112
0.0412161
0.0408453
0.0403702
0.0397625
0.0390018
0.0380997
0.0371635
0.0366137
0.038319
0.060832
0.0451695
0.0440489
0.0433287
0.042842
0.0424969
0.042232
0.0420036
0.041779
0.0415309
0.0412337
0.0408609
0.0403839
0.0397744
0.039012
0.0381083
0.0371707
0.0366199
0.0383257
0.0608484
0.0452217
0.0440983
0.0433734
0.0428818
0.0425324
0.0422638
0.0420324
0.0418051
0.0415545
0.0412551
0.0408801
0.040401
0.0397893
0.0390249
0.0381192
0.0371799
0.036628
0.0383343
0.0608695
0.045281
0.0441551
0.0434257
0.0429295
0.0425759
0.0423036
0.0420689
0.0418389
0.0415857
0.0412838
0.0409063
0.0404246
0.0398103
0.0390431
0.0381348
0.0371932
0.0366398
0.038347
0.0609003
0.0453522
0.0442244
0.0434909
0.0429901
0.0426324
0.0423564
0.0421186
0.0418855
0.0416295
0.0413246
0.0409441
0.0404592
0.0398414
0.0390706
0.0381587
0.0372138
0.0366582
0.0383669
0.0609483
0.0454418
0.0443131
0.0435759
0.043071
0.0427093
0.0424297
0.0421885
0.0419522
0.041693
0.0413847
0.0410004
0.0405113
0.0398888
0.0391131
0.0381961
0.0372466
0.0366879
0.0383991
0.0610251
0.0455591
0.0444307
0.0436908
0.0431822
0.0428168
0.0425337
0.0422891
0.0420494
0.0417866
0.0414742
0.0410852
0.0405907
0.0399621
0.0391795
0.0382554
0.0372991
0.036736
0.0384517
0.0611493
0.0457167
0.044591
0.0438496
0.0433383
0.0429697
0.0426833
0.0424353
0.042192
0.0419251
0.041608
0.0412134
0.0407121
0.0400755
0.0392838
0.0383498
0.037384
0.0368148
0.0385382
0.0613507
0.0459331
0.0448131
0.0440723
0.0435594
0.0431884
0.0428992
0.0426481
0.0424012
0.0421301
0.0418078
0.0414067
0.0408974
0.0402509
0.0394473
0.0385001
0.0375214
0.0369438
0.0386805
0.0616773
0.0462338
0.0451241
0.0443866
0.0438741
0.0435019
0.0432107
0.042957
0.042707
0.0424319
0.0421045
0.0416966
0.0411785
0.0405206
0.039703
0.0387393
0.0377437
0.0371555
0.0389149
0.0622065
0.0466543
0.0455609
0.0448307
0.044321
0.0439495
0.0436577
0.0434027
0.0431506
0.0428726
0.0425412
0.0421277
0.0416015
0.0409325
0.0401001
0.039118
0.0381027
0.0375031
0.0393014
0.0630625
0.0472429
0.0461739
0.0454561
0.0449529
0.0445846
0.0442944
0.0440401
0.0437881
0.0435098
0.0431772
0.0427613
0.0422309
0.0415549
0.0407114
0.0397135
0.0386799
0.0380727
0.0399384
0.0644437
0.0480648
0.0470301
0.0463314
0.0458393
0.0454779
0.0451924
0.044942
0.0446938
0.0444193
0.0440911
0.04368
0.0431542
0.0424819
0.0416396
0.0406391
0.0396001
0.0390015
0.0409858
0.0666619
0.0492059
0.0482176
0.047546
0.0470709
0.046721
0.0464445
0.0462024
0.0459632
0.0456994
0.0453845
0.04499
0.044485
0.0438378
0.0430242
0.042054
0.041047
0.0405012
0.0426974
0.0701992
0.0507776
0.0498497
0.0492147
0.0487635
0.0484309
0.0481688
0.0479407
0.0477174
0.0474733
0.047184
0.0468237
0.0463644
0.0457777
0.0450424
0.0441688
0.0432769
0.0428855
0.0454659
0.075783
0.0529234
0.0520708
0.0514831
0.051064
0.0507552
0.0505135
0.0503061
0.0501068
0.0498931
0.0496444
0.04934
0.0489594
0.0484839
0.0479039
0.0472413
0.0466248
0.0465989
0.0498847
0.0844968
0.0558256
0.055064
0.054535
0.0541566
0.0538788
0.0536642
0.0534843
0.053317
0.0531443
0.0529513
0.0527258
0.0524603
0.0521564
0.0518342
0.0515545
0.0514899
0.0522421
0.0568508
0.0979887
0.0597154
0.0590606
0.0586019
0.0582733
0.0580339
0.0578526
0.0577063
0.0575776
0.057454
0.0573279
0.0571987
0.057078
0.0570009
0.057045
0.0573657
0.0582774
0.0605743
0.0677722
0.118991
0.0648872
0.064354
0.0639774
0.0637076
0.0635133
0.0633707
0.063262
0.0631751
0.0631032
0.0630464
0.0630165
0.0630477
0.0632183
0.063694
0.0648093
0.0672306
0.072393
0.0850009
0.152864
0.0717154
0.0713176
0.0710344
0.0708322
0.070689
0.0705883
0.0705181
0.0704711
0.0704454
0.070447
0.0704968
0.0706461
0.0710118
0.071854
0.0737541
0.0780397
0.0879077
0.112547
0.214198
0.080678
0.0804285
0.0802497
0.0801229
0.0800355
0.0799776
0.0799426
0.0799273
0.0799326
0.0799663
0.0800497
0.0802336
0.0806375
0.08155
0.083709
0.0891714
0.104474
0.155285
0.379691
0.0923844
0.0922961
0.0922326
0.0921883
0.0921591
0.0921417
0.0921343
0.0921361
0.0921483
0.092175
0.092226
0.092325
0.0925287
0.0929855
0.0941402
0.0976024
0.110989
0.192756
1.44596
)
;

boundaryField
{
    leftWall
    {
        type            epsilonWallFunction;
        blending        stepwise;
        value           nonuniform List<scalar> 
50
(
3.11056
1.99652
1.99652
1.99652
1.99652
1.99652
1.99652
1.99652
1.99652
1.99652
1.99652
1.99652
1.99652
1.99652
1.99652
1.99652
1.99652
1.99652
1.99652
1.99652
1.99652
1.99652
1.99652
1.99652
1.99652
1.99652
1.99652
1.99652
0.159133
0.0314286
0.0317401
0.0388395
0.0448462
0.0496283
0.0534418
0.0565181
0.0590705
0.0613163
0.0635008
0.0659277
0.0690017
0.0732892
0.0796052
0.0891489
0.103759
0.126505
0.163242
0.227915
0.376523
1.44726
)
;
    }
    rightWall
    {
        type            epsilonWallFunction;
        blending        stepwise;
        value           nonuniform List<scalar> 
50
(
0.00616362
0.00929552
0.0142076
0.0186631
0.0226744
0.0263541
0.0298019
0.0330843
0.0380274
0.0434225
0.047639
0.050917
0.0534511
0.0553947
0.0568704
0.0579782
0.0587994
0.0594005
0.0598349
0.0601447
0.0603631
0.0605154
0.0606204
0.0606922
0.0607412
0.0607748
0.0607985
0.0608164
0.060832
0.0608484
0.0608695
0.0609003
0.0609483
0.0610251
0.0611493
0.0613507
0.0616773
0.0622065
0.0630625
0.0644437
0.0666619
0.0701992
0.075783
0.0844968
0.0979887
0.118991
0.152864
0.214198
0.379691
1.44596
)
;
    }
    lowerWall
    {
        type            epsilonWallFunction;
        blending        stepwise;
        value           nonuniform List<scalar> 
62
(
3.11056
4.22461
4.22461
4.22461
4.22461
4.22461
4.22461
4.22461
4.22461
4.22461
4.22461
4.22461
4.22461
0.0835004
0.0210276
0.0326099
0.0407835
0.0453548
0.0465181
0.0439328
0.0368046
0.0240577
0.00556284
0.00556284
0.0100403
0.0163607
0.0224571
0.0288614
0.0369191
0.0508864
0.0877976
0.112079
0.0899529
0.0922291
0.121404
0.00652204
0.0109796
0.0181201
0.0252573
0.032921
0.0426222
0.0590331
0.099316
0.00652204
0.0308418
0.0487693
0.060745
0.0685541
0.0735607
0.0766092
0.0781845
0.0785508
0.0778332
0.0760625
0.0731999
0.0691514
0.0637746
0.0568734
0.0481739
0.03726
0.0234432
0.00616362
)
;
    }
    atmosphere
    {
        type            inletOutlet;
        inletValue      uniform 0.1;
        value           uniform 0.1;
    }
    defaultFaces
    {
        type            empty;
    }
}


// ************************************************************************* //
