/*--------------------------------*- C++ -*----------------------------------*\
| =========                 |                                                 |
| \\      /  F ield         | OpenFOAM: The Open Source CFD Toolbox           |
|  \\    /   O peration     | Version:  2406                                  |
|   \\  /    A nd           | Website:  www.openfoam.com                      |
|    \\/     M anipulation  |                                                 |
\*---------------------------------------------------------------------------*/
FoamFile
{
    version     2.0;
    format      ascii;
    arch        "LSB;label=32;scalar=64";
    class       volScalarField;
    location    "0.75";
    object      epsilon;
}
// * * * * * * * * * * * * * * * * * * * * * * * * * * * * * * * * * * * * * //

dimensions      [0 2 -3 0 0 0 0];

internalField   nonuniform List<scalar> 
2268
(
0.00606319
0.0258956
0.0427513
0.0564689
0.0677116
0.0769397
0.0844805
0.0905805
0.0954308
0.0991796
0.101938
0.103781
0.104745
0.104819
0.103936
0.10195
0.0985982
0.0934439
0.0857797
0.0745079
0.0580976
0.0350246
0.00666042
0.0106443
0.0177993
0.0249667
0.0309448
0.0358329
0.0398068
0.0430167
0.0455822
0.0475976
0.0491361
0.0502527
0.0509841
0.0513488
0.0513439
0.0509407
0.0500772
0.0486449
0.0464678
0.0432723
0.0386511
0.0320643
0.0230761
0.0132035
0.0170755
0.018507
0.0230544
0.0271411
0.0305482
0.0333272
0.0355655
0.0373446
0.0387328
0.0397846
0.0405413
0.0410311
0.0412683
0.0412524
0.0409653
0.0403678
0.0393931
0.0379394
0.03586
0.0329593
0.0290223
0.0240832
0.0227615
0.0229735
0.0202373
0.0232528
0.0263287
0.0289839
0.0311768
0.0329496
0.0343582
0.0354547
0.0362828
0.0368762
0.0372583
0.0374419
0.0374281
0.0372056
0.036749
0.0360175
0.0349556
0.0334987
0.0315945
0.0292722
0.0270101
0.0323695
0.0282329
0.0221422
0.0240293
0.0263965
0.0285417
0.0303479
0.0318202
0.0329939
0.0339083
0.0345985
0.0350927
0.0354113
0.0355657
0.0355592
0.0353856
0.0350307
0.0344742
0.0336975
0.032703
0.0315654
0.0305672
0.0307578
0.0424646
0.0329317
0.0240066
0.0249917
0.0268067
0.028561
0.0300756
0.031325
0.0323271
0.0331101
0.0337022
0.0341271
0.0344024
0.0345393
0.0345424
0.0344106
0.0341389
0.0337244
0.0331791
0.0325631
0.0320694
0.0322751
0.0351455
0.0547403
0.037154
0.0257602
0.025996
0.0273593
0.0287958
0.0300753
0.031147
0.0320135
0.032694
0.0332104
0.0335825
0.033826
0.0339516
0.0339655
0.0338708
0.0336706
0.0333761
0.0330243
0.0327214
0.0327624
0.0340413
0.040067
0.0750853
0.0409661
0.0273816
0.0269795
0.0279637
0.0291342
0.0302174
0.0311412
0.0318957
0.0324921
0.032947
0.033277
0.0334957
0.0336138
0.0336388
0.0335772
0.033439
0.0332464
0.0330547
0.0330017
0.0334455
0.0354987
0.0446041
0.128498
0.00726214
0.0382194
0.0621995
0.0783403
0.0887711
0.0953267
0.0991912
0.101058
0.101308
0.100127
0.0975734
0.0936113
0.0881299
0.0809477
0.0718054
0.0603413
0.046038
0.028144
0.00663755
0.0128179
0.0242856
0.0337138
0.0402375
0.044551
0.0473151
0.048976
0.0498059
0.0499592
0.0495117
0.0484841
0.046855
0.0445672
0.0415289
0.0376111
0.0326415
0.0264038
0.018722
0.0104785
0.0217597
0.0246798
0.0299866
0.0339404
0.0366845
0.0385064
0.0396302
0.0402062
0.0403252
0.0400326
0.0393384
0.0382239
0.0366447
0.0345325
0.0317953
0.0283235
0.0240236
0.019031
0.0164774
0.0308086
0.0271843
0.0298045
0.0322102
0.034053
0.0353509
0.0361807
0.0366148
0.0367042
0.0364749
0.0359302
0.0350523
0.0338042
0.0321316
0.0299668
0.0272441
0.0239614
0.0205063
0.0220066
0.0404148
0.0305437
0.0307352
0.0318913
0.0330473
0.0339566
0.0345699
0.034897
0.0349567
0.0347601
0.0343043
0.0335719
0.0325313
0.0311393
0.0293479
0.0271272
0.0245495
0.0222146
0.0269509
0.0523304
0.0344979
0.0321019
0.0321465
0.0327309
0.0333219
0.0337574
0.0339942
0.0340245
0.033846
0.0334508
0.0328214
0.0319307
0.0307449
0.0292325
0.0273937
0.0253623
0.0239179
0.0313706
0.0723506
0.0388628
0.033553
0.0326302
0.0327413
0.0330672
0.0333522
0.0335103
0.033512
0.0333438
0.0329933
0.032443
0.0316694
0.0306468
0.0293579
0.0278282
0.0262424
0.0255354
0.0353407
0.122576
0.0427596
0.0347762
0.0331555
0.0329037
0.0330145
0.0331727
0.0332624
0.0332372
0.033075
0.0327593
0.0322727
0.031595
0.0307073
0.0296044
0.0283332
0.0271208
0.0270392
0.0389229
0.046411
0.0297071
0.0284404
0.0289191
0.0297352
0.0305566
0.0312835
0.0318896
0.032375
0.0327494
0.0330246
0.033212
0.0333219
0.0333635
0.0333479
0.033293
0.0332336
0.0332431
0.0334812
0.034314
0.0366621
0.0432275
0.0637
0.0523685
0.0322709
0.0301148
0.0300898
0.0305541
0.0311145
0.0316445
0.0321017
0.0324762
0.0327703
0.0329917
0.0331491
0.0332521
0.033311
0.0333399
0.0333606
0.0334113
0.0335624
0.0339458
0.0348119
0.0366385
0.0403243
0.0473664
0.0572101
0.0343329
0.0314831
0.0310786
0.0312806
0.0316458
0.0320273
0.0323716
0.0326615
0.0328943
0.0330743
0.0332082
0.0333047
0.0333739
0.0334301
0.0334941
0.0335994
0.0338007
0.0341865
0.0348955
0.0361261
0.038101
0.0408466
0.0611341
0.0359801
0.0325822
0.0318876
0.0318916
0.0321095
0.0323783
0.0326362
0.0328606
0.0330456
0.0331926
0.0333069
0.0333958
0.0334686
0.0335378
0.033621
0.0337438
0.0339433
0.0342717
0.034795
0.0355794
0.0366438
0.0378473
0.0642968
0.0372865
0.033454
0.0325363
0.0323902
0.0324966
0.0326797
0.0328713
0.033045
0.0331921
0.0333124
0.0334096
0.0334897
0.0335606
0.0336325
0.033719
0.0338378
0.0340122
0.0342698
0.0346378
0.0351298
0.0357191
0.0362998
0.0668269
0.0383142
0.0341384
0.0330489
0.0327889
0.0328111
0.0329291
0.0330699
0.0332041
0.0333213
0.0334197
0.0335018
0.0335723
0.0336376
0.0337057
0.0337862
0.033891
0.0340334
0.0342268
0.0344801
0.0347896
0.0351273
0.0354301
0.0688329
0.0391155
0.0346702
0.033449
0.0331029
0.0330616
0.0331304
0.0332325
0.0333362
0.0334296
0.0335099
0.0335786
0.0336393
0.033697
0.0337576
0.0338278
0.0339152
0.0340269
0.0341688
0.0343421
0.0345392
0.0347395
0.0349076
0.0704075
0.0397343
0.0350794
0.0337579
0.0333471
0.0332583
0.0332902
0.0333627
0.0334428
0.0335175
0.033583
0.03364
0.0336912
0.0337405
0.0337921
0.0338508
0.033921
0.0340065
0.0341093
0.034228
0.0343556
0.0344784
0.0345765
0.0716303
0.0402071
0.035391
0.033994
0.0335351
0.033411
0.0334152
0.0334655
0.0335275
0.0335874
0.0336408
0.0336877
0.0337302
0.0337712
0.0338138
0.0338612
0.0339161
0.0339804
0.0340545
0.0341362
0.0342201
0.0342976
0.0343574
0.072569
0.0405647
0.035626
0.0341727
0.0336783
0.0335283
0.0335121
0.0335457
0.0335939
0.0336422
0.0336858
0.0337242
0.033759
0.0337922
0.0338265
0.0338638
0.0339059
0.0339537
0.0340069
0.0340634
0.0341195
0.0341697
0.0342073
0.0732815
0.0408321
0.0358015
0.0343067
0.0337865
0.0336176
0.0335864
0.0336077
0.0336454
0.0336848
0.0337205
0.0337519
0.03378
0.0338065
0.0338334
0.0338622
0.0338939
0.033929
0.0339671
0.0340064
0.0340443
0.0340774
0.0341018
0.0738159
0.0410298
0.0359311
0.0344063
0.0338675
0.0336851
0.0336431
0.0336553
0.0336852
0.0337177
0.0337473
0.0337729
0.0337954
0.0338162
0.0338369
0.0338586
0.0338821
0.0339076
0.0339347
0.0339621
0.0339881
0.0340103
0.0340264
0.074212
0.0411745
0.0360259
0.0344796
0.0339277
0.0337357
0.033686
0.0336917
0.0337158
0.0337431
0.0337679
0.0337889
0.0338068
0.0338229
0.0338385
0.0338546
0.0338717
0.03389
0.0339091
0.0339282
0.033946
0.0339611
0.0339719
0.0745024
0.0412793
0.0360946
0.0345331
0.0339721
0.0337734
0.0337184
0.0337194
0.0337393
0.0337627
0.0337838
0.0338012
0.0338155
0.0338278
0.0338393
0.0338509
0.0338631
0.033876
0.0338894
0.0339027
0.0339149
0.0339252
0.0339326
0.0747129
0.0413543
0.036144
0.0345718
0.0340046
0.0338014
0.0337426
0.0337403
0.0337573
0.0337778
0.0337961
0.0338108
0.0338223
0.0338316
0.0338399
0.0338481
0.0338565
0.0338654
0.0338746
0.0338838
0.0338922
0.0338992
0.0339043
0.0748638
0.0414075
0.0361791
0.0345997
0.0340282
0.033822
0.0337607
0.0337562
0.033771
0.0337895
0.0338058
0.0338184
0.0338277
0.0338348
0.0338406
0.0338461
0.0338517
0.0338577
0.0338639
0.0338701
0.0338759
0.0338807
0.0338842
0.0749709
0.0414449
0.0362038
0.0346195
0.0340453
0.0338371
0.0337742
0.0337682
0.0337815
0.0337985
0.0338133
0.0338244
0.0338321
0.0338375
0.0338415
0.033845
0.0338486
0.0338524
0.0338564
0.0338605
0.0338644
0.0338677
0.0338701
0.0750462
0.0414709
0.0362211
0.0346335
0.0340575
0.0338481
0.0337842
0.0337772
0.0337895
0.0338056
0.0338193
0.0338293
0.0338358
0.0338399
0.0338426
0.0338447
0.0338467
0.0338489
0.0338514
0.0338541
0.0338566
0.0338589
0.0338606
0.0750986
0.0414888
0.0362331
0.0346434
0.0340663
0.0338561
0.0337915
0.0337839
0.0337956
0.033811
0.033824
0.0338332
0.0338389
0.0338421
0.0338438
0.0338448
0.0338458
0.0338469
0.0338483
0.0338499
0.0338516
0.0338531
0.0338543
0.0751347
0.0415011
0.0362414
0.0346503
0.0340725
0.0338619
0.0337969
0.0337889
0.0338003
0.0338152
0.0338278
0.0338364
0.0338415
0.0338441
0.0338451
0.0338454
0.0338455
0.0338459
0.0338465
0.0338474
0.0338484
0.0338494
0.0338503
0.0751595
0.0415094
0.036247
0.0346551
0.0340769
0.033866
0.0338008
0.0337926
0.0338038
0.0338184
0.0338307
0.033839
0.0338437
0.0338458
0.0338464
0.0338461
0.0338458
0.0338456
0.0338457
0.0338461
0.0338467
0.0338473
0.033848
0.0751763
0.041515
0.0362509
0.0346584
0.0340799
0.0338689
0.0338036
0.0337954
0.0338064
0.0338209
0.033833
0.0338411
0.0338456
0.0338474
0.0338476
0.033847
0.0338463
0.0338457
0.0338454
0.0338455
0.0338458
0.0338463
0.0338468
0.0751876
0.0415188
0.0362535
0.0346606
0.0340821
0.033871
0.0338057
0.0337974
0.0338083
0.0338228
0.0338348
0.0338427
0.0338471
0.0338487
0.0338487
0.0338479
0.0338469
0.0338461
0.0338456
0.0338454
0.0338456
0.0338459
0.0338462
0.0751951
0.0415213
0.0362552
0.0346621
0.0340835
0.0338725
0.0338072
0.0337988
0.0338098
0.0338242
0.0338361
0.033844
0.0338483
0.0338498
0.0338496
0.0338487
0.0338476
0.0338466
0.033846
0.0338457
0.0338457
0.0338459
0.0338462
0.0752001
0.0415229
0.0362563
0.0346632
0.0340845
0.0338735
0.0338082
0.0337999
0.0338109
0.0338253
0.0338372
0.0338451
0.0338492
0.0338507
0.0338505
0.0338494
0.0338482
0.0338471
0.0338464
0.033846
0.0338459
0.0338461
0.0338463
0.0752034
0.041524
0.0362571
0.0346639
0.0340852
0.0338742
0.033809
0.0338007
0.0338116
0.0338261
0.033838
0.0338458
0.03385
0.0338514
0.0338512
0.0338501
0.0338488
0.0338477
0.0338469
0.0338464
0.0338463
0.0338464
0.0338466
0.0752056
0.0415247
0.0362576
0.0346643
0.0340857
0.0338747
0.0338095
0.0338012
0.0338122
0.0338267
0.0338386
0.0338464
0.0338506
0.033852
0.0338517
0.0338506
0.0338493
0.0338481
0.0338473
0.0338468
0.0338467
0.0338467
0.033847
0.075207
0.0415251
0.0362579
0.0346646
0.034086
0.0338751
0.0338098
0.0338016
0.0338126
0.0338271
0.033839
0.0338469
0.033851
0.0338524
0.0338522
0.033851
0.0338497
0.0338485
0.0338477
0.0338472
0.033847
0.0338471
0.0338473
0.0752079
0.0415254
0.0362581
0.0346648
0.0340862
0.0338753
0.0338101
0.0338019
0.0338129
0.0338274
0.0338393
0.0338472
0.0338514
0.0338528
0.0338525
0.0338514
0.03385
0.0338488
0.033848
0.0338475
0.0338473
0.0338474
0.0338476
0.0752085
0.0415256
0.0362583
0.034665
0.0340864
0.0338754
0.0338103
0.0338021
0.0338131
0.0338276
0.0338396
0.0338474
0.0338516
0.033853
0.0338528
0.0338516
0.0338503
0.0338491
0.0338482
0.0338477
0.0338475
0.0338476
0.0338478
0.0752089
0.0415257
0.0362584
0.0346651
0.0340865
0.0338755
0.0338104
0.0338022
0.0338133
0.0338278
0.0338397
0.0338476
0.0338518
0.0338532
0.0338529
0.0338518
0.0338505
0.0338493
0.0338484
0.0338479
0.0338477
0.0338478
0.033848
0.0752091
0.0415258
0.0362584
0.0346651
0.0340865
0.0338756
0.0338105
0.0338023
0.0338134
0.0338279
0.0338398
0.0338477
0.0338519
0.0338534
0.0338531
0.033852
0.0338506
0.0338495
0.0338486
0.0338481
0.0338479
0.0338479
0.0338482
0.0752093
0.0415259
0.0362585
0.0346652
0.0340866
0.0338757
0.0338105
0.0338023
0.0338134
0.0338279
0.0338399
0.0338478
0.033852
0.0338535
0.0338532
0.0338521
0.0338508
0.0338496
0.0338487
0.0338482
0.033848
0.0338481
0.0338483
0.0752094
0.0415259
0.0362585
0.0346652
0.0340866
0.0338757
0.0338105
0.0338024
0.0338135
0.033828
0.03384
0.0338479
0.0338521
0.0338535
0.0338533
0.0338522
0.0338508
0.0338496
0.0338488
0.0338483
0.0338481
0.0338481
0.0338484
0.0752094
0.0415259
0.0362585
0.0346652
0.0340866
0.0338757
0.0338106
0.0338024
0.0338135
0.033828
0.03384
0.0338479
0.0338521
0.0338536
0.0338533
0.0338522
0.0338509
0.0338497
0.0338488
0.0338483
0.0338481
0.0338482
0.0338484
0.0752094
0.0415259
0.0362585
0.0346652
0.0340866
0.0338757
0.0338106
0.0338024
0.0338135
0.0338281
0.03384
0.033848
0.0338522
0.0338536
0.0338534
0.0338523
0.0338509
0.0338497
0.0338489
0.0338484
0.0338482
0.0338482
0.0338484
0.0752095
0.0415259
0.0362585
0.0346652
0.0340866
0.0338757
0.0338106
0.0338024
0.0338135
0.0338281
0.0338401
0.033848
0.0338522
0.0338536
0.0338534
0.0338523
0.0338509
0.0338498
0.0338489
0.0338484
0.0338482
0.0338482
0.0338485
0.0752095
0.0415259
0.0362585
0.0346652
0.0340866
0.0338757
0.0338106
0.0338024
0.0338135
0.0338281
0.0338401
0.033848
0.0338522
0.0338536
0.0338534
0.0338523
0.033851
0.0338498
0.0338489
0.0338484
0.0338482
0.0338483
0.0338485
0.0752095
0.0415259
0.0362585
0.0346652
0.0340867
0.0338757
0.0338106
0.0338024
0.0338135
0.0338281
0.0338401
0.033848
0.0338522
0.0338537
0.0338534
0.0338523
0.033851
0.0338498
0.0338489
0.0338484
0.0338482
0.0338483
0.0338485
0.0752095
0.0415259
0.0362585
0.0346652
0.0340867
0.0338757
0.0338106
0.0338024
0.0338135
0.0338281
0.0338401
0.033848
0.0338522
0.0338537
0.0338534
0.0338523
0.033851
0.0338498
0.0338489
0.0338484
0.0338482
0.0338482
0.0338485
0.0752095
0.0415259
0.0362585
0.0346652
0.0340867
0.0338757
0.0338106
0.0338024
0.0338136
0.0338281
0.0338401
0.033848
0.0338522
0.0338537
0.0338534
0.0338523
0.033851
0.0338498
0.0338489
0.0338484
0.0338482
0.0338482
0.0338484
0.0752095
0.0415259
0.0362585
0.0346652
0.0340867
0.0338757
0.0338106
0.0338024
0.0338136
0.0338281
0.0338401
0.033848
0.0338522
0.0338537
0.0338534
0.0338523
0.033851
0.0338498
0.0338489
0.0338484
0.0338482
0.0338482
0.0338484
0.157964
0.12341
0.123093
0.156247
0.0560915
0.0567191
0.0566841
0.0560102
0.0427581
0.0433089
0.0433013
0.0427385
0.0384915
0.0387082
0.0387052
0.0384827
0.0365707
0.0366624
0.0366607
0.0365659
0.0355604
0.0356038
0.0356027
0.0355572
0.0349763
0.0349989
0.034998
0.0349739
0.0346153
0.0346278
0.0346271
0.0346133
0.0343804
0.0343877
0.0343872
0.0343788
0.0342215
0.0342259
0.0342255
0.0342202
0.0341108
0.0341136
0.0341133
0.0341099
0.0340323
0.0340341
0.0340338
0.0340316
0.0339759
0.0339771
0.0339769
0.0339754
0.0339353
0.0339361
0.033936
0.033935
0.0339062
0.0339068
0.0339067
0.033906
0.0338855
0.0338859
0.0338859
0.0338855
0.0338711
0.0338714
0.0338715
0.0338712
0.0338613
0.0338616
0.0338616
0.0338615
0.0338548
0.0338551
0.0338552
0.0338551
0.0338508
0.033851
0.0338511
0.0338511
0.0338484
0.0338485
0.0338487
0.0338487
0.0338471
0.0338473
0.0338474
0.0338475
0.0338465
0.0338467
0.0338468
0.033847
0.0338464
0.0338466
0.0338468
0.0338469
0.0338466
0.0338468
0.0338469
0.033847
0.0338469
0.0338471
0.0338472
0.0338473
0.0338472
0.0338474
0.0338475
0.0338477
0.0338475
0.0338477
0.0338479
0.033848
0.0338478
0.033848
0.0338481
0.0338483
0.0338481
0.0338482
0.0338484
0.0338485
0.0338483
0.0338484
0.0338486
0.0338487
0.0338484
0.0338486
0.0338487
0.0338489
0.0338485
0.0338487
0.0338488
0.033849
0.0338486
0.0338488
0.0338489
0.0338491
0.0338487
0.0338488
0.033849
0.0338491
0.0338487
0.0338489
0.033849
0.0338491
0.0338487
0.0338489
0.033849
0.0338492
0.0338487
0.0338489
0.033849
0.0338492
0.0338487
0.0338489
0.033849
0.0338491
0.0338487
0.0338488
0.033849
0.0338491
0.0338487
0.0338488
0.033849
0.0338491
0.0338487
0.0338488
0.0338489
0.0338491
0.0619034
0.0418977
0.0358646
0.0338769
0.0332482
0.0330996
0.033095
0.0330931
0.0330301
0.0328733
0.0326018
0.0321982
0.0316468
0.0309379
0.0300825
0.0291552
0.0284404
0.0292032
0.0440351
0.0468276
0.0395913
0.0360278
0.0343812
0.0336567
0.0333543
0.0332254
0.0331446
0.0330464
0.0328945
0.0326658
0.032344
0.0319182
0.0313876
0.0307788
0.0301926
0.0299719
0.0315965
0.0496209
0.0406747
0.0377225
0.0357194
0.0345483
0.0339137
0.0335816
0.0334007
0.0332794
0.0331632
0.0330185
0.0328238
0.0325647
0.0322341
0.031838
0.0314137
0.0310816
0.0312311
0.0335226
0.0541544
0.0377821
0.0364454
0.0353213
0.0345387
0.0340436
0.0337428
0.033555
0.0334211
0.0333009
0.033167
0.0330011
0.0327915
0.0325344
0.0322408
0.0319558
0.031815
0.0322458
0.0350609
0.0578252
0.03627
0.0356099
0.0349667
0.0344557
0.0340907
0.0338423
0.0336711
0.0335421
0.0334277
0.0333075
0.0331669
0.0329972
0.0327972
0.0325819
0.0324024
0.0324063
0.0330524
0.0362802
0.0607821
0.0354137
0.0350635
0.034685
0.0343523
0.0340908
0.0338959
0.0337507
0.0336356
0.0335328
0.0334278
0.0333097
0.0331723
0.0330169
0.0328615
0.0327619
0.0328754
0.0336864
0.0372392
0.0631473
0.0348973
0.0347
0.0344705
0.0342525
0.0340674
0.0339191
0.0338012
0.0337036
0.033615
0.0335254
0.0334271
0.0333159
0.0331954
0.0330858
0.0330466
0.0332427
0.0341797
0.0379868
0.0650232
0.0345695
0.0344526
0.0343093
0.0341649
0.0340345
0.0339237
0.0338309
0.0337509
0.0336769
0.033602
0.0335207
0.0334309
0.0333376
0.0332628
0.033269
0.0335272
0.0345598
0.0385643
0.0664971
0.0343523
0.0342803
0.0341885
0.0340916
0.0339999
0.0339181
0.0338466
0.0337827
0.0337223
0.0336606
0.0335939
0.0335213
0.0334491
0.0334007
0.0334408
0.0337453
0.0348499
0.0390061
0.0676434
0.0342035
0.0341577
0.0340976
0.034032
0.0339674
0.0339076
0.0338535
0.0338036
0.0337552
0.033705
0.0336504
0.0335915
0.0335356
0.033507
0.0335724
0.033911
0.0350692
0.0393407
0.0685254
0.034099
0.0340691
0.0340292
0.0339844
0.033939
0.0338957
0.0338553
0.033817
0.0337789
0.0337384
0.0336937
0.0336456
0.0336021
0.0335884
0.0336722
0.0340358
0.0352334
0.0395915
0.0691966
0.0340244
0.0340045
0.0339777
0.033947
0.0339153
0.0338843
0.0338547
0.0338257
0.0337959
0.0337634
0.0337267
0.0336871
0.033653
0.0336501
0.0337473
0.034129
0.0353552
0.0397776
0.0697017
0.0339706
0.0339573
0.0339392
0.0339182
0.0338963
0.0338744
0.033853
0.0338315
0.0338084
0.0337823
0.0337518
0.0337187
0.0336916
0.0336967
0.0338035
0.034198
0.0354448
0.0399143
0.0700778
0.0339317
0.0339228
0.0339106
0.0338965
0.0338815
0.0338664
0.0338513
0.0338355
0.0338178
0.0337966
0.033771
0.0337428
0.0337209
0.0337317
0.0338453
0.0342487
0.03551
0.0400137
0.0703547
0.0339039
0.0338979
0.0338898
0.0338804
0.0338705
0.0338604
0.03385
0.0338386
0.033825
0.0338076
0.0337858
0.0337612
0.033743
0.0337579
0.0338761
0.0342857
0.0355572
0.0400852
0.0705564
0.0338841
0.0338802
0.033875
0.0338689
0.0338626
0.0338561
0.0338493
0.0338412
0.0338307
0.0338162
0.0337971
0.0337752
0.0337597
0.0337773
0.0338987
0.0343125
0.035591
0.0401362
0.0707019
0.0338703
0.0338679
0.0338646
0.033861
0.0338572
0.0338534
0.0338491
0.0338435
0.0338353
0.033823
0.0338059
0.0337859
0.0337722
0.0337917
0.0339152
0.0343318
0.035615
0.0401723
0.0708058
0.033861
0.0338595
0.0338576
0.0338557
0.0338538
0.0338519
0.0338495
0.0338457
0.0338391
0.0338284
0.0338127
0.033794
0.0337816
0.0338023
0.0339272
0.0343455
0.0356319
0.0401976
0.0708793
0.0338548
0.033854
0.0338532
0.0338524
0.0338518
0.0338512
0.0338502
0.0338477
0.0338423
0.0338327
0.033818
0.0338002
0.0337886
0.0338101
0.0339358
0.0343553
0.0356437
0.0402151
0.0709308
0.033851
0.0338507
0.0338505
0.0338505
0.0338508
0.0338512
0.0338511
0.0338495
0.033845
0.0338361
0.0338221
0.0338049
0.0337938
0.0338158
0.0339421
0.0343622
0.035652
0.0402272
0.0709665
0.0338487
0.0338488
0.033849
0.0338496
0.0338506
0.0338516
0.0338522
0.0338512
0.0338473
0.0338389
0.0338253
0.0338085
0.0337977
0.03382
0.0339465
0.0343671
0.0356576
0.0402355
0.0709912
0.0338476
0.0338478
0.0338484
0.0338494
0.0338508
0.0338523
0.0338533
0.0338527
0.0338491
0.0338411
0.0338277
0.0338112
0.0338005
0.033823
0.0339496
0.0343704
0.0356615
0.0402411
0.071008
0.0338471
0.0338475
0.0338483
0.0338495
0.0338512
0.033853
0.0338543
0.033854
0.0338506
0.0338428
0.0338296
0.0338132
0.0338026
0.0338252
0.0339519
0.0343728
0.0356642
0.0402449
0.0710195
0.0338471
0.0338476
0.0338485
0.0338499
0.0338517
0.0338537
0.0338552
0.0338551
0.0338519
0.0338441
0.0338311
0.0338147
0.0338042
0.0338267
0.0339534
0.0343744
0.035666
0.0402474
0.0710272
0.0338473
0.0338478
0.0338488
0.0338503
0.0338523
0.0338544
0.033856
0.0338559
0.0338529
0.0338452
0.0338322
0.0338158
0.0338053
0.0338278
0.0339545
0.0343755
0.0356672
0.0402491
0.0710323
0.0338476
0.0338482
0.0338492
0.0338508
0.0338528
0.033855
0.0338567
0.0338567
0.0338536
0.033846
0.033833
0.0338166
0.0338061
0.0338286
0.0339553
0.0343762
0.035668
0.0402502
0.0710357
0.0338479
0.0338485
0.0338496
0.0338512
0.0338533
0.0338555
0.0338572
0.0338572
0.0338542
0.0338466
0.0338336
0.0338172
0.0338067
0.0338291
0.0339558
0.0343767
0.0356685
0.040251
0.071038
0.0338482
0.0338489
0.03385
0.0338516
0.0338537
0.0338559
0.0338576
0.0338577
0.0338547
0.033847
0.033834
0.0338176
0.0338071
0.0338295
0.0339562
0.0343771
0.0356689
0.0402514
0.0710394
0.0338485
0.0338492
0.0338503
0.0338519
0.033854
0.0338563
0.033858
0.033858
0.033855
0.0338474
0.0338343
0.0338179
0.0338073
0.0338298
0.0339564
0.0343773
0.0356691
0.0402517
0.0710404
0.0338488
0.0338494
0.0338505
0.0338522
0.0338543
0.0338565
0.0338582
0.0338583
0.0338553
0.0338476
0.0338346
0.0338181
0.0338075
0.03383
0.0339566
0.0343775
0.0356693
0.0402519
0.071041
0.033849
0.0338496
0.0338507
0.0338524
0.0338545
0.0338567
0.0338584
0.0338585
0.0338555
0.0338478
0.0338347
0.0338183
0.0338077
0.0338301
0.0339567
0.0343776
0.0356694
0.0402521
0.0710414
0.0338491
0.0338498
0.0338509
0.0338525
0.0338546
0.0338569
0.0338586
0.0338586
0.0338556
0.0338479
0.0338348
0.0338184
0.0338078
0.0338302
0.0339567
0.0343776
0.0356694
0.0402522
0.0710417
0.0338492
0.0338499
0.033851
0.0338526
0.0338548
0.033857
0.0338587
0.0338587
0.0338557
0.033848
0.0338349
0.0338184
0.0338078
0.0338302
0.0339568
0.0343777
0.0356695
0.0402522
0.0710418
0.0338493
0.03385
0.0338511
0.0338527
0.0338548
0.0338571
0.0338588
0.0338588
0.0338557
0.0338481
0.033835
0.0338185
0.0338079
0.0338302
0.0339568
0.0343777
0.0356695
0.0402522
0.0710419
0.0338493
0.03385
0.0338511
0.0338528
0.0338549
0.0338571
0.0338588
0.0338588
0.0338558
0.0338481
0.033835
0.0338185
0.0338079
0.0338303
0.0339568
0.0343777
0.0356695
0.0402523
0.071042
0.0338494
0.03385
0.0338512
0.0338528
0.0338549
0.0338572
0.0338588
0.0338589
0.0338558
0.0338481
0.033835
0.0338185
0.0338079
0.0338303
0.0339569
0.0343777
0.0356695
0.0402523
0.071042
0.0338494
0.0338501
0.0338512
0.0338528
0.0338549
0.0338572
0.0338589
0.0338589
0.0338558
0.0338481
0.0338351
0.0338186
0.0338079
0.0338303
0.0339569
0.0343777
0.0356695
0.0402523
0.0710421
0.0338494
0.0338501
0.0338512
0.0338528
0.033855
0.0338572
0.0338589
0.0338589
0.0338558
0.0338482
0.0338351
0.0338186
0.0338079
0.0338303
0.0339569
0.0343777
0.0356695
0.0402523
0.0710421
0.0338494
0.0338501
0.0338512
0.0338528
0.033855
0.0338572
0.0338589
0.0338589
0.0338559
0.0338482
0.0338351
0.0338186
0.0338079
0.0338303
0.0339569
0.0343777
0.0356695
0.0402523
0.0710421
0.0338494
0.0338501
0.0338512
0.0338528
0.033855
0.0338572
0.0338589
0.0338589
0.0338559
0.0338482
0.0338351
0.0338186
0.033808
0.0338303
0.0339569
0.0343777
0.0356695
0.0402523
0.0710421
0.0338494
0.03385
0.0338512
0.0338528
0.033855
0.0338572
0.0338589
0.0338589
0.0338559
0.0338482
0.0338351
0.0338186
0.033808
0.0338303
0.0339569
0.0343777
0.0356695
0.0402523
0.0710421
0.0338494
0.03385
0.0338512
0.0338528
0.033855
0.0338572
0.0338589
0.0338589
0.0338559
0.0338482
0.0338351
0.0338186
0.033808
0.0338303
0.0339569
0.0343777
0.0356695
0.0402523
0.0710421
)
;

boundaryField
{
    leftWall
    {
        type            epsilonWallFunction;
        blending        stepwise;
        value           nonuniform List<scalar> 
50
(
0.00606319
0.0106443
0.0170755
0.0229735
0.0282329
0.0329317
0.037154
0.0409661
0.046411
0.0523685
0.0572101
0.0611341
0.0642968
0.0668269
0.0688329
0.0704075
0.0716303
0.072569
0.0732815
0.0738159
0.074212
0.0745024
0.0747129
0.0748638
0.0749709
0.0750462
0.0750986
0.0751347
0.0751595
0.0751763
0.0751876
0.0751951
0.0752001
0.0752034
0.0752056
0.075207
0.0752079
0.0752085
0.0752089
0.0752091
0.0752093
0.0752094
0.0752094
0.0752094
0.0752095
0.0752095
0.0752095
0.0752095
0.0752095
0.0752095
)
;
    }
    rightWall
    {
        type            epsilonWallFunction;
        blending        stepwise;
        value           nonuniform List<scalar> 
50
(
0.00663755
0.0104785
0.0164774
0.0220066
0.0269509
0.0313706
0.0353407
0.0389229
0.0440351
0.0496209
0.0541544
0.0578252
0.0607821
0.0631473
0.0650232
0.0664971
0.0676434
0.0685254
0.0691966
0.0697017
0.0700778
0.0703547
0.0705564
0.0707019
0.0708058
0.0708793
0.0709308
0.0709665
0.0709912
0.071008
0.0710195
0.0710272
0.0710323
0.0710357
0.071038
0.0710394
0.0710404
0.071041
0.0710414
0.0710417
0.0710418
0.0710419
0.071042
0.071042
0.0710421
0.0710421
0.0710421
0.0710421
0.0710421
0.0710421
)
;
    }
    lowerWall
    {
        type            epsilonWallFunction;
        blending        stepwise;
        value           nonuniform List<scalar> 
62
(
0.00606319
0.0258956
0.0427513
0.0564689
0.0677116
0.0769397
0.0844805
0.0905805
0.0954308
0.0991796
0.101938
0.103781
0.104745
0.104819
0.103936
0.10195
0.0985982
0.0934439
0.0857797
0.0745079
0.0580976
0.0350246
0.00666042
0.00666042
0.0132035
0.0227615
0.0323695
0.0424646
0.0547403
0.0750853
0.128498
0.157964
0.12341
0.123093
0.156247
0.00726214
0.0128179
0.0217597
0.0308086
0.0404148
0.0523304
0.0723506
0.122576
0.00726214
0.0382194
0.0621995
0.0783403
0.0887711
0.0953267
0.0991912
0.101058
0.101308
0.100127
0.0975734
0.0936113
0.0881299
0.0809477
0.0718054
0.0603413
0.046038
0.028144
0.00663755
)
;
    }
    atmosphere
    {
        type            inletOutlet;
        inletValue      uniform 0.1;
        value           nonuniform List<scalar> 
46
(
0.0752095
0.0415259
0.0362585
0.0346652
0.0340867
0.0338757
0.0338106
0.0338024
0.0338136
0.0338281
0.0338401
0.033848
0.0338522
0.0338537
0.0338534
0.0338523
0.033851
0.0338498
0.0338489
0.0338484
0.0338482
0.0338482
0.0338484
0.0338487
0.0338488
0.0338489
0.0338491
0.0338494
0.03385
0.0338512
0.0338528
0.033855
0.0338572
0.0338589
0.0338589
0.0338559
0.0338482
0.0338351
0.0338186
0.033808
0.0338303
0.0339569
0.0343777
0.0356695
0.0402523
0.0710421
)
;
    }
    defaultFaces
    {
        type            empty;
    }
}


// ************************************************************************* //
