/*--------------------------------*- C++ -*----------------------------------*\
| =========                 |                                                 |
| \\      /  F ield         | OpenFOAM: The Open Source CFD Toolbox           |
|  \\    /   O peration     | Version:  2406                                  |
|   \\  /    A nd           | Website:  www.openfoam.com                      |
|    \\/     M anipulation  |                                                 |
\*---------------------------------------------------------------------------*/
FoamFile
{
    version     2.0;
    format      ascii;
    arch        "LSB;label=32;scalar=64";
    class       volScalarField;
    location    "0.75";
    object      k;
}
// * * * * * * * * * * * * * * * * * * * * * * * * * * * * * * * * * * * * * //

dimensions      [0 2 -2 0 0 0 0];

internalField   nonuniform List<scalar> 
2268
(
0.00149712
0.00322997
0.0045186
0.00544618
0.00615342
0.00670693
0.00714459
0.00749053
0.00776125
0.00796835
0.00811998
0.00822144
0.00827541
0.00828176
0.00823695
0.00813278
0.00795409
0.00767442
0.00724826
0.0065972
0.00558656
0.00398284
0.00131079
0.00293408
0.00741527
0.0101279
0.0121056
0.013621
0.0148086
0.0157477
0.0164896
0.0170699
0.0175136
0.0178385
0.018056
0.018172
0.0181863
0.0180915
0.0178703
0.0174908
0.016898
0.0159984
0.0146325
0.0125308
0.00923275
0.00341529
0.00402806
0.00979322
0.0131214
0.0155536
0.0174276
0.0189017
0.0200702
0.0209951
0.0217198
0.0222751
0.0226828
0.0229572
0.0231057
0.0231284
0.0230164
0.0227493
0.0222896
0.021573
0.0204906
0.0188571
0.0163517
0.0123764
0.00491973
0.00491496
0.011593
0.0153111
0.0180187
0.0201126
0.0217656
0.0230797
0.0241224
0.0249413
0.0255704
0.0260341
0.0263484
0.0265217
0.0265545
0.026438
0.0261509
0.0256545
0.0248824
0.023723
0.0219836
0.019314
0.0149729
0.00622952
0.00564405
0.013082
0.0171014
0.0200081
0.0222597
0.0240425
0.0254638
0.0265946
0.027485
0.0281713
0.0286794
0.0290266
0.0292224
0.0292678
0.0291549
0.028863
0.0283547
0.0275661
0.0263899
0.0246375
0.0219425
0.0174122
0.0074728
0.00625866
0.0143561
0.0186312
0.0216976
0.0240729
0.0259576
0.0274641
0.0286658
0.0296149
0.030349
0.0308952
0.0312719
0.0314895
0.0315502
0.031447
0.0311613
0.0306586
0.0298806
0.0287295
0.0270309
0.0244232
0.0198928
0.0088596
0.00678717
0.0154654
0.0199671
0.0231699
0.025648
0.0276172
0.0291947
0.0304565
0.0314559
0.0322317
0.0328122
0.0332166
0.0334562
0.0335345
0.0334461
0.033175
0.032691
0.0319435
0.030848
0.0292541
0.0268382
0.0225814
0.0109486
0.00724813
0.0164414
0.021148
0.0244717
0.0270392
0.0290811
0.03072
0.0320341
0.033078
0.0338915
0.0345037
0.0349346
0.0351967
0.0352947
0.0352253
0.0349755
0.0345202
0.0338175
0.0327988
0.0313449
0.0292054
0.0255916
0.0156812
0.00138785
0.00422104
0.00584503
0.00681879
0.00741171
0.0077716
0.00797878
0.00807635
0.00808668
0.00801997
0.00787853
0.00765862
0.00735096
0.0069399
0.00640079
0.00569382
0.00474831
0.00341484
0.00162439
0.00358946
0.0097147
0.0130628
0.0150921
0.0163383
0.0170991
0.0175383
0.0177451
0.0177662
0.0176228
0.0173197
0.0168485
0.016189
0.0153074
0.0141509
0.0126353
0.0106158
0.00779862
0.00311296
0.00511833
0.0129521
0.0169778
0.0193961
0.0208871
0.0218018
0.0223305
0.022577
0.0225958
0.0224119
0.0220304
0.0214407
0.0206177
0.0195198
0.0180829
0.016206
0.0137177
0.0102571
0.0042176
0.00646259
0.0156008
0.0199723
0.0225433
0.0241302
0.0251085
0.0256743
0.0259339
0.0259432
0.0257278
0.0252919
0.0246233
0.0236939
0.0224577
0.0208443
0.0187442
0.0159705
0.0121052
0.00512166
0.00775268
0.0180728
0.0225971
0.0251833
0.0267804
0.0277702
0.0283425
0.0285988
0.0285926
0.0283478
0.0278673
0.0271372
0.026127
0.0247879
0.0230456
0.0207846
0.0178049
0.0136303
0.00586826
0.00921928
0.020564
0.0250439
0.0275374
0.0290835
0.0300486
0.0306056
0.0308465
0.0308195
0.0305454
0.0300251
0.0292428
0.0281663
0.0267445
0.0249001
0.0225129
0.0193692
0.0149347
0.00649851
0.011454
0.0232219
0.0273946
0.0297014
0.0311513
0.0320649
0.0325904
0.0328064
0.0327539
0.0324497
0.0318921
0.0310635
0.0299298
0.0284383
0.026509
0.0240168
0.020734
0.0160703
0.00704057
0.0162957
0.0261275
0.0296708
0.0317191
0.0330414
0.0338849
0.0343668
0.0345503
0.0344685
0.0341331
0.0335398
0.0326686
0.0314841
0.0299315
0.0279288
0.0253456
0.0219401
0.0170698
0.00751323
0.00788358
0.0177938
0.0227923
0.0262876
0.0289796
0.0311221
0.032846
0.034233
0.0353397
0.0362074
0.0368661
0.0373374
0.0376355
0.0377672
0.0377327
0.0375241
0.037125
0.0365077
0.0356294
0.0344214
0.0327601
0.0303662
0.0263966
0.00855376
0.0192332
0.0245592
0.0282503
0.0310834
0.0333388
0.0351579
0.0366276
0.0378071
0.0387394
0.0394561
0.0399807
0.0403297
0.0405133
0.0405363
0.0403981
0.0400931
0.0396109
0.0389365
0.038051
0.0369302
0.0355408
0.0338389
0.0090822
0.020374
0.0259713
0.0298296
0.0327849
0.0351382
0.0370404
0.0385828
0.0398273
0.0408186
0.04159
0.0421668
0.0425676
0.042806
0.0428909
0.0428279
0.0426198
0.0422686
0.0417773
0.0411536
0.0404154
0.0396019
0.038798
0.00950168
0.0212834
0.0271053
0.0311066
0.0341688
0.0366088
0.0385852
0.0401933
0.0414972
0.0425433
0.0433666
0.0439941
0.0444464
0.0447397
0.0448867
0.0448973
0.0447806
0.0445461
0.0442062
0.0437796
0.0432959
0.0428013
0.0423668
0.00983507
0.0220091
0.0280168
0.0321404
0.035296
0.0378134
0.0398567
0.0415245
0.0428831
0.0439805
0.044853
0.045529
0.0460312
0.0463778
0.0465841
0.0466635
0.0466287
0.0464935
0.0462743
0.0459927
0.0456774
0.0453665
0.0451069
0.0100994
0.0225872
0.0287482
0.0329758
0.0362131
0.0387993
0.040903
0.0426254
0.0440345
0.0451796
0.0460983
0.0468204
0.0473699
0.0477667
0.0480282
0.0481697
0.0482064
0.0481539
0.0480298
0.0478549
0.0476539
0.0474558
0.0472913
0.010308
0.0230458
0.0293329
0.0336486
0.036957
0.0396041
0.0417622
0.0435343
0.0449897
0.046179
0.0471408
0.0479059
0.0484995
0.0489428
0.0492544
0.0494512
0.0495493
0.0495651
0.0495158
0.0494205
0.0492999
0.0491758
0.0490691
0.0104714
0.0234075
0.0297979
0.034188
0.0375578
0.0402587
0.0424653
0.0442822
0.0457799
0.0470098
0.0480113
0.0488161
0.0494502
0.0499359
0.0502924
0.0505376
0.0506881
0.0507601
0.0507702
0.0507354
0.0506731
0.0506002
0.0505317
0.0105984
0.0236908
0.0301653
0.0346178
0.0380403
0.0407882
0.0430379
0.044895
0.046431
0.0476977
0.0487355
0.0495764
0.0502473
0.050771
0.0511674
0.0514547
0.0516495
0.0517679
0.0518255
0.0518376
0.0518189
0.051783
0.0517411
0.0106962
0.0239108
0.0304534
0.034958
0.0384254
0.0412141
0.0435016
0.0453945
0.0469646
0.0482646
0.0493349
0.0502085
0.0509124
0.0514699
0.0519013
0.0522249
0.0524572
0.052614
0.05271
0.0527589
0.0527735
0.0527652
0.0527428
0.0107708
0.0240802
0.0306776
0.0352251
0.0387306
0.0415543
0.0438748
0.0457991
0.0473995
0.0487289
0.0498284
0.050731
0.0514642
0.0520514
0.0525133
0.0528681
0.0531321
0.0533207
0.0534478
0.0535259
0.0535666
0.0535793
0.0535715
0.0108271
0.0242094
0.0308505
0.0354333
0.0389707
0.0418241
0.044173
0.0461245
0.0477514
0.0491068
0.050232
0.0511601
0.051919
0.0525323
0.0530205
0.0534018
0.0536926
0.0539076
0.05406
0.0541616
0.0542228
0.0542519
0.0542553
0.0108691
0.024307
0.0309826
0.0355942
0.0391579
0.0420364
0.0444094
0.0463844
0.0480343
0.0494122
0.0505597
0.0515101
0.0522914
0.0529271
0.0534379
0.0538418
0.054155
0.0543918
0.0545649
0.0546855
0.054763
0.054805
0.0548171
0.0109002
0.02438
0.0310827
0.0357173
0.0393027
0.0422021
0.0445954
0.0465904
0.0482598
0.0496571
0.0508239
0.0517935
0.0525939
0.0532488
0.0537788
0.0542019
0.0545338
0.0547887
0.0549787
0.0551146
0.0552052
0.0552575
0.0552764
0.0109229
0.0244341
0.0311577
0.0358107
0.0394137
0.0423303
0.0447405
0.0467522
0.0484382
0.049852
0.0510351
0.052021
0.0528378
0.053509
0.0540552
0.0544942
0.0548417
0.0551115
0.0553154
0.0554637
0.0555648
0.0556252
0.0556495
0.0109393
0.0244737
0.0312135
0.035881
0.039498
0.0424286
0.0448527
0.0468783
0.0485781
0.0500057
0.0512026
0.0522023
0.0530327
0.0537176
0.0542773
0.0547296
0.05509
0.055372
0.0555872
0.0557456
0.0558551
0.055922
0.0559506
0.0109511
0.0245025
0.0312546
0.0359333
0.0395615
0.0425033
0.0449387
0.0469756
0.0486868
0.0501259
0.0513342
0.0523454
0.0531872
0.0538835
0.0544544
0.0549177
0.0552886
0.0555806
0.0558049
0.0559714
0.0560876
0.0561597
0.0561917
0.0109594
0.0245232
0.0312845
0.035972
0.0396089
0.0425596
0.0450041
0.0470502
0.0487707
0.050219
0.0514367
0.0524573
0.0533086
0.0540142
0.0545943
0.0550665
0.0554461
0.0557461
0.0559779
0.0561508
0.0562725
0.0563486
0.0563833
0.0109653
0.024538
0.0313062
0.0360003
0.039644
0.0426016
0.0450533
0.0471067
0.0488347
0.0502906
0.0515159
0.0525442
0.0534031
0.0541163
0.0547038
0.0551833
0.0555698
0.0558763
0.056114
0.0562921
0.0564181
0.0564975
0.0565342
0.0109694
0.0245485
0.0313217
0.0360208
0.0396697
0.0426327
0.04509
0.0471492
0.0488831
0.0503451
0.0515765
0.0526109
0.053476
0.0541952
0.0547888
0.0552741
0.0556662
0.0559779
0.0562203
0.0564025
0.0565318
0.0566138
0.0566522
0.0109722
0.0245558
0.0313327
0.0360356
0.0396884
0.0426556
0.0451172
0.0471809
0.0489194
0.0503862
0.0516225
0.0526617
0.0535317
0.0542558
0.0548542
0.0553441
0.0557405
0.0560563
0.0563024
0.0564879
0.0566199
0.0567039
0.0567435
0.0109741
0.0245609
0.0313405
0.0360461
0.0397018
0.0426722
0.0451371
0.0472043
0.0489464
0.0504169
0.051657
0.0527001
0.0535739
0.0543018
0.0549039
0.0553975
0.0557974
0.0561164
0.0563654
0.0565534
0.0566874
0.056773
0.0568136
0.0109755
0.0245644
0.0313459
0.0360535
0.0397114
0.0426841
0.0451516
0.0472214
0.0489664
0.0504396
0.0516827
0.0527287
0.0536055
0.0543365
0.0549415
0.0554378
0.0558404
0.056162
0.0564132
0.0566031
0.0567388
0.0568255
0.0568669
0.0109763
0.0245668
0.0313497
0.0360587
0.0397182
0.0426927
0.045162
0.0472339
0.0489809
0.0504564
0.0517016
0.05275
0.0536291
0.0543623
0.0549696
0.0554681
0.0558728
0.0561962
0.0564492
0.0566406
0.0567775
0.0568651
0.0569071
0.0109769
0.0245684
0.0313523
0.0360624
0.039723
0.0426988
0.0451695
0.0472428
0.0489914
0.0504685
0.0517155
0.0527656
0.0536464
0.0543814
0.0549904
0.0554906
0.0558968
0.0562217
0.056476
0.0566685
0.0568063
0.0568947
0.0569371
0.0109773
0.0245695
0.0313541
0.0360649
0.0397264
0.042703
0.0451748
0.0472492
0.048999
0.0504773
0.0517255
0.0527769
0.0536591
0.0543954
0.0550057
0.0555071
0.0559145
0.0562405
0.0564958
0.0566892
0.0568277
0.0569166
0.0569593
0.0109776
0.0245703
0.0313553
0.0360666
0.0397287
0.042706
0.0451785
0.0472537
0.0490044
0.0504836
0.0517328
0.0527851
0.0536683
0.0544055
0.0550168
0.0555192
0.0559275
0.0562543
0.0565103
0.0567043
0.0568434
0.0569326
0.0569756
0.0109778
0.0245707
0.0313561
0.0360678
0.0397303
0.0427081
0.0451811
0.0472569
0.0490082
0.0504881
0.0517379
0.052791
0.0536749
0.0544129
0.0550248
0.0555279
0.0559369
0.0562643
0.0565208
0.0567153
0.0568548
0.0569443
0.0569874
0.0109779
0.0245711
0.0313566
0.0360686
0.0397314
0.0427095
0.0451829
0.0472591
0.0490108
0.0504912
0.0517416
0.0527952
0.0536796
0.0544181
0.0550306
0.0555342
0.0559436
0.0562715
0.0565284
0.0567233
0.056863
0.0569527
0.056996
0.010978
0.0245713
0.031357
0.0360691
0.0397321
0.0427105
0.0451841
0.0472607
0.0490127
0.0504934
0.0517441
0.0527981
0.0536829
0.0544218
0.0550346
0.0555386
0.0559484
0.0562766
0.0565338
0.0567289
0.0568688
0.0569587
0.0570021
0.010978
0.0245714
0.0313572
0.0360695
0.0397326
0.0427111
0.045185
0.0472617
0.049014
0.0504949
0.0517459
0.0528002
0.0536852
0.0544244
0.0550375
0.0555417
0.0559518
0.0562802
0.0565377
0.0567329
0.056873
0.056963
0.0570064
0.010978
0.0245715
0.0313574
0.0360697
0.039733
0.0427116
0.0451856
0.0472624
0.0490148
0.050496
0.0517472
0.0528016
0.0536868
0.0544262
0.0550395
0.0555439
0.0559541
0.0562827
0.0565404
0.0567357
0.0568759
0.056966
0.0570094
0.0109781
0.0245716
0.0313575
0.0360699
0.0397332
0.0427119
0.0451859
0.0472629
0.0490154
0.0504967
0.051748
0.0528026
0.053688
0.0544274
0.0550409
0.0555455
0.0559558
0.0562845
0.0565422
0.0567377
0.0568779
0.0569681
0.0570115
0.0109781
0.0245716
0.0313576
0.03607
0.0397333
0.0427121
0.0451862
0.0472632
0.0490158
0.0504972
0.0517486
0.0528032
0.0536887
0.0544283
0.0550419
0.0555465
0.0559569
0.0562857
0.0565435
0.0567391
0.0568793
0.0569695
0.057013
0.0109781
0.0245716
0.0313576
0.03607
0.0397334
0.0427122
0.0451864
0.0472635
0.0490161
0.0504975
0.051749
0.0528037
0.0536892
0.0544289
0.0550425
0.0555472
0.0559577
0.0562866
0.0565444
0.05674
0.0568803
0.0569705
0.057014
0.0109781
0.0245717
0.0313576
0.0360701
0.0397335
0.0427123
0.0451865
0.0472636
0.0490163
0.0504977
0.0517492
0.052804
0.0536896
0.0544293
0.055043
0.0555477
0.0559582
0.0562871
0.056545
0.0567406
0.0568809
0.0569711
0.0570147
0.0109781
0.0245717
0.0313577
0.0360701
0.0397335
0.0427123
0.0451866
0.0472637
0.0490164
0.0504979
0.0517494
0.0528042
0.0536898
0.0544295
0.0550432
0.055548
0.0559586
0.0562875
0.0565454
0.056741
0.0568814
0.0569716
0.0570151
0.0109781
0.0245717
0.0313577
0.0360701
0.0397335
0.0427124
0.0451866
0.0472638
0.0490165
0.050498
0.0517495
0.0528043
0.05369
0.0544297
0.0550434
0.0555482
0.0559588
0.0562877
0.0565457
0.0567413
0.0568816
0.0569719
0.0570154
0.0109781
0.0245717
0.0313577
0.0360701
0.0397336
0.0427124
0.0451866
0.0472638
0.0490165
0.050498
0.0517496
0.0528044
0.0536901
0.0544298
0.0550436
0.0555484
0.055959
0.0562879
0.0565458
0.0567415
0.0568818
0.0569721
0.0570156
0.0109781
0.0245717
0.0313577
0.0360701
0.0397336
0.0427124
0.0451867
0.0472638
0.0490166
0.0504981
0.0517496
0.0528045
0.0536901
0.0544299
0.0550436
0.0555485
0.0559591
0.056288
0.0565459
0.0567416
0.0568819
0.0569722
0.0570157
0.0109781
0.0245717
0.0313577
0.0360701
0.0397336
0.0427124
0.0451867
0.0472638
0.0490166
0.0504981
0.0517496
0.0528045
0.0536902
0.0544299
0.0550437
0.0555485
0.0559591
0.0562881
0.056546
0.0567416
0.056882
0.0569722
0.0570157
0.0109781
0.0245717
0.0313577
0.0360701
0.0397336
0.0427124
0.0451867
0.0472639
0.0490166
0.0504981
0.0517497
0.0528045
0.0536902
0.05443
0.0550437
0.0555485
0.0559591
0.0562881
0.056546
0.0567417
0.056882
0.0569722
0.0570158
0.0180804
0.015343
0.015316
0.0179467
0.0323944
0.0318052
0.0317882
0.0323437
0.0383556
0.0381835
0.0381696
0.0383146
0.0421645
0.0420882
0.0420744
0.0421231
0.0449905
0.0449448
0.0449306
0.0449476
0.0472154
0.0471831
0.0471682
0.0471706
0.0490158
0.0489907
0.0489752
0.0489691
0.0504927
0.050472
0.0504559
0.0504441
0.0517118
0.051694
0.0516773
0.0516615
0.0527204
0.0527045
0.0526872
0.0526684
0.0535541
0.0535397
0.0535219
0.0535006
0.0542417
0.0542282
0.0542099
0.0541867
0.0548064
0.0547936
0.0547749
0.0547501
0.0552679
0.0552556
0.0552366
0.0552104
0.0556427
0.0556308
0.0556114
0.0555843
0.0559451
0.0559335
0.0559138
0.0558858
0.0561872
0.0561759
0.0561559
0.0561272
0.0563796
0.0563684
0.0563483
0.056319
0.0565312
0.0565201
0.0564998
0.05647
0.0566496
0.0566387
0.0566182
0.056588
0.0567413
0.0567304
0.0567098
0.0566794
0.0568117
0.0568008
0.0567801
0.0567494
0.0568652
0.0568544
0.0568336
0.0568027
0.0569056
0.0568947
0.0568739
0.0568429
0.0569357
0.0569249
0.056904
0.0568729
0.056958
0.0569472
0.0569262
0.056895
0.0569743
0.0569635
0.0569426
0.0569113
0.0569862
0.0569754
0.0569544
0.0569231
0.0569948
0.056984
0.056963
0.0569316
0.0570009
0.0569901
0.0569691
0.0569377
0.0570053
0.0569945
0.0569734
0.056942
0.0570083
0.0569975
0.0569765
0.0569451
0.0570104
0.0569996
0.0569786
0.0569472
0.0570119
0.0570011
0.0569801
0.0569486
0.0570129
0.0570021
0.0569811
0.0569496
0.0570136
0.0570028
0.0569817
0.0569503
0.057014
0.0570032
0.0569822
0.0569507
0.0570143
0.0570035
0.0569825
0.056951
0.0570145
0.0570037
0.0569826
0.0569512
0.0570146
0.0570038
0.0569827
0.0569513
0.0570146
0.0570038
0.0569828
0.0569513
0.0570146
0.0570038
0.0569828
0.0569513
0.0266323
0.0306727
0.0330669
0.0346711
0.0357682
0.0364832
0.0368835
0.0370076
0.0368749
0.0364894
0.0358414
0.0349081
0.0336511
0.0320132
0.0299085
0.0271988
0.02362
0.0184552
0.00816451
0.0338553
0.035641
0.0370536
0.0381395
0.038932
0.039455
0.0397257
0.0397543
0.0395431
0.0390858
0.0383657
0.0373553
0.0360127
0.034277
0.0320569
0.0292037
0.0254269
0.0199303
0.00885075
0.0387478
0.0395857
0.0404078
0.0411101
0.0416447
0.0419888
0.0421301
0.0420597
0.041767
0.0412366
0.0404461
0.0393633
0.0379427
0.0361199
0.0337985
0.0308202
0.0268731
0.0210998
0.00939138
0.0422946
0.042722
0.0431998
0.0436345
0.0439659
0.0441557
0.0441778
0.0440121
0.0436392
0.0430371
0.0421784
0.041027
0.0395342
0.037632
0.0352197
0.0321308
0.0280367
0.0220326
0.00982026
0.0450241
0.0452498
0.0455206
0.0457701
0.0459456
0.0460074
0.0459244
0.0456709
0.0452221
0.0445514
0.0436276
0.0424115
0.0408514
0.0388765
0.0363819
0.033195
0.028974
0.0227778
0.010161
0.0472014
0.0473142
0.0474534
0.0475724
0.0476287
0.0475859
0.0474125
0.0470802
0.0465614
0.0458265
0.0448416
0.0435649
0.0419424
0.0399008
0.037332
0.0340583
0.0297281
0.0233723
0.0104313
0.0489734
0.0490157
0.049066
0.0490906
0.0490551
0.0489272
0.0486768
0.048275
0.0476929
0.0468991
0.0458575
0.0445246
0.0428447
0.0407422
0.0381067
0.0347567
0.0303329
0.0238449
0.0106446
0.0504309
0.0504255
0.0504129
0.050367
0.0502598
0.0500625
0.049747
0.0492847
0.048646
0.0477986
0.0467053
0.045321
0.0435886
0.0414312
0.0387362
0.0353194
0.0308158
0.0242185
0.010812
0.0516358
0.0515962
0.0515371
0.0514374
0.0512734
0.0510194
0.0506489
0.0501342
0.0494455
0.0485502
0.04741
0.0459792
0.0441995
0.0419927
0.0392452
0.0357703
0.031199
0.0245121
0.0109423
0.0526334
0.0525682
0.0524736
0.052332
0.0521225
0.0518218
0.051405
0.0508451
0.0501128
0.0491748
0.0479929
0.0465203
0.0446984
0.042448
0.0396543
0.0361294
0.0315012
0.024741
0.0110428
0.0534584
0.0533735
0.0532514
0.0530766
0.0528303
0.0524911
0.0520353
0.0514367
0.0506663
0.049691
0.0484721
0.0469627
0.0451034
0.0428147
0.039981
0.0364134
0.0317376
0.024918
0.0111197
0.0541389
0.0540385
0.0538946
0.0536932
0.0534169
0.0530459
0.0525573
0.0519258
0.0511227
0.0501149
0.0488637
0.047322
0.0454301
0.0431081
0.0402401
0.0366363
0.0319211
0.0250537
0.0111779
0.0546978
0.0545851
0.0544238
0.0542008
0.0539002
0.0535028
0.0529868
0.0523273
0.0514961
0.0504603
0.0491812
0.0476116
0.0456916
0.0433411
0.0404439
0.0368099
0.0320623
0.0251568
0.0112216
0.0551545
0.0550319
0.0548566
0.0546162
0.0542955
0.0538763
0.0533374
0.0526545
0.0517995
0.0507398
0.0494368
0.0478433
0.0458993
0.0435247
0.040603
0.036944
0.03217
0.0252344
0.011254
0.0555253
0.0553949
0.0552082
0.0549536
0.0546166
0.0541795
0.0536216
0.0529189
0.0520439
0.0509641
0.0496408
0.0480271
0.0460629
0.0436681
0.0407261
0.0370466
0.0322515
0.0252922
0.0112778
0.0558244
0.0556876
0.0554917
0.0552257
0.0548754
0.0544235
0.0538499
0.0531309
0.0522392
0.0511425
0.0498024
0.0481717
0.0461907
0.0437791
0.0408206
0.0371244
0.0323125
0.025335
0.0112951
0.0560639
0.0559219
0.0557187
0.0554434
0.0550822
0.0546184
0.0540318
0.0532994
0.0523939
0.0512833
0.0499291
0.0482845
0.0462897
0.0438644
0.0408924
0.0371829
0.0323578
0.0253662
0.0113076
0.0562541
0.0561079
0.0558988
0.0556161
0.0552462
0.0547725
0.0541756
0.0534322
0.0525154
0.0513933
0.0500277
0.0483717
0.0463656
0.0439293
0.0409465
0.0372266
0.0323912
0.0253889
0.0113165
0.0564039
0.0562544
0.0560405
0.0557518
0.0553749
0.0548935
0.054288
0.0535358
0.0526099
0.0514785
0.0501037
0.0484385
0.0464234
0.0439783
0.0409869
0.0372588
0.0324155
0.0254052
0.0113228
0.0565209
0.0563687
0.0561511
0.0558577
0.0554752
0.0549875
0.0543753
0.0536159
0.0526827
0.0515439
0.0501617
0.0484892
0.0464669
0.0440149
0.0410168
0.0372824
0.0324331
0.0254168
0.0113272
0.0566114
0.0564572
0.0562366
0.0559394
0.0555525
0.0550599
0.0544424
0.0536774
0.0527383
0.0515937
0.0502056
0.0485273
0.0464994
0.044042
0.0410388
0.0372995
0.0324457
0.025425
0.0113303
0.0566809
0.056525
0.0563021
0.056002
0.0556117
0.0551151
0.0544934
0.053724
0.0527804
0.0516312
0.0502385
0.0485557
0.0465235
0.0440619
0.0410548
0.0373119
0.0324546
0.0254307
0.0113325
0.0567337
0.0565766
0.0563519
0.0560495
0.0556564
0.0551569
0.0545319
0.0537591
0.052812
0.0516592
0.0502629
0.0485767
0.0465411
0.0440763
0.0410663
0.0373207
0.0324609
0.0254347
0.0113339
0.0567734
0.0566154
0.0563893
0.0560851
0.05569
0.0551882
0.0545607
0.0537853
0.0528354
0.0516799
0.0502809
0.0485921
0.046554
0.0440868
0.0410746
0.0373269
0.0324654
0.0254375
0.0113349
0.0568031
0.0566443
0.0564172
0.0561117
0.055715
0.0552114
0.0545821
0.0538046
0.0528527
0.0516951
0.0502941
0.0486032
0.0465632
0.0440943
0.0410804
0.0373313
0.0324684
0.0254394
0.0113356
0.0568251
0.0566657
0.0564378
0.0561313
0.0557335
0.0552285
0.0545977
0.0538187
0.0528653
0.0517061
0.0503036
0.0486112
0.0465698
0.0440996
0.0410845
0.0373343
0.0324706
0.0254407
0.011336
0.0568412
0.0566814
0.0564529
0.0561457
0.0557469
0.055241
0.0546091
0.053829
0.0528744
0.0517141
0.0503104
0.048617
0.0465745
0.0441033
0.0410874
0.0373364
0.032472
0.0254415
0.0113363
0.0568529
0.0566928
0.0564638
0.056156
0.0557567
0.05525
0.0546173
0.0538364
0.0528809
0.0517197
0.0503152
0.048621
0.0465778
0.0441059
0.0410894
0.0373379
0.032473
0.0254421
0.0113365
0.0568613
0.056701
0.0564717
0.0561635
0.0557637
0.0552565
0.0546232
0.0538416
0.0528856
0.0517238
0.0503187
0.0486239
0.0465801
0.0441078
0.0410908
0.0373389
0.0324736
0.0254425
0.0113366
0.0568673
0.0567068
0.0564773
0.0561688
0.0557686
0.055261
0.0546274
0.0538454
0.0528888
0.0517266
0.0503211
0.0486258
0.0465817
0.044109
0.0410917
0.0373396
0.0324741
0.0254428
0.0113367
0.0568716
0.056711
0.0564813
0.0561726
0.0557721
0.0552643
0.0546303
0.053848
0.0528911
0.0517286
0.0503227
0.0486272
0.0465828
0.0441099
0.0410923
0.03734
0.0324744
0.0254429
0.0113368
0.0568746
0.0567139
0.0564841
0.0561752
0.0557746
0.0552665
0.0546323
0.0538498
0.0528927
0.0517299
0.0503239
0.0486282
0.0465836
0.0441104
0.0410928
0.0373403
0.0324746
0.025443
0.0113368
0.0568767
0.0567159
0.056486
0.0561771
0.0557763
0.0552681
0.0546337
0.053851
0.0528938
0.0517309
0.0503246
0.0486288
0.0465841
0.0441108
0.041093
0.0373405
0.0324747
0.0254431
0.0113368
0.0568781
0.0567173
0.0564874
0.0561783
0.0557775
0.0552692
0.0546347
0.0538519
0.0528946
0.0517315
0.0503252
0.0486292
0.0465844
0.0441111
0.0410932
0.0373406
0.0324748
0.0254432
0.0113368
0.0568791
0.0567183
0.0564883
0.0561792
0.0557783
0.0552699
0.0546354
0.0538525
0.0528951
0.0517319
0.0503255
0.0486295
0.0465846
0.0441112
0.0410934
0.0373407
0.0324748
0.0254432
0.0113369
0.0568798
0.0567189
0.0564889
0.0561798
0.0557788
0.0552704
0.0546358
0.0538529
0.0528954
0.0517322
0.0503258
0.0486297
0.0465848
0.0441114
0.0410934
0.0373408
0.0324749
0.0254432
0.0113369
0.0568802
0.0567193
0.0564893
0.0561802
0.0557792
0.0552707
0.0546361
0.0538531
0.0528956
0.0517324
0.0503259
0.0486298
0.0465849
0.0441114
0.0410935
0.0373408
0.0324749
0.0254432
0.0113369
0.0568805
0.0567196
0.0564896
0.0561804
0.0557794
0.055271
0.0546363
0.0538533
0.0528958
0.0517325
0.050326
0.0486299
0.046585
0.0441115
0.0410935
0.0373408
0.0324749
0.0254432
0.0113369
0.0568807
0.0567198
0.0564898
0.0561806
0.0557796
0.0552711
0.0546364
0.0538534
0.0528959
0.0517326
0.0503261
0.04863
0.046585
0.0441115
0.0410936
0.0373408
0.0324749
0.0254432
0.0113369
0.0568808
0.0567199
0.0564899
0.0561807
0.0557797
0.0552712
0.0546365
0.0538535
0.0528959
0.0517327
0.0503261
0.04863
0.046585
0.0441115
0.0410936
0.0373409
0.0324749
0.0254432
0.0113369
0.0568808
0.0567199
0.0564899
0.0561807
0.0557797
0.0552712
0.0546366
0.0538535
0.052896
0.0517327
0.0503262
0.04863
0.046585
0.0441115
0.0410936
0.0373409
0.0324749
0.0254432
0.0113369
0.0568808
0.05672
0.0564899
0.0561808
0.0557797
0.0552713
0.0546366
0.0538536
0.052896
0.0517327
0.0503262
0.04863
0.046585
0.0441116
0.0410936
0.0373409
0.0324749
0.0254432
0.0113369
)
;

boundaryField
{
    leftWall
    {
        type            kqRWallFunction;
        value           nonuniform List<scalar> 
50
(
0.00149712
0.00293408
0.00402806
0.00491496
0.00564405
0.00625866
0.00678717
0.00724813
0.00788358
0.00855376
0.0090822
0.00950168
0.00983507
0.0100994
0.010308
0.0104714
0.0105984
0.0106962
0.0107708
0.0108271
0.0108691
0.0109002
0.0109229
0.0109393
0.0109511
0.0109594
0.0109653
0.0109694
0.0109722
0.0109741
0.0109755
0.0109763
0.0109769
0.0109773
0.0109776
0.0109778
0.0109779
0.010978
0.010978
0.010978
0.0109781
0.0109781
0.0109781
0.0109781
0.0109781
0.0109781
0.0109781
0.0109781
0.0109781
0.0109781
)
;
    }
    rightWall
    {
        type            kqRWallFunction;
        value           nonuniform List<scalar> 
50
(
0.00162439
0.00311296
0.0042176
0.00512166
0.00586826
0.00649851
0.00704057
0.00751323
0.00816451
0.00885075
0.00939138
0.00982026
0.010161
0.0104313
0.0106446
0.010812
0.0109423
0.0110428
0.0111197
0.0111779
0.0112216
0.011254
0.0112778
0.0112951
0.0113076
0.0113165
0.0113228
0.0113272
0.0113303
0.0113325
0.0113339
0.0113349
0.0113356
0.011336
0.0113363
0.0113365
0.0113366
0.0113367
0.0113368
0.0113368
0.0113368
0.0113368
0.0113369
0.0113369
0.0113369
0.0113369
0.0113369
0.0113369
0.0113369
0.0113369
)
;
    }
    lowerWall
    {
        type            kqRWallFunction;
        value           nonuniform List<scalar> 
62
(
0.00149712
0.00322997
0.0045186
0.00544618
0.00615342
0.00670693
0.00714459
0.00749053
0.00776125
0.00796835
0.00811998
0.00822144
0.00827541
0.00828176
0.00823695
0.00813278
0.00795409
0.00767442
0.00724826
0.0065972
0.00558656
0.00398284
0.00131079
0.00131079
0.00341529
0.00491973
0.00622952
0.0074728
0.0088596
0.0109486
0.0156812
0.0180804
0.015343
0.015316
0.0179467
0.00138785
0.00358946
0.00511833
0.00646259
0.00775268
0.00921928
0.011454
0.0162957
0.00138785
0.00422104
0.00584503
0.00681879
0.00741171
0.0077716
0.00797878
0.00807635
0.00808668
0.00801997
0.00787853
0.00765862
0.00735096
0.0069399
0.00640079
0.00569382
0.00474831
0.00341484
0.00162439
)
;
    }
    atmosphere
    {
        type            inletOutlet;
        inletValue      uniform 0.1;
        value           nonuniform List<scalar> 
46
(
0.0109781
0.0245717
0.0313577
0.0360701
0.0397336
0.0427124
0.0451867
0.0472639
0.0490166
0.0504981
0.0517497
0.0528045
0.0536902
0.05443
0.0550437
0.0555485
0.0559591
0.0562881
0.056546
0.0567417
0.056882
0.0569722
0.0570158
0.0570146
0.0570038
0.0569828
0.0569513
0.0568808
0.05672
0.0564899
0.0561808
0.0557797
0.0552713
0.0546366
0.0538536
0.052896
0.0517327
0.0503262
0.04863
0.046585
0.0441116
0.0410936
0.0373409
0.0324749
0.0254432
0.0113369
)
;
    }
    defaultFaces
    {
        type            empty;
    }
}


// ************************************************************************* //
