/*--------------------------------*- C++ -*----------------------------------*\
| =========                 |                                                 |
| \\      /  F ield         | OpenFOAM: The Open Source CFD Toolbox           |
|  \\    /   O peration     | Version:  2406                                  |
|   \\  /    A nd           | Website:  www.openfoam.com                      |
|    \\/     M anipulation  |                                                 |
\*---------------------------------------------------------------------------*/
FoamFile
{
    version     2.0;
    format      ascii;
    arch        "LSB;label=32;scalar=64";
    class       volScalarField;
    location    "0.75";
    object      k;
}
// * * * * * * * * * * * * * * * * * * * * * * * * * * * * * * * * * * * * * //

dimensions      [0 2 -2 0 0 0 0];

internalField   nonuniform List<scalar> 
2268
(
0.1
0.1
0.1
0.1
0.1
0.1
0.1
0.1
0.1
0.1
0.1
0.1
0.1
0.00728956
0.00277243
0.00372805
0.00433897
0.00466429
0.00474843
0.00457398
0.00406628
0.00306234
0.00115235
0.1
0.1
0.1
0.1
0.1
0.1
0.1
0.1
0.1
0.1
0.1
0.1
0.1
0.00603291
0.00633426
0.00846199
0.0097607
0.0104673
0.0106527
0.0102765
0.00918507
0.00705546
0.00281403
0.1
0.1
0.1
0.1
0.1
0.1
0.1
0.1
0.1
0.1
0.1
0.1
0.1
0.00672237
0.00846688
0.0110648
0.0126659
0.0135552
0.0138042
0.0133609
0.0120377
0.00941879
0.00390149
0.1
0.1
0.1
0.1
0.1
0.1
0.1
0.1
0.1
0.1
0.1
0.1
0.1
0.00761507
0.0101288
0.0130317
0.0148311
0.0158505
0.0161634
0.0157123
0.0142865
0.0113705
0.00482365
0.1
0.1
0.1
0.1
0.1
0.1
0.1
0.1
0.1
0.1
0.1
0.1
0.1
0.00848751
0.0115314
0.0146849
0.0166465
0.0177799
0.0181676
0.0177538
0.0163127
0.0132194
0.00570727
0.1
0.1
0.1
0.1
0.1
0.1
0.1
0.1
0.1
0.1
0.1
0.1
0.1
0.00932985
0.0127662
0.0161392
0.0182466
0.0194896
0.0199662
0.0196309
0.0182582
0.0151318
0.00673224
0.1
0.1
0.1
0.1
0.1
0.1
0.1
0.1
0.1
0.1
0.1
0.1
0.1
0.0101507
0.0138845
0.0174509
0.0196927
0.0210442
0.0216235
0.0214045
0.0201879
0.0172478
0.00834789
0.1
0.1
0.1
0.1
0.1
0.1
0.1
0.1
0.1
0.1
0.1
0.1
0.1
0.0109582
0.0149153
0.0186494
0.0210148
0.022474
0.0231671
0.0230948
0.022114
0.0196627
0.0120223
0.00128591
0.00363819
0.00494207
0.00572264
0.00620342
0.00650155
0.00667916
0.00676912
0.00678835
0.00674436
0.00663842
0.00646698
0.00622208
0.00589084
0.00545341
0.00487771
0.00410562
0.00301021
0.00154119
0.00321997
0.008398
0.0111654
0.0128444
0.013886
0.0145339
0.0149198
0.0151147
0.0151553
0.0150582
0.0148259
0.0144504
0.0139138
0.0131872
0.012226
0.0109598
0.00926524
0.00688697
0.00286266
0.00450517
0.0112312
0.0146366
0.016693
0.0179738
0.018773
0.019249
0.0194874
0.0195328
0.0194052
0.0191073
0.0186288
0.0179469
0.0170248
0.0158064
0.0142041
0.0120677
0.00908301
0.00380501
0.00562917
0.0135803
0.017365
0.0196145
0.0210181
0.0218973
0.022421
0.0226803
0.0227228
0.0225695
0.0222229
0.0216706
0.0208864
0.0198283
0.0184323
0.0165999
0.0141634
0.0107589
0.00456986
0.00672362
0.0157963
0.0198026
0.0221324
0.0235887
0.0245055
0.0250518
0.0253181
0.0253518
0.0251735
0.0247847
0.0241712
0.023304
0.0221367
0.0205999
0.0185863
0.0159131
0.0121661
0.00520854
0.00799338
0.018044
0.0221017
0.0244171
0.0258729
0.0267962
0.0273464
0.027609
0.027629
0.0274252
0.0269976
0.02633
0.0253911
0.0241311
0.0224759
0.0203109
0.0174389
0.0133952
0.00576264
0.00993848
0.0204421
0.0243222
0.0265363
0.0279492
0.0288544
0.0293939
0.0296445
0.0296466
0.0294164
0.0289518
0.0282351
0.0272324
0.0258914
0.024134
0.0218393
0.0187963
0.0144912
0.00625927
0.014063
0.023048
0.0264701
0.0285133
0.0298518
0.0307207
0.0312381
0.0314699
0.0314505
0.0311931
0.0306931
0.0299309
0.0288708
0.0274579
0.025611
0.023204
0.0200128
0.0154782
0.00671481
0.1
0.1
0.1
0.1
0.1
0.1
0.1
0.1
0.1
0.1
0.1
0.1
0.1
0.0122069
0.0164103
0.0203663
0.0229078
0.0245323
0.0254135
0.025599
0.0250517
0.0236042
0.0206825
0.1
0.1
0.1
0.1
0.1
0.1
0.1
0.1
0.1
0.1
0.1
0.1
0.1
0.0137504
0.0180954
0.0222887
0.0250435
0.0268865
0.0280299
0.0285739
0.0285761
0.0280846
0.0271785
0.1
0.1
0.1
0.1
0.1
0.1
0.1
0.1
0.1
0.1
0.1
0.1
0.1
0.0151557
0.0195055
0.0238923
0.0268412
0.0288893
0.0302752
0.0311311
0.0315583
0.0316688
0.0316306
0.1
0.1
0.1
0.1
0.1
0.1
0.1
0.1
0.1
0.1
0.1
0.1
0.1
0.0164405
0.0207031
0.0252437
0.0283638
0.0305946
0.0321895
0.0332961
0.0340292
0.0345062
0.0348711
0.1
0.1
0.1
0.1
0.1
0.1
0.1
0.1
0.1
0.1
0.1
0.1
0.1
0.0176134
0.0217282
0.0263869
0.0296524
0.0320392
0.0338067
0.0351078
0.0360584
0.0367665
0.037348
0.1
0.1
0.1
0.1
0.1
0.1
0.1
0.1
0.1
0.1
0.1
0.1
0.1
0.0186787
0.0226073
0.0273531
0.0307385
0.0332548
0.0351613
0.0366117
0.0377184
0.0385798
0.039293
0.1
0.1
0.1
0.1
0.1
0.1
0.1
0.1
0.1
0.1
0.1
0.1
0.1
0.0196391
0.0233598
0.0281669
0.0316493
0.0342709
0.0362882
0.0378528
0.0390737
0.0400416
0.0408421
0.1
0.1
0.1
0.1
0.1
0.1
0.1
0.1
0.1
0.1
0.1
0.1
0.1
0.0204985
0.0240019
0.02885
0.0324097
0.0351161
0.0372208
0.0388733
0.0401788
0.0412232
0.0420848
0.1
0.1
0.1
0.1
0.1
0.1
0.1
0.1
0.1
0.1
0.1
0.1
0.1
0.0212621
0.0245493
0.0294232
0.0330439
0.0358179
0.0379913
0.0397111
0.04108
0.0421801
0.0430856
0.1
0.1
0.1
0.1
0.1
0.1
0.1
0.1
0.1
0.1
0.1
0.1
0.1
0.0219372
0.0250182
0.0299071
0.0335759
0.0364033
0.03863
0.040401
0.0418167
0.0429573
0.0438942
0.1
0.1
0.1
0.1
0.1
0.1
0.1
0.1
0.1
0.1
0.1
0.1
0.1
0.0225331
0.0254259
0.0303235
0.0340302
0.036899
0.0391661
0.0409746
0.0424238
0.0435925
0.0445506
0.1
0.1
0.1
0.1
0.1
0.1
0.1
0.1
0.1
0.1
0.1
0.1
0.1
0.0230619
0.0257922
0.0306961
0.0344327
0.0373324
0.0396278
0.0414614
0.042932
0.044118
0.0450885
0.1
0.1
0.1
0.1
0.1
0.1
0.1
0.1
0.1
0.1
0.1
0.1
0.1
0.0235393
0.0261417
0.0310527
0.0348118
0.0377316
0.0400431
0.0418893
0.0433696
0.0445623
0.0455363
0.1
0.1
0.1
0.1
0.1
0.1
0.1
0.1
0.1
0.1
0.1
0.1
0.1
0.0239876
0.0265067
0.0314275
0.0352003
0.038127
0.0404401
0.0422848
0.043762
0.0449504
0.0459188
0.1
0.1
0.1
0.1
0.1
0.1
0.1
0.1
0.1
0.1
0.1
0.1
0.1
0.0244427
0.026935
0.0318657
0.0356371
0.0385513
0.0408469
0.042673
0.0441323
0.0453041
0.0462571
0.1
0.1
0.1
0.1
0.1
0.1
0.1
0.1
0.1
0.1
0.1
0.1
0.1
0.0249699
0.0275037
0.03243
0.0361689
0.0390394
0.0412908
0.0430766
0.0445008
0.0456423
0.0465692
0.1
0.1
0.1
0.1
0.1
0.1
0.1
0.1
0.1
0.1
0.1
0.1
0.1
0.0257073
0.028346
0.0332061
0.0368479
0.0396248
0.0417956
0.0435145
0.0448837
0.04598
0.0468692
0.1
0.1
0.1
0.1
0.1
0.1
0.1
0.1
0.1
0.1
0.1
0.1
0.1
0.0269882
0.0296846
0.0342942
0.0377199
0.0403318
0.0423772
0.0439993
0.0452925
0.0463282
0.0471682
0.1
0.1
0.1
0.1
0.1
0.1
0.1
0.1
0.1
0.1
0.1
0.1
0.1
0.0294631
0.0317528
0.0357419
0.0387933
0.0411631
0.0430388
0.0445355
0.0457327
0.0466933
0.0474734
0.1
0.1
0.1
0.1
0.1
0.1
0.1
0.1
0.1
0.1
0.1
0.1
0.0329883
0.030159
0.0340635
0.0373902
0.040008
0.0420933
0.0437692
0.0451187
0.0462042
0.0470777
0.0477889
0.0184761
0.019197
0.0205085
0.0215651
0.0223672
0.0229899
0.0235041
0.023982
0.0245173
0.0252722
0.0266028
0.0291838
0.0300435
0.0333273
0.0364808
0.0391256
0.0413015
0.0430872
0.0445487
0.0457387
0.0467022
0.0474808
0.0481165
0.00609377
0.0126539
0.0163065
0.0188868
0.0208398
0.0223874
0.0236746
0.0248218
0.0259566
0.0272497
0.0289515
0.0313097
0.0338348
0.0363925
0.0387543
0.040829
0.0426061
0.0441051
0.0453539
0.0463821
0.0472201
0.0478998
0.0484568
0.00607291
0.0142608
0.0185965
0.0216933
0.0240808
0.026
0.0276058
0.0290219
0.0303652
0.0317606
0.0333357
0.0351547
0.0370696
0.0389802
0.0407869
0.0424261
0.0438697
0.0451129
0.0461633
0.0470361
0.047751
0.0483324
0.0488103
0.00696185
0.0160381
0.020769
0.0241565
0.026799
0.0289438
0.0307432
0.0323137
0.0337556
0.0351604
0.0366019
0.0381087
0.0396373
0.0411419
0.0425722
0.0438876
0.0450633
0.0460882
0.046962
0.0476918
0.0482909
0.0487782
0.0491794
0.00767674
0.0175037
0.0225526
0.026155
0.028979
0.0312827
0.033216
0.034887
0.0363832
0.0377766
0.0391204
0.0404399
0.0417287
0.0429696
0.0441389
0.0452142
0.0461785
0.0470226
0.0477441
0.0483468
0.0488403
0.0492403
0.0495694
0.0082255
0.0186729
0.0239961
0.0277794
0.0307498
0.0331777
0.0352127
0.0369571
0.0384896
0.0398721
0.0411501
0.0423504
0.0434822
0.0445441
0.0455282
0.0464243
0.0472236
0.0479204
0.0485135
0.0490061
0.0494061
0.0497272
0.0499902
0.00865303
0.0196068
0.0251692
0.029114
0.0322126
0.0347471
0.0368673
0.0386724
0.0402358
0.0416144
0.0428505
0.043973
0.0449989
0.0459361
0.0467863
0.0475481
0.0482189
0.0487974
0.0492842
0.0496832
0.050002
0.0502536
0.0504575
0.00899335
0.0203657
0.0261408
0.0302351
0.0334536
0.0360867
0.0382853
0.0401466
0.0417415
0.0431242
0.0443363
0.0454085
0.0463621
0.0472111
0.0479636
0.0486242
0.0491955
0.0496796
0.0500795
0.0504004
0.0506502
0.0508417
0.0509939
0.00927421
0.0210063
0.026978
0.0312175
0.0345543
0.0372848
0.0395606
0.0414785
0.0431078
0.0445021
0.0457033
0.0467437
0.047648
0.0484342
0.0491149
0.0496992
0.0501933
0.0506027
0.0509324
0.051189
0.0513811
0.0515217
0.0516297
0.00952152
0.0215848
0.0277509
0.0321396
0.0355995
0.038431
0.0407866
0.0427631
0.0444301
0.0458417
0.0470408
0.048062
0.0489323
0.0496731
0.0503004
0.0508265
0.0512609
0.0516113
0.0518848
0.0520893
0.0522341
0.0523326
0.0524036
0.0097628
0.0221634
0.0285382
0.0330901
0.0366839
0.0396233
0.0420626
0.0440995
0.0458057
0.0472371
0.0484387
0.0494475
0.0502931
0.0509997
0.051586
0.0520671
0.0524546
0.0527585
0.0529875
0.0531503
0.0532572
0.0533218
0.0533627
0.0100306
0.0228163
0.0294342
0.0341743
0.0379181
0.0409738
0.043499
0.0455954
0.0473383
0.0487871
0.0499904
0.0509882
0.0518128
0.0524909
0.0530437
0.0534882
0.0538383
0.0541051
0.0542987
0.0544288
0.0545062
0.0545445
0.0545622
0.0103663
0.0236379
0.0305572
0.0355213
0.0394339
0.0426119
0.0452203
0.0473685
0.0491385
0.0505959
0.0517938
0.0527758
0.0535776
0.0542278
0.0547499
0.0551626
0.055481
0.0557175
0.0558831
0.055988
0.0560433
0.0560623
0.0560633
0.0108249
0.0247508
0.032057
0.0372896
0.0413877
0.0446856
0.0473638
0.0495452
0.0513232
0.0527714
0.0539492
0.0549045
0.0556758
0.0562941
0.0567843
0.0571662
0.057456
0.0576667
0.0578097
0.0578955
0.0579351
0.0579415
0.0579317
0.0114793
0.0263154
0.0341228
0.0396712
0.0439599
0.0473585
0.0500757
0.0522565
0.0540101
0.0554214
0.0565565
0.0574677
0.058196
0.0587741
0.0592276
0.059577
0.0598387
0.0600259
0.0601502
0.0602218
0.0602512
0.0602507
0.0602357
0.0124271
0.0285425
0.0369931
0.0428941
0.0473525
0.0508035
0.0535035
0.0556301
0.0573131
0.0586493
0.0597118
0.0605561
0.061225
0.0617514
0.062161
0.0624739
0.0627061
0.0628707
0.0629785
0.0630394
0.0630631
0.0630605
0.063045
0.0138015
0.0317187
0.0409721
0.0472256
0.0517818
0.0551924
0.0577864
0.0597834
0.0613355
0.0625503
0.0635052
0.064257
0.0648479
0.0653096
0.0656667
0.0659379
0.0661383
0.0662797
0.0663722
0.0664246
0.0664456
0.0664445
0.0664323
0.0158018
0.0362666
0.046463
0.0529743
0.0574662
0.0606809
0.063043
0.0648154
0.0661671
0.0672104
0.0680219
0.0686556
0.0691505
0.0695352
0.0698314
0.0700558
0.0702213
0.0703384
0.0704156
0.0704607
0.0704808
0.0704834
0.0704768
0.0187805
0.0428958
0.0540184
0.060475
0.0645955
0.0673844
0.0693574
0.0708008
0.071883
0.0727087
0.0733457
0.0738403
0.0742248
0.0745228
0.0747518
0.0749252
0.0750534
0.0751448
0.0752063
0.0752439
0.0752634
0.0752703
0.07527
0.0235907
0.052974
0.0643529
0.0700015
0.0732597
0.0753394
0.0767638
0.0777874
0.0785473
0.0791237
0.0795668
0.0799099
0.0801764
0.0803828
0.0805414
0.0806618
0.0807514
0.0808161
0.0808609
0.0808903
0.080908
0.0809179
0.080923
0.0346044
0.0690798
0.0779696
0.0814785
0.0833189
0.0844603
0.0852399
0.0858031
0.0862236
0.0865442
0.0867915
0.0869836
0.0871331
0.0872492
0.0873387
0.087407
0.0874584
0.0874962
0.0875235
0.0875428
0.0875564
0.0875664
0.0875741
0.0846438
0.0924111
0.0935061
0.0939813
0.0943036
0.094547
0.0947353
0.0948816
0.0949959
0.0950853
0.0951555
0.0952107
0.095254
0.0952879
0.0953143
0.0953346
0.0953502
0.0953621
0.0953712
0.0953783
0.0953844
0.0953899
0.0953952
0.0142289
0.0123044
0.0125201
0.0150423
0.0263945
0.0262144
0.026547
0.0273972
0.0317114
0.0318794
0.0322097
0.032697
0.0351959
0.0354566
0.0357838
0.036174
0.0377789
0.0380778
0.0384065
0.038763
0.0397838
0.0401048
0.0404374
0.04078
0.041372
0.0417084
0.0420455
0.0423821
0.0426424
0.0429901
0.0433315
0.0436658
0.0436633
0.0440194
0.0443646
0.044698
0.0444862
0.0448484
0.0451963
0.0455292
0.045152
0.045518
0.0458674
0.0461995
0.0456945
0.0460619
0.0464112
0.0467418
0.0461421
0.0465085
0.0468558
0.0471834
0.0465193
0.0468819
0.0472249
0.0475477
0.0468468
0.0472023
0.0475384
0.0478544
0.0471418
0.047487
0.0478132
0.04812
0.0474184
0.0477497
0.048063
0.0483579
0.0476876
0.0480012
0.0482985
0.0485789
0.0479569
0.0482497
0.048528
0.0487913
0.0482315
0.0485005
0.0487574
0.0490016
0.0485146
0.0487576
0.0489912
0.0492147
0.0488081
0.0490239
0.0492331
0.0494348
0.0491143
0.0493027
0.0494871
0.0496668
0.0494372
0.0495986
0.0497587
0.0499167
0.0497832
0.049919
0.0500559
0.0501931
0.0501635
0.0502753
0.0503906
0.0505084
0.0505941
0.0506844
0.0507799
0.0508801
0.0510981
0.0511691
0.0512471
0.0513315
0.0517058
0.0517602
0.0518229
0.0518933
0.052456
0.0524962
0.0525458
0.0526042
0.0533958
0.0534242
0.0534626
0.0535107
0.0545799
0.0545987
0.054628
0.0546672
0.0560695
0.0560809
0.0561026
0.0561342
0.0579301
0.0579361
0.0579517
0.0579766
0.0602296
0.0602319
0.0602427
0.0602617
0.0630374
0.0630375
0.0630445
0.0630582
0.0664255
0.0664247
0.0664288
0.0664377
0.0704724
0.0704715
0.0704736
0.0704784
0.0752687
0.0752685
0.0752691
0.0752705
0.0809248
0.0809254
0.0809252
0.0809242
0.0875779
0.087579
0.0875786
0.0875765
0.0953983
0.0953994
0.0953991
0.0953975
0.0230248
0.0271178
0.0296542
0.0313822
0.0325751
0.0333674
0.0338372
0.0340314
0.0339744
0.0336732
0.0331199
0.0322915
0.0311496
0.0296363
0.0276663
0.0251064
0.0217151
0.0168677
0.00737366
0.0293229
0.031575
0.0333364
0.034675
0.0356514
0.0363136
0.0366969
0.0368247
0.0367079
0.0363452
0.0357228
0.0348141
0.0335774
0.0319517
0.0298474
0.0271239
0.0235194
0.0183374
0.00806401
0.0336824
0.0351344
0.0364143
0.0374528
0.0382359
0.0387685
0.0390593
0.0391145
0.0389337
0.0385084
0.0378196
0.0368372
0.0355163
0.0337932
0.0315749
0.0287139
0.0249313
0.0194743
0.00858661
0.0369025
0.0379819
0.0389671
0.0397876
0.0404118
0.0408274
0.0410287
0.0410111
0.040766
0.040279
0.0395269
0.038476
0.0370791
0.0352698
0.0329519
0.0299722
0.026038
0.020354
0.00898451
0.0393911
0.0402762
0.0410766
0.0417408
0.0422392
0.0425542
0.042674
0.0425873
0.0422804
0.0417342
0.0409222
0.039808
0.0383421
0.0364558
0.0340502
0.0309674
0.0269041
0.0210336
0.00928807
0.0413606
0.0421348
0.0428151
0.0433671
0.0437672
0.0439983
0.0440462
0.0438963
0.0435316
0.04293
0.0420623
0.04089
0.0393616
0.0374065
0.0349237
0.0317515
0.0275791
0.0215568
0.0095191
0.0429378
0.0436443
0.044244
0.0447144
0.0450381
0.0452002
0.0451861
0.0449799
0.0445626
0.0439101
0.0429914
0.0417662
0.0401815
0.0381654
0.035615
0.032366
0.0281022
0.0219573
0.0096939
0.0442074
0.0448705
0.0454144
0.0458247
0.046089
0.0461946
0.0461278
0.0458723
0.045408
0.0447096
0.0437448
0.0424722
0.0408374
0.0387676
0.0361585
0.0328441
0.0285044
0.0222614
0.00982507
0.0452312
0.0458651
0.0463692
0.0467345
0.0469522
0.0470118
0.0469007
0.0466026
0.046097
0.0453578
0.0443521
0.0430373
0.0413585
0.039242
0.0365826
0.0332132
0.0288112
0.0224902
0.00992253
0.0460568
0.04667
0.0471448
0.0474757
0.0476565
0.0476787
0.0475304
0.0471959
0.0466544
0.0458796
0.0448379
0.0434863
0.0417693
0.0396127
0.0369107
0.0334955
0.029043
0.0226608
0.00999416
0.0467223
0.0473196
0.0477719
0.048076
0.0482274
0.0482189
0.0480396
0.0476741
0.0471018
0.0462962
0.0452234
0.0438401
0.0420904
0.0398997
0.0371621
0.0337094
0.0292163
0.0227865
0.0100462
0.0472595
0.0478433
0.0482773
0.0485596
0.048687
0.0486533
0.0484481
0.0480565
0.047458
0.0466261
0.0455267
0.0441164
0.0423391
0.04012
0.037353
0.0338698
0.0293446
0.0228782
0.0100836
0.0476948
0.0482658
0.0486838
0.0489478
0.0490552
0.0490003
0.0487735
0.0483599
0.0477393
0.0468851
0.0457633
0.0443303
0.0425299
0.0402874
0.0374965
0.033989
0.0294385
0.0229443
0.0101101
0.0480506
0.0486081
0.0490112
0.0492589
0.049349
0.0492762
0.0490311
0.048599
0.0479597
0.0470869
0.0459463
0.0444945
0.0426751
0.0404135
0.0376034
0.0340766
0.0295067
0.0229916
0.0101288
0.0483461
0.0488884
0.0492763
0.0495087
0.0495834
0.0494951
0.0492342
0.0487865
0.0481316
0.0472431
0.046087
0.0446196
0.0427848
0.0405077
0.0376824
0.0341405
0.0295557
0.023025
0.0101418
0.0485971
0.0491217
0.0494936
0.049711
0.0497713
0.049669
0.0493945
0.0489333
0.0482653
0.0473638
0.0461947
0.0447146
0.0428673
0.0405779
0.0377405
0.0341869
0.0295907
0.0230485
0.0101507
0.0488168
0.0493207
0.0496751
0.0498772
0.0499236
0.0498085
0.0495219
0.049049
0.0483697
0.0474572
0.0462775
0.0447869
0.0429294
0.0406301
0.0377832
0.0342205
0.0296157
0.0230649
0.0101569
0.049016
0.0494959
0.0498311
0.0500172
0.0500499
0.0499226
0.0496248
0.0491416
0.0484525
0.0475307
0.046342
0.0448427
0.0429768
0.0406695
0.037815
0.0342451
0.0296337
0.0230766
0.0101612
0.0492031
0.049656
0.0499702
0.0501395
0.0501583
0.0500191
0.0497109
0.0492183
0.0485205
0.0475905
0.046394
0.0448873
0.0430143
0.0407002
0.0378395
0.0342638
0.0296471
0.0230851
0.0101642
0.049385
0.0498082
0.0500997
0.0502513
0.050256
0.0501051
0.0497869
0.0492855
0.0485796
0.0476422
0.0464387
0.0449254
0.0430461
0.0407261
0.0378598
0.0342792
0.0296579
0.0230918
0.0101666
0.0495674
0.0499586
0.0502263
0.0503596
0.0503498
0.0501872
0.0498593
0.0493493
0.0486359
0.0476914
0.0464812
0.0449616
0.0430762
0.0407505
0.0378789
0.0342934
0.0296678
0.0230978
0.0101686
0.0497554
0.0501135
0.0503564
0.0504709
0.0504466
0.0502724
0.0499347
0.0494163
0.0486953
0.0477438
0.0465269
0.0450007
0.043109
0.0407772
0.0378998
0.034309
0.0296786
0.0231043
0.0101708
0.0499548
0.0502793
0.0504972
0.0505929
0.0505539
0.050368
0.0500206
0.0494937
0.0487649
0.0478059
0.0465817
0.0450483
0.0431493
0.0408104
0.0379261
0.0343287
0.0296924
0.0231126
0.0101736
0.0501726
0.0504639
0.0506572
0.0507342
0.0506809
0.0504833
0.0501261
0.0495904
0.0488532
0.0478861
0.0466536
0.0451116
0.0432038
0.0408559
0.0379626
0.0343565
0.029712
0.0231246
0.0101777
0.0504182
0.0506776
0.0508472
0.0509062
0.0508388
0.0506297
0.0502624
0.0497175
0.0489713
0.0479949
0.0467526
0.0452
0.043281
0.0409213
0.0380159
0.0343977
0.0297415
0.023143
0.0101841
0.0507048
0.0509343
0.0510814
0.0511233
0.0510423
0.0508218
0.0504444
0.0498898
0.0491336
0.0481465
0.0468924
0.0453267
0.0433932
0.0410178
0.0380956
0.0344603
0.0297871
0.0231717
0.0101941
0.0510501
0.051252
0.0513785
0.0514044
0.0513104
0.0510789
0.0506913
0.0501264
0.0493593
0.0483599
0.0470917
0.0455098
0.0435576
0.0411611
0.0382159
0.0345562
0.029858
0.0232171
0.0102103
0.0514779
0.051655
0.0517625
0.0517737
0.0516677
0.0514256
0.0510279
0.0504525
0.0496737
0.0486605
0.0473758
0.045774
0.0437982
0.041374
0.0383974
0.0347033
0.0299686
0.0232891
0.0102362
0.0520189
0.0521738
0.0522643
0.0522622
0.0521451
0.0518933
0.051486
0.0509003
0.0501095
0.0490816
0.0477783
0.0461532
0.0441483
0.0416887
0.0386702
0.0349281
0.0301406
0.0234031
0.0102778
0.0527115
0.0528466
0.052922
0.0529079
0.0527811
0.0525207
0.052105
0.0515101
0.0507081
0.0496658
0.0483432
0.0466923
0.0446534
0.04215
0.039077
0.0352697
0.0304069
0.0235829
0.0103445
0.0536021
0.0537195
0.0537812
0.0537565
0.0536215
0.0533543
0.0529325
0.052331
0.0515205
0.0504661
0.049126
0.0474492
0.0453733
0.0428188
0.039678
0.0357844
0.0308165
0.0238651
0.010451
0.0547445
0.0548457
0.0548948
0.0548608
0.0547194
0.0544482
0.0540238
0.0534203
0.0526067
0.0515462
0.0501941
0.0484959
0.0463845
0.0437751
0.0405544
0.0365512
0.0314404
0.0243047
0.0106201
0.0561989
0.0562846
0.0563217
0.0562798
0.0561343
0.0558628
0.0554413
0.0548427
0.054035
0.0529789
0.0516263
0.049918
0.0477801
0.0451192
0.041812
0.0376768
0.0323782
0.0249817
0.0108864
0.0580295
0.0580999
0.0581254
0.0580767
0.0579301
0.0576631
0.0572516
0.0566682
0.0558792
0.0548435
0.0535092
0.0518114
0.0496674
0.0469711
0.0435824
0.0392996
0.0337649
0.0260087
0.0113002
0.0603033
0.0603582
0.0603722
0.0603183
0.0601739
0.0599173
0.0595249
0.0589691
0.0582159
0.0572223
0.0559334
0.054278
0.052163
0.0494656
0.0460203
0.0415908
0.0357755
0.027538
0.0119314
0.0630889
0.063128
0.0631308
0.0630735
0.0629353
0.0626959
0.0623329
0.0618194
0.061122
0.0601973
0.0589884
0.0574191
0.0553857
0.0527456
0.049299
0.0447551
0.038633
0.0297725
0.0128747
0.0664581
0.0664815
0.066474
0.0664155
0.0662879
0.0660728
0.0657499
0.0652942
0.0646741
0.0638479
0.0627592
0.0613297
0.0594479
0.0569523
0.0536027
0.049031
0.0426225
0.0329902
0.0142585
0.0704892
0.0704981
0.0704821
0.0704252
0.0703127
0.0701289
0.0698561
0.0694726
0.0689503
0.0682518
0.0673246
0.0660937
0.0644473
0.0622127
0.0591135
0.0546891
0.0481197
0.0376049
0.0162752
0.0752732
0.0752701
0.0752483
0.0751966
0.0751036
0.074957
0.0747425
0.0744426
0.0740347
0.0734879
0.0727585
0.0717818
0.0704573
0.0686199
0.0659822
0.0620089
0.0556219
0.0443023
0.0192762
0.080921
0.0809097
0.0808863
0.0808438
0.0807743
0.080669
0.0805178
0.0803082
0.0800241
0.0796436
0.0791352
0.0784522
0.0775192
0.076207
0.0742706
0.0711918
0.0657224
0.0543258
0.0241781
0.0875703
0.0875566
0.0875369
0.0875079
0.087465
0.087403
0.0873161
0.087197
0.0870367
0.0868231
0.086539
0.0861592
0.0856438
0.0849239
0.0838639
0.0821436
0.0787998
0.0699427
0.0354551
0.0953928
0.0953845
0.0953752
0.0953641
0.0953497
0.0953302
0.0953039
0.0952687
0.0952219
0.0951603
0.0950796
0.0949742
0.0948362
0.094656
0.0944226
0.0941299
0.0937851
0.0932347
0.0865105
)
;

boundaryField
{
    leftWall
    {
        type            kqRWallFunction;
        value           nonuniform List<scalar> 
50
(
0.1
0.1
0.1
0.1
0.1
0.1
0.1
0.1
0.1
0.1
0.1
0.1
0.1
0.1
0.1
0.1
0.1
0.1
0.1
0.1
0.1
0.1
0.1
0.1
0.1
0.1
0.1
0.1
0.0184761
0.00609377
0.00607291
0.00696185
0.00767674
0.0082255
0.00865303
0.00899335
0.00927421
0.00952152
0.0097628
0.0100306
0.0103663
0.0108249
0.0114793
0.0124271
0.0138015
0.0158018
0.0187805
0.0235907
0.0346044
0.0846438
)
;
    }
    rightWall
    {
        type            kqRWallFunction;
        value           nonuniform List<scalar> 
50
(
0.00154119
0.00286266
0.00380501
0.00456986
0.00520854
0.00576264
0.00625927
0.00671481
0.00737366
0.00806401
0.00858661
0.00898451
0.00928807
0.0095191
0.0096939
0.00982507
0.00992253
0.00999416
0.0100462
0.0100836
0.0101101
0.0101288
0.0101418
0.0101507
0.0101569
0.0101612
0.0101642
0.0101666
0.0101686
0.0101708
0.0101736
0.0101777
0.0101841
0.0101941
0.0102103
0.0102362
0.0102778
0.0103445
0.010451
0.0106201
0.0108864
0.0113002
0.0119314
0.0128747
0.0142585
0.0162752
0.0192762
0.0241781
0.0354551
0.0865105
)
;
    }
    lowerWall
    {
        type            kqRWallFunction;
        value           nonuniform List<scalar> 
62
(
0.1
0.1
0.1
0.1
0.1
0.1
0.1
0.1
0.1
0.1
0.1
0.1
0.1
0.00728956
0.00277243
0.00372805
0.00433897
0.00466429
0.00474843
0.00457398
0.00406628
0.00306234
0.00115235
0.00115235
0.00281403
0.00390149
0.00482365
0.00570727
0.00673224
0.00834789
0.0120223
0.0142289
0.0123044
0.0125201
0.0150423
0.00128591
0.00321997
0.00450517
0.00562917
0.00672362
0.00799338
0.00993848
0.014063
0.00128591
0.00363819
0.00494207
0.00572264
0.00620342
0.00650155
0.00667916
0.00676912
0.00678835
0.00674436
0.00663842
0.00646698
0.00622208
0.00589084
0.00545341
0.00487771
0.00410562
0.00301021
0.00154119
)
;
    }
    atmosphere
    {
        type            inletOutlet;
        inletValue      uniform 0.1;
        value           uniform 0.1;
    }
    defaultFaces
    {
        type            empty;
    }
}


// ************************************************************************* //
