/*--------------------------------*- C++ -*----------------------------------*\
| =========                 |                                                 |
| \\      /  F ield         | OpenFOAM: The Open Source CFD Toolbox           |
|  \\    /   O peration     | Version:  2406                                  |
|   \\  /    A nd           | Website:  www.openfoam.com                      |
|    \\/     M anipulation  |                                                 |
\*---------------------------------------------------------------------------*/
FoamFile
{
    version     2.0;
    format      ascii;
    arch        "LSB;label=32;scalar=64";
    class       volScalarField;
    location    "0.75";
    object      nut;
}
// * * * * * * * * * * * * * * * * * * * * * * * * * * * * * * * * * * * * * //

dimensions      [0 2 -1 0 0 0 0];

internalField   nonuniform List<scalar> 
2268
(
0.000289337
0.000213038
0.000213038
0.000213038
0.000213038
0.000213038
0.000213038
0.000213038
0.000213038
0.000213038
0.000213038
0.000213038
0.000213038
5.72739e-05
3.28982e-05
3.8358e-05
4.15461e-05
4.31708e-05
4.36234e-05
4.2859e-05
4.0433e-05
3.50829e-05
2.14841e-05
0.000450785
0.000254306
0.000232321
0.000225511
0.000222385
0.000220634
0.000219545
0.000218827
0.000218345
0.000218025
0.00021783
0.000217737
0.000217737
3.46127e-05
0.000177946
0.000290506
0.000336409
0.000358633
0.000365609
0.000357289
0.000327583
0.000258034
7.09827e-05
0.000450785
0.000288167
0.000251962
0.000238672
0.000232268
0.000228639
0.000226375
0.000224885
0.000223885
0.000223224
0.000222819
0.000222626
0.000222626
4.0201e-05
0.00026713
0.000482137
0.000582408
0.000631917
0.000648369
0.000631717
0.00056863
0.000421371
8.37342e-05
0.000450785
0.000314823
0.000270613
0.00025196
0.000242449
0.000236938
0.000233468
0.000231176
0.000229635
0.000228616
0.000227992
0.000227696
0.000227696
4.79794e-05
0.000329402
0.000615628
0.000762597
0.000837669
0.000863892
0.00084079
0.000748577
0.000535033
9.3248e-05
0.000450785
0.000335499
0.000287638
0.000264953
0.00025271
0.000245414
0.000240757
0.00023766
0.000235569
0.000234184
0.000233336
0.000232932
0.000232932
5.59581e-05
0.000378752
0.000718037
0.00090466
0.00100348
0.00104006
0.0010131
0.000896907
0.000626599
0.000101574
0.000450785
0.000351572
0.000302834
0.000277373
0.000262866
0.000253958
0.000248176
0.000244294
0.000241659
0.000239907
0.000238832
0.00023832
0.00023832
6.40024e-05
0.000420942
0.000803758
0.00102573
0.00114751
0.00119564
0.00116801
0.00103324
0.000712059
0.000110487
0.000450785
0.000364209
0.000316232
0.000289058
0.00027278
0.000262475
0.000255662
0.000251035
0.000247873
0.000245762
0.000244464
0.000243844
0.000243844
7.21533e-05
0.000458991
0.000881012
0.00113659
0.0012816
0.00134315
0.00131875
0.00117223
0.00080514
0.000123252
0.000450785
0.00037429
0.000327979
0.000299933
0.000282353
0.000270886
0.000263158
0.000257843
0.000254182
0.000251726
0.00025021
0.000249486
0.000249486
8.04635e-05
0.0004948
0.00095515
0.00124464
0.00141417
0.00149153
0.00147511
0.00132741
0.00092932
0.000148161
2.28181e-05
3.86255e-05
4.50727e-05
4.85204e-05
5.05209e-05
5.17166e-05
5.24089e-05
5.27456e-05
5.27983e-05
5.25968e-05
5.21437e-05
5.14204e-05
5.03864e-05
4.89722e-05
4.70619e-05
4.44491e-05
4.07154e-05
3.47872e-05
3.46833e-05
8.49885e-05
0.000304329
0.000389361
0.000432644
0.000456987
0.000471257
0.000479375
0.000483159
0.000483448
0.000480572
0.000474558
0.000465197
0.000452041
0.000434315
0.000410677
0.000378627
0.00033272
0.00025738
7.93429e-05
0.00010081
0.000514135
0.0007015
0.00079744
0.000850889
0.000881921
0.000899401
0.000907354
0.000907591
0.000900822
0.000887123
0.000866105
0.000836911
0.000798034
0.000746825
0.00067821
0.000580923
0.000423193
9.17135e-05
0.000112913
0.000665249
0.000945085
0.00109033
0.00117107
0.00121774
0.00124385
0.00125552
0.00125546
0.00124475
0.00122353
0.00119127
0.00114678
0.00108796
0.00101109
0.000908925
0.000765459
0.000537143
0.000100708
0.000123588
0.000788209
0.00115039
0.00133951
0.00144439
0.00150482
0.00153844
0.00155317
0.00155252
0.00153787
0.00150943
0.00146654
0.00140773
0.00133039
0.00122987
0.0010971
0.000912236
0.000623332
0.000107681
0.000134917
0.000901761
0.00133932
0.00156639
0.00169184
0.00176402
0.00180396
0.00182104
0.00181943
0.00180076
0.00176525
0.00171214
0.00163969
0.00154481
0.00142198
0.00126053
0.00103732
0.000694131
0.000113406
0.000150587
0.00102208
0.0015285
0.00178618
0.00192831
0.00201019
0.00205528
0.00207401
0.00207103
0.00204814
0.00200557
0.00194241
0.00185665
0.00174472
0.00160024
0.00141095
0.00115076
0.000756351
0.000118317
0.000179216
0.00117612
0.00173294
0.00201027
0.0021648
0.00225442
0.00230358
0.00232329
0.0023185
0.00229113
0.00224136
0.00216811
0.00206906
0.00194012
0.00177399
0.00155679
0.00125951
0.000814235
0.000122656
0.000450785
0.000387195
0.000344345
0.000315956
0.000296959
0.000284001
0.000275003
0.000268693
0.000264289
0.000261311
0.000259464
0.000258578
0.000258578
9.38757e-05
0.000549454
0.00107199
0.00141758
0.00162892
0.00173547
0.00173983
0.00161701
0.00130896
0.000759947
0.000450785
0.000399213
0.000361271
0.000333993
0.000314483
0.000300478
0.000290379
0.0002831
0.000277922
0.000274373
0.000272153
0.000271084
0.000271084
0.0001114
0.00060865
0.00119502
0.00160354
0.00186776
0.00201956
0.00207003
0.00201375
0.00183594
0.00153561
0.000450785
0.00040801
0.000374622
0.000349177
0.000330021
0.000315683
0.000304996
0.000297099
0.000291375
0.0002874
0.000284892
0.000283678
0.000283678
0.000128266
0.000656672
0.00129201
0.00175259
0.00206494
0.00226266
0.0023635
0.00237484
0.00230244
0.00216613
0.000450785
0.000414731
0.000385376
0.00036202
0.000343726
0.000329558
0.000318697
0.000310491
0.000304441
0.000300186
0.000297478
0.000296161
0.000296161
0.000144455
0.000696928
0.00137182
0.00187655
0.00223195
0.0024724
0.00261958
0.00268694
0.00268658
0.00263726
0.000450785
0.000420035
0.000394195
0.000372953
0.000355792
0.000342126
0.0003314
0.000323137
0.000316952
0.000312552
0.00030973
0.000308351
0.000308351
0.000159885
0.000731146
0.00143865
0.00198108
0.00237416
0.00265232
0.00283898
0.00294973
0.00299731
0.00299553
0.000450785
0.000424321
0.000401532
0.000382317
0.000366406
0.000353446
0.000343071
0.000334945
0.000328781
0.000324351
0.000321489
0.000320084
0.000320085
0.000174445
0.000760337
0.00149484
0.00206936
0.00249489
0.0028053
0.00302452
0.00316853
0.00324905
0.00327607
0.000450785
0.000427843
0.000407701
0.000390371
0.000375734
0.000363591
0.000353708
0.000345858
0.000339834
0.000335466
0.000332625
0.000331227
0.000331227
0.000188028
0.000785198
0.00154195
0.0021436
0.0025967
0.00293421
0.00317999
0.00334969
0.00345397
0.0035004
0.000450785
0.000430772
0.000412923
0.000397315
0.00038392
0.000372637
0.000363328
0.000355845
0.000350045
0.000345808
0.000343037
0.000341669
0.000341669
0.000200556
0.000806303
0.00158128
0.00220569
0.00268196
0.00304201
0.00330932
0.00349914
0.00362123
0.00368176
0.000450785
0.000433224
0.000417361
0.000403305
0.000391082
0.000380657
0.000371958
0.000364895
0.000359375
0.000355316
0.000352649
0.000351327
0.000351327
0.00021199
0.000824199
0.00161405
0.00225743
0.00275302
0.00313166
0.00341641
0.00362207
0.0037578
0.00382898
0.000450785
0.000435286
0.000421137
0.000408463
0.000397322
0.000387722
0.000379635
0.000373014
0.000367803
0.000363949
0.000361407
0.000360144
0.000360144
0.000222338
0.000839459
0.00164148
0.00230066
0.00281231
0.0032062
0.00350498
0.0037231
0.00386932
0.00394859
0.000450785
0.000437019
0.000424342
0.000412884
0.000402724
0.000393894
0.000386397
0.000380216
0.000375323
0.000371686
0.000369279
0.000368082
0.000368082
0.000231652
0.000852707
0.00166487
0.00233733
0.00286234
0.0032687
0.00357868
0.00380649
0.00396067
0.00404594
0.000450785
0.000438471
0.000427049
0.00041665
0.00040736
0.00039923
0.000392283
0.000386522
0.000381939
0.00037852
0.000376251
0.000375119
0.000375119
0.00024004
0.000864664
0.00168566
0.00236951
0.00290577
0.00332232
0.00364112
0.00387627
0.00403623
0.00412568
0.000450785
0.000439678
0.000429314
0.000419822
0.000411291
0.000403783
0.000397334
0.00039196
0.000387667
0.000384454
0.000382317
0.000381249
0.000381249
0.000247679
0.000876204
0.00170548
0.00239956
0.0029455
0.00337036
0.00369591
0.0039363
0.00410006
0.004192
0.000450785
0.000440668
0.000431183
0.000422453
0.000414569
0.000407599
0.000401585
0.000396555
0.000392524
0.000389499
0.000387483
0.000386474
0.000386475
0.000254857
0.000888484
0.00172638
0.00243027
0.00298482
0.00341638
0.00374674
0.00399032
0.00415595
0.00424869
0.000450785
0.000441464
0.000432691
0.000424585
0.000417237
0.000410717
0.000405072
0.000400336
0.000396531
0.000393669
0.000391759
0.000390803
0.000390803
0.00026206
0.000903209
0.00175126
0.00246537
0.00302778
0.00346438
0.00379745
0.00404199
0.00420741
0.00429916
0.000450785
0.000442081
0.000433866
0.000426252
0.00041933
0.00041317
0.000407824
0.000403327
0.000399707
0.000396981
0.000395158
0.000394245
0.000394246
0.000270215
0.000923304
0.00178484
0.0025104
0.0030797
0.00351907
0.00385207
0.00409487
0.00425766
0.0043464
0.000450785
0.000442534
0.000434729
0.00042748
0.000420876
0.000414987
0.000409865
0.000405551
0.000402072
0.000399449
0.000397694
0.000396814
0.000396815
0.000281344
0.000954936
0.00183632
0.00257447
0.00314795
0.00358599
0.00391483
0.0041523
0.00430953
0.00439295
0.000450785
0.000442831
0.000435296
0.000428289
0.000421895
0.000416186
0.000411215
0.000407023
0.00040364
0.000401086
0.000399377
0.00039852
0.000398521
0.000300983
0.00101496
0.00192599
0.00267306
0.00324247
0.00367129
0.0039897
0.00421714
0.00436529
0.00444079
0.000450785
0.000442978
0.000435578
0.00042869
0.000422401
0.000416782
0.000411887
0.000407756
0.000404421
0.000401903
0.000400217
0.000399371
0.000399372
0.000353024
0.00116313
0.00209976
0.0028299
0.00337436
0.00378034
0.00407961
0.00429127
0.00442644
0.00449129
0.000450785
0.000442978
0.000435578
0.00042869
0.000422402
0.000416782
0.000411887
0.000407756
0.000404421
0.000401903
0.000400217
0.000399372
0.00030756
0.000804796
0.00164567
0.00243482
0.00306517
0.00354872
0.00391445
0.00418501
0.0043751
0.00449351
0.00454512
0.000193065
0.000195139
0.000212361
0.000226386
0.000237008
0.000245232
0.000252041
0.000258459
0.00026583
0.00027653
0.000296429
0.000349856
0.000802801
0.00148965
0.00219985
0.00282773
0.00334349
0.00375219
0.00406782
0.00430315
0.00446732
0.00456604
0.00460238
0.000106338
0.000362371
0.000499078
0.000593826
0.000666014
0.000724101
0.000773237
0.000817548
0.000861576
0.000912655
0.000988527
0.00114936
0.00163852
0.00219751
0.00273945
0.00322356
0.00363377
0.00396843
0.00423189
0.00442951
0.00456561
0.00464294
0.00466276
0.000104575
0.000628035
0.000927297
0.00112277
0.00126767
0.00138333
0.00148095
0.00156833
0.00165312
0.0017464
0.00186966
0.00206917
0.0024211
0.00282496
0.0032259
0.00359454
0.00391607
0.00418458
0.00439885
0.00455951
0.00466743
0.00472299
0.00472586
0.00011231
0.000785993
0.00123134
0.00152686
0.00174474
0.00191759
0.00206268
0.00219132
0.00231335
0.00244048
0.00258984
0.00278598
0.00304948
0.00334664
0.0036467
0.0039287
0.00417972
0.00439246
0.0045631
0.00468966
0.00477081
0.0048053
0.00479156
0.000118269
0.000883221
0.00143605
0.00181535
0.0020982
0.00232318
0.00251156
0.00267692
0.00283004
0.00298155
0.00314347
0.0033283
0.00354221
0.00377304
0.00400485
0.0042241
0.00442083
0.0045882
0.00472166
0.00481803
0.00487481
0.00488969
0.00486028
0.000122698
0.000950599
0.00158202
0.00202772
0.00236506
0.00263515
0.00286126
0.00305811
0.00323653
0.00340582
0.0035746
0.00375001
0.00393477
0.00412419
0.00431019
0.00448453
0.00464013
0.00477141
0.00487402
0.00494447
0.00497974
0.00497695
0.00493321
0.000126095
0.00100111
0.00169247
0.0021911
0.00257362
0.0028821
0.00314064
0.0033643
0.00356363
0.00374683
0.00392062
0.00408992
0.0042568
0.00441967
0.00457457
0.00471672
0.00484138
0.00494432
0.0050218
0.0050705
0.00508725
0.00506897
0.00501248
0.000128795
0.00104129
0.00178077
0.00232291
0.00274355
0.00308503
0.00337168
0.00361852
0.00383569
0.00403067
0.00420916
0.00437521
0.00453096
0.00467638
0.00480986
0.0049288
0.00503024
0.00511112
0.00516844
0.0051992
0.00520038
0.00516882
0.00510128
0.000131047
0.0010753
0.00185581
0.00243554
0.00288958
0.00326029
0.00357194
0.00383935
0.00407235
0.00427793
0.0044613
0.00462625
0.00477515
0.00490898
0.0050275
0.00512961
0.00521362
0.00527746
0.00531879
0.00533502
0.00532333
0.00528067
0.00520382
0.00013307
0.00110646
0.00192473
0.00253918
0.00302416
0.00342194
0.00375664
0.00404294
0.00429042
0.00450586
0.00469433
0.00485962
0.00500445
0.00513049
0.00523846
0.00532829
0.00539921
0.00544996
0.00547876
0.00548342
0.00546137
0.0054097
0.0053253
0.000135087
0.00113799
0.00199432
0.0026435
0.00315909
0.00358327
0.00394009
0.00424419
0.00450515
0.00472981
0.00492332
0.00508973
0.00523214
0.0053528
0.00545316
0.00553389
0.00559495
0.00563568
0.00565479
0.00565045
0.00562033
0.00556169
0.00547156
0.000137349
0.00117336
0.00207177
0.00275853
0.00330643
0.00375762
0.00413631
0.0044574
0.00473081
0.00496374
0.00516174
0.00532929
0.00546995
0.00558655
0.0056811
0.00575487
0.00580839
0.00584147
0.00585323
0.00584213
0.00580608
0.0057425
0.00564858
0.000140163
0.00121647
0.00216487
0.00289494
0.00347866
0.00395843
0.00435905
0.00469615
0.00498051
0.00522012
0.00542128
0.00558909
0.00572775
0.0058406
0.00593019
0.00599828
0.00604584
0.00607306
0.00607937
0.00606352
0.0060236
0.0059572
0.00586166
0.000143896
0.00127153
0.00228182
0.00306371
0.00368832
0.00419876
0.00462108
0.0049725
0.00526537
0.00550905
0.00571101
0.00587725
0.00601266
0.00612119
0.00620584
0.00626878
0.00631133
0.00633399
0.00633645
0.00631767
0.00627593
0.00620899
0.00611431
0.000148982
0.00134271
0.00243059
0.00327543
0.00394717
0.00449026
0.00493315
0.00529586
0.00559334
0.00583714
0.00603632
0.00619806
0.00632808
0.00643088
0.00650989
0.00656761
0.00660561
0.00662463
0.00662456
0.00660454
0.00656304
0.006498
0.006407
0.000155907
0.00143378
0.00261852
0.00353998
0.00426578
0.00484251
0.00530292
0.00567175
0.00596801
0.00620632
0.00639785
0.00655116
0.00667282
0.00676783
0.00683996
0.00689191
0.00692543
0.00694141
0.00693989
0.00692021
0.006881
0.00682039
0.00673614
0.000165222
0.00154856
0.00285374
0.0038683
0.00465462
0.00526324
0.00573463
0.00610118
0.00638786
0.00661328
0.00679107
0.00693118
0.00704093
0.00712567
0.00718933
0.00723468
0.00726353
0.00727683
0.00727476
0.00725679
0.00722178
0.00716806
0.00709362
0.000177642
0.00169348
0.00315114
0.00427818
0.00512782
0.00576007
0.0062296
0.00658074
0.00684637
0.00704969
0.00720668
0.00732839
0.00742247
0.00749437
0.0075479
0.00758573
0.00760959
0.0076204
0.00761842
0.00760328
0.00757405
0.00752933
0.00746739
0.000194457
0.00188562
0.00354746
0.00480624
0.00570916
0.00634243
0.00678656
0.00710268
0.00733253
0.0075032
0.00763204
0.00773027
0.00780527
0.00786205
0.00790403
0.00793354
0.00795207
0.00796047
0.00795899
0.0079474
0.00792501
0.00789075
0.00784321
0.00021976
0.00217426
0.0041345
0.00552701
0.00643689
0.00702035
0.00739976
0.00765431
0.00783146
0.00795896
0.00805314
0.00812385
0.00817728
0.00821743
0.00824697
0.00826767
0.00828069
0.00828666
0.00828583
0.00827806
0.0082629
0.0082396
0.00820719
0.000286229
0.00268113
0.00511575
0.00656675
0.00735368
0.00779277
0.00805235
0.00821582
0.00832497
0.00840145
0.00845698
0.00849821
0.00852914
0.00855228
0.00856926
0.00858117
0.00858869
0.00859223
0.00859195
0.00858779
0.00857951
0.0085667
0.00854877
0.000445539
0.00361837
0.00680346
0.00802286
0.0084408
0.00861572
0.00870549
0.00875855
0.00879299
0.00881679
0.00883395
0.00884666
0.00885617
0.00886329
0.00886852
0.0088722
0.00887455
0.00887569
0.00887568
0.00887452
0.00887213
0.00886838
0.00886304
0.000162577
0.000151476
0.000152963
0.000167741
0.00126058
0.00121754
0.00123374
0.00130991
0.00206278
0.00203654
0.00206581
0.00214805
0.00259018
0.00258128
0.00261812
0.002696
0.00297212
0.00297262
0.00301483
0.00309308
0.00326568
0.00327206
0.00331861
0.00339917
0.00349879
0.00350952
0.00355971
0.00364292
0.00368676
0.00370095
0.0037542
0.00383988
0.00383912
0.0038561
0.00391188
0.0039997
0.00396269
0.00398187
0.00403967
0.00412925
0.00406296
0.00408377
0.0041431
0.00423405
0.00414465
0.00416653
0.00422691
0.00431882
0.00421195
0.00423437
0.00429529
0.00438772
0.00426864
0.00429102
0.00435197
0.00444445
0.00431804
0.00433977
0.00440018
0.00449222
0.00436303
0.00438343
0.0044427
0.00453377
0.00440602
0.00442436
0.00448185
0.00457137
0.00444889
0.00446438
0.00451942
0.00460683
0.00449297
0.00450485
0.00455679
0.00464153
0.00453908
0.00454663
0.00459487
0.00467645
0.00458754
0.0045902
0.00463429
0.00471233
0.00463843
0.00463583
0.00467546
0.00474971
0.00469178
0.00468378
0.00471884
0.00478919
0.00474787
0.00473453
0.00476506
0.00483156
0.00480743
0.004789
0.00481521
0.00487804
0.00487191
0.00484878
0.00487098
0.0049304
0.00494362
0.00491626
0.00493485
0.00499119
0.00502583
0.00499478
0.00501019
0.00506381
0.00512284
0.00508867
0.00510135
0.00515257
0.0052399
0.00520321
0.00521358
0.0052627
0.00538294
0.00534437
0.00535283
0.00540004
0.00555813
0.00551837
0.00552528
0.00557063
0.005771
0.00573085
0.00573649
0.00577987
0.00602537
0.00598576
0.00599038
0.00603146
0.00632208
0.00628408
0.00628787
0.0063261
0.00665781
0.00662261
0.0066257
0.00666034
0.00702455
0.00699337
0.00699586
0.00702606
0.00740998
0.00738396
0.0073859
0.00741085
0.0077992
0.00777916
0.00778059
0.00779969
0.00817727
0.00816357
0.00816453
0.00817758
0.00853236
0.0085248
0.00852534
0.0085326
0.0088582
0.00885604
0.00885623
0.00885847
0.000878879
0.00161923
0.00210072
0.00238318
0.00255074
0.00265011
0.0027044
0.00272479
0.00271648
0.00268147
0.00261981
0.0025301
0.00240944
0.00225277
0.00205118
0.00178804
0.00142969
0.000901596
0.00012868
0.00171239
0.00221482
0.00258726
0.00283799
0.00300014
0.00310021
0.00315449
0.00317193
0.00315693
0.00311106
0.003034
0.00292391
0.0027772
0.00258778
0.00234503
0.0020296
0.00160361
0.000988122
0.000134782
0.00238849
0.00273935
0.0030271
0.00323962
0.00338609
0.00347906
0.00352823
0.00353961
0.00351624
0.00345896
0.00336699
0.003238
0.00306787
0.00284973
0.00257182
0.00221301
0.00173301
0.00105116
0.000139291
0.00289663
0.00317575
0.00341037
0.00359136
0.00372026
0.0038026
0.00384361
0.00384682
0.00381391
0.00374496
0.00363862
0.00349215
0.003301
0.00305776
0.0027499
0.0023552
0.00183194
0.00109873
0.000142682
0.0032858
0.00353353
0.00373742
0.00389553
0.00400862
0.0040795
0.00411098
0.00410492
0.00406191
0.00398132
0.00386135
0.00369889
0.00348905
0.00322404
0.00289087
0.00246662
0.00190868
0.00113529
0.000145257
0.00359256
0.00382696
0.00401344
0.00415566
0.00425566
0.00431565
0.00433739
0.00432176
0.00426862
0.00417681
0.00404415
0.00386723
0.00364092
0.00335722
0.0030028
0.00255433
0.00196861
0.00116361
0.00014722
0.00383918
0.00406818
0.00424465
0.00437589
0.00446541
0.00451568
0.00452814
0.00450322
0.00444035
0.00433802
0.00419375
0.00400395
0.00376332
0.0034637
0.00309159
0.00262338
0.00201545
0.00118559
0.000148714
0.00403934
0.00426642
0.004437
0.00456052
0.00464173
0.00468359
0.00468761
0.00465406
0.00458217
0.00447021
0.00431555
0.00411444
0.0038615
0.00354846
0.00316174
0.00267753
0.00205194
0.00120259
0.000149847
0.00420211
0.00442883
0.00459581
0.00471378
0.0047884
0.00482313
0.00481969
0.00477838
0.00469836
0.00457782
0.00441401
0.00420312
0.00393971
0.00361549
0.0032168
0.00271974
0.0020802
0.00121565
0.0001507
0.00433419
0.00456119
0.00472586
0.00483974
0.00490911
0.00493787
0.00492798
0.00487987
0.0047927
0.00466465
0.00449293
0.00427371
0.00400152
0.00366807
0.00325968
0.00275237
0.00210188
0.0012256
0.000151337
0.00444101
0.00466845
0.00483153
0.00494229
0.00500745
0.00503124
0.00501586
0.00496189
0.00486857
0.00473406
0.00455562
0.0043294
0.00404994
0.00370896
0.00329277
0.00277736
0.00211837
0.00123311
0.000151807
0.00452723
0.00475497
0.00491681
0.00502508
0.0050868
0.00510646
0.00508648
0.00502754
0.00492899
0.00478904
0.00460496
0.00437293
0.00408752
0.00374045
0.00331805
0.0027963
0.00213077
0.00123871
0.000152151
0.00459696
0.00482466
0.00498534
0.0050915
0.00515034
0.00516656
0.0051427
0.00507961
0.00497667
0.00483218
0.00464344
0.00440664
0.00411641
0.00376447
0.00333719
0.00281052
0.00214
0.00124284
0.0001524
0.00465383
0.00488098
0.00504039
0.00514462
0.00520098
0.00521426
0.00518716
0.00512058
0.00501401
0.00486577
0.0046732
0.00443254
0.00413843
0.00378264
0.00335153
0.00282108
0.00214679
0.00124586
0.000152578
0.00470097
0.00492698
0.00508486
0.00518718
0.00524128
0.00525202
0.00522216
0.00515267
0.00504308
0.00489176
0.00469607
0.0044523
0.0041551
0.00379627
0.0033622
0.00282886
0.00215175
0.00124803
0.000152704
0.0047411
0.00496525
0.00512123
0.00522155
0.0052735
0.00528197
0.00524973
0.00517778
0.00506567
0.00491182
0.0047136
0.00446733
0.00416768
0.00380646
0.0033701
0.00283456
0.00215534
0.0012496
0.000152793
0.00477644
0.00499798
0.00515164
0.00524978
0.00529961
0.00530597
0.00527161
0.00519754
0.00508332
0.00492737
0.00472709
0.00447879
0.00417718
0.00381409
0.00337595
0.00283874
0.00215794
0.00125071
0.000152855
0.00480881
0.00502697
0.00517784
0.00527358
0.00532124
0.00532559
0.0052893
0.00521337
0.00509734
0.00493962
0.00473762
0.00448767
0.00418447
0.00381989
0.00338034
0.00284184
0.00215985
0.00125152
0.0001529
0.00483962
0.00505367
0.00520131
0.00529441
0.00533984
0.0053422
0.00530412
0.00522649
0.00510886
0.00494961
0.00474615
0.00449479
0.00419027
0.00382445
0.00338376
0.00284422
0.00216129
0.00125212
0.000152932
0.00486996
0.00507928
0.0052233
0.00531355
0.00535665
0.00535704
0.00531721
0.00523802
0.00511892
0.00495829
0.00475352
0.00450092
0.00419523
0.00382831
0.00338663
0.00284619
0.00216247
0.00125261
0.000152957
0.00490071
0.0051048
0.00524489
0.00533212
0.00537282
0.00537122
0.0053297
0.00524899
0.0051285
0.00496656
0.00476054
0.00450676
0.00419995
0.00383199
0.00338935
0.00284804
0.00216356
0.00125305
0.00015298
0.00493262
0.00513118
0.00526715
0.00535125
0.0053895
0.00538592
0.0053427
0.00526048
0.0051386
0.00497535
0.00476807
0.00451307
0.00420508
0.003836
0.00339232
0.00285008
0.00216477
0.00125354
0.000153005
0.00496649
0.0051594
0.00529119
0.00537215
0.00540794
0.00540236
0.00535743
0.00527368
0.00515037
0.00498573
0.00477708
0.00452071
0.00421138
0.00384099
0.00339606
0.00285266
0.0021663
0.00125416
0.000153037
0.00500333
0.00519066
0.00531836
0.00539622
0.00542959
0.00542202
0.00537537
0.00529002
0.00516517
0.00499899
0.00478876
0.00453077
0.00421979
0.00384775
0.0034012
0.00285625
0.00216847
0.00125505
0.000153083
0.00504451
0.00522652
0.0053503
0.0054252
0.00545623
0.0054467
0.00539828
0.00531126
0.00518472
0.00501676
0.00480465
0.00454467
0.00423159
0.00385737
0.00340862
0.00286152
0.00217169
0.00125639
0.000153153
0.00509195
0.00526903
0.00538917
0.0054613
0.0054901
0.00547864
0.00542844
0.00533962
0.00521119
0.00504118
0.0048268
0.00456432
0.0042485
0.00387137
0.00341959
0.00286942
0.00217659
0.00125846
0.000153262
0.00514827
0.00532086
0.0054377
0.00550728
0.005534
0.00552067
0.00546865
0.00537794
0.0052474
0.005075
0.00485787
0.00459225
0.00427289
0.00389186
0.00343589
0.00288135
0.0021841
0.00126166
0.000153435
0.00521686
0.00538542
0.0054993
0.00556659
0.00559137
0.00557627
0.00552244
0.00542973
0.00529689
0.00512176
0.00490137
0.00463187
0.00430799
0.00392179
0.00346006
0.00289933
0.0021956
0.00126665
0.000153708
0.00530199
0.0054669
0.00557811
0.00564332
0.00566634
0.00564957
0.00559399
0.00549927
0.00536401
0.00518587
0.00496174
0.0046876
0.00435808
0.00396516
0.00349568
0.00292626
0.00221312
0.00127437
0.00015414
0.00540871
0.00557017
0.00567887
0.00574216
0.00576357
0.00574529
0.0056881
0.00559151
0.00545388
0.00527264
0.00504444
0.004765
0.00442868
0.0040273
0.00354759
0.00296621
0.00223956
0.00128624
0.000154818
0.00554261
0.00570053
0.00580667
0.00586806
0.00588798
0.0058684
0.00580992
0.0057118
0.00557214
0.00538806
0.00515582
0.0048707
0.00452662
0.00411496
0.00362213
0.00302465
0.00227898
0.00130425
0.000155878
0.00570936
0.00586316
0.00596639
0.00602572
0.00604422
0.00602365
0.00596438
0.00586541
0.00572451
0.00553837
0.0053027
0.00501213
0.00465979
0.00423624
0.00372717
0.00310857
0.0023367
0.00133117
0.000157515
0.00591386
0.00606242
0.00616195
0.00621883
0.0062359
0.00621472
0.0061554
0.00605667
0.0059159
0.00572924
0.00549164
0.00519676
0.00483651
0.00440006
0.0038717
0.00322623
0.00241918
0.00137042
0.000160006
0.00615919
0.00630069
0.00639529
0.00644904
0.00646457
0.00644323
0.0063849
0.00628797
0.00614939
0.00596465
0.00572775
0.005431
0.0050645
0.00461521
0.00406498
0.00338639
0.00253341
0.00142586
0.000163712
0.00644544
0.00657737
0.00666532
0.00671498
0.00672878
0.00670782
0.00665175
0.00655866
0.00642504
0.00624566
0.0060134
0.00571882
0.00534951
0.00488908
0.00431545
0.00359733
0.00268599
0.00150114
0.000169066
0.00676863
0.00688798
0.00696723
0.00701167
0.00702345
0.00700347
0.00695114
0.00686429
0.00673902
0.00656941
0.00634713
0.00606065
0.0056943
0.00522689
0.00463017
0.00386643
0.00288259
0.00159921
0.000176554
0.00712042
0.00722398
0.00729242
0.00733045
0.00733995
0.00732156
0.00727455
0.00719657
0.00708347
0.00692883
0.00672318
0.00645287
0.00609829
0.00563182
0.0050159
0.00420206
0.00312967
0.00172296
0.000186729
0.00748861
0.00757356
0.00762936
0.00766001
0.00766705
0.00765091
0.00761075
0.00754424
0.00744723
0.00731314
0.00713188
0.00688801
0.00655798
0.00610636
0.0054823
0.00461896
0.00344033
0.00187793
0.000200345
0.00785896
0.00792341
0.00796544
0.00798818
0.00799281
0.00797955
0.00794758
0.00789478
0.0078174
0.00770929
0.00756059
0.00735533
0.00706726
0.0066534
0.00604587
0.00514735
0.00384625
0.00207812
0.000218766
0.00821775
0.00826127
0.00828942
0.00830434
0.00830685
0.00829703
0.00827419
0.00823667
0.00818148
0.00810367
0.0079949
0.00784087
0.00761607
0.00727414
0.00673116
0.00584504
0.00442223
0.00236004
0.000245625
0.00855463
0.00857848
0.00859374
0.00860162
0.00860257
0.00859661
0.00858326
0.00856151
0.0085295
0.0084841
0.00841989
0.00832701
0.00818647
0.00795936
0.00756172
0.00681028
0.00534912
0.00283529
0.000297968
0.00886493
0.00887186
0.00887625
0.00887844
0.00887856
0.00887661
0.00887243
0.0088657
0.00885582
0.00884181
0.00882194
0.00879293
0.00874812
0.00867209
0.00852354
0.00817028
0.00713228
0.00405873
0.000465826
)
;

boundaryField
{
    leftWall
    {
        type            nutkWallFunction;
        blending        stepwise;
        value           nonuniform List<scalar> 
50
(
0
0
0
0
0
0
0
0
0
0
0
0
0
0
0
0
0
0
0
0
0
0
0
0
0
0
0
5.36008e-05
1.89217e-05
6.63526e-06
6.60561e-06
7.82105e-06
8.73534e-06
9.40457e-06
9.90843e-06
1.02994e-05
1.06158e-05
1.08898e-05
1.11533e-05
1.14414e-05
1.17965e-05
1.2271e-05
1.29288e-05
1.38445e-05
1.51042e-05
1.6816e-05
1.915e-05
2.25109e-05
2.89603e-05
4.89364e-05
)
;
    }
    rightWall
    {
        type            nutkWallFunction;
        blending        stepwise;
        value           nonuniform List<scalar> 
50
(
0
2.42706e-06
4.50279e-06
5.97809e-06
7.10453e-06
8.01918e-06
8.79703e-06
9.48001e-06
1.04225e-05
1.13597e-05
1.2039e-05
1.25406e-05
1.29148e-05
1.31949e-05
1.34043e-05
1.356e-05
1.36749e-05
1.3759e-05
1.38198e-05
1.38634e-05
1.38943e-05
1.3916e-05
1.39311e-05
1.39415e-05
1.39487e-05
1.39536e-05
1.39572e-05
1.39599e-05
1.39623e-05
1.39648e-05
1.39681e-05
1.39728e-05
1.39802e-05
1.39918e-05
1.40105e-05
1.40404e-05
1.40884e-05
1.41652e-05
1.42871e-05
1.44794e-05
1.47785e-05
1.5235e-05
1.59136e-05
1.68906e-05
1.82526e-05
2.01093e-05
2.26443e-05
2.63422e-05
3.34776e-05
5.55338e-05
)
;
    }
    lowerWall
    {
        type            nutkWallFunction;
        blending        stepwise;
        value           nonuniform List<scalar> 
62
(
0
0
0
0
0
0
0
0
0
0
0
0
2.16739e-05
0
0
0
0
0
0
0
0
0
0
0
9.37453e-07
3.12111e-06
4.71021e-06
6.0761e-06
7.51606e-06
9.55031e-06
1.34585e-05
1.56112e-05
1.38502e-05
1.40551e-05
1.63145e-05
0
3.25473e-06
5.85907e-06
7.80364e-06
9.49295e-06
1.12659e-05
1.36937e-05
1.80649e-05
0
0
0
0
0
0
0
0
0
0
0
0
0
0
0
0
0
0
0
)
;
    }
    atmosphere
    {
        type            calculated;
        value           uniform 0.009;
    }
    defaultFaces
    {
        type            empty;
    }
}


// ************************************************************************* //
