/*--------------------------------*- C++ -*----------------------------------*\
| =========                 |                                                 |
| \\      /  F ield         | OpenFOAM: The Open Source CFD Toolbox           |
|  \\    /   O peration     | Version:  2406                                  |
|   \\  /    A nd           | Website:  www.openfoam.com                      |
|    \\/     M anipulation  |                                                 |
\*---------------------------------------------------------------------------*/
FoamFile
{
    version     2.0;
    format      ascii;
    arch        "LSB;label=32;scalar=64";
    class       volScalarField;
    location    "0.75";
    object      nut;
}
// * * * * * * * * * * * * * * * * * * * * * * * * * * * * * * * * * * * * * //

dimensions      [0 2 -1 0 0 0 0];

internalField   nonuniform List<scalar> 
2268
(
3.32703e-05
3.62588e-05
4.29835e-05
4.72734e-05
5.03283e-05
5.26187e-05
5.43801e-05
5.57485e-05
5.6809e-05
5.76179e-05
5.82124e-05
5.86165e-05
5.88423e-05
5.88909e-05
5.87501e-05
5.83894e-05
5.77503e-05
5.6726e-05
5.51221e-05
5.25726e-05
4.83474e-05
4.0762e-05
2.32171e-05
7.27893e-05
0.000278031
0.000369759
0.000426214
0.000465992
0.00049581
0.000518848
0.000536871
0.00055096
0.000561815
0.000569899
0.000575504
0.000578783
0.000579754
0.000578268
0.000573941
0.000566012
0.000553047
0.000532333
0.000498563
0.000440732
0.000332462
7.95074e-05
8.55186e-05
0.0004664
0.000672128
0.000802192
0.000894816
0.00096482
0.00101933
0.00106231
0.00109616
0.00112245
0.00114219
0.00115603
0.0011643
0.00116703
0.00116386
0.00115383
0.00113508
0.00110401
0.00105376
0.000970988
0.000829152
0.000572422
9.57027e-05
9.46357e-05
0.000597701
0.000907363
0.00110984
0.00125609
0.00136758
0.00145496
0.00152424
0.00157909
0.00162188
0.00165418
0.00167698
0.00169078
0.00169559
0.00169079
0.00167483
0.00164458
0.00159409
0.00151201
0.00137666
0.00114691
0.000747013
0.000107899
0.000101547
0.000695615
0.00109538
0.00136492
0.00156244
0.00171425
0.00183394
0.00192928
0.00200506
0.00206443
0.00210944
0.00214138
0.00216093
0.00216806
0.00216191
0.00214031
0.00209893
0.00202953
0.00191659
0.00173071
0.00141761
0.000887143
0.000118354
0.000107051
0.000772657
0.00125005
0.0015806
0.0018261
0.00201632
0.00216711
0.00228773
0.00238398
0.00245965
0.00251725
0.00255837
0.00258381
0.00259355
0.00258649
0.00255991
0.00250843
0.0024219
0.00228125
0.00205057
0.00166334
0.00101336
0.000129052
0.000111587
0.000835632
0.00138028
0.00176598
0.00205599
0.0022824
0.00246284
0.00260776
0.00272382
0.00281538
0.00288536
0.00293563
0.00296712
0.0029798
0.00297241
0.00294181
0.00288181
0.00278083
0.00261737
0.00235094
0.00190433
0.00114541
0.000143683
0.000115417
0.000888505
0.00149192
0.00192742
0.00225853
0.00251889
0.00272742
0.00289557
0.0030307
0.00313768
0.0032198
0.00327917
0.00331687
0.0033329
0.00332589
0.00329244
0.00322585
0.0031138
0.00293375
0.00264386
0.00216251
0.00132148
0.000172228
2.38705e-05
4.19563e-05
4.94344e-05
5.34161e-05
5.56939e-05
5.70228e-05
5.7762e-05
5.80902e-05
5.80952e-05
5.78145e-05
5.72534e-05
5.63917e-05
5.51833e-05
5.35481e-05
5.13514e-05
4.83543e-05
4.40761e-05
3.72903e-05
3.5778e-05
9.04659e-05
0.000349746
0.00045552
0.000509463
0.000539262
0.000556144
0.000565244
0.000569012
0.000568612
0.000564529
0.00055683
0.000545266
0.00052926
0.000507806
0.000479173
0.000440192
0.000384135
0.000292365
8.32319e-05
0.000108354
0.000611762
0.000865123
0.000997593
0.00107033
0.00111095
0.00113244
0.00114099
0.00113952
0.00112924
0.00111038
0.00108239
0.00104402
0.000993038
0.000925579
0.00083454
0.000704965
0.000497547
9.71593e-05
0.000122007
0.000805782
0.00120452
0.00141998
0.0015389
0.00160503
0.00163969
0.00165318
0.00165035
0.00163325
0.00160231
0.00155675
0.00149467
0.00141268
0.0013049
0.00116066
0.000958008
0.000643126
0.000107278
0.000133846
0.000962439
0.00149524
0.00178977
0.00195316
0.00204398
0.00209132
0.00210935
0.00210484
0.00208066
0.00203744
0.00197422
0.00188851
0.00177588
0.00162869
0.00143324
0.00116219
0.000752688
0.000114997
0.000146178
0.00110323
0.00175839
0.00212302
0.00232584
0.00243872
0.00249733
0.00251912
0.00251247
0.002481
0.00242552
0.00234489
0.00223611
0.00209382
0.00190889
0.00166516
0.0013313
0.000839286
0.000121157
0.000163198
0.00124883
0.00201299
0.0024332
0.00266746
0.00279837
0.00286615
0.00289054
0.00288116
0.00284216
0.00277449
0.00267684
0.00254572
0.002375
0.00215429
0.00186546
0.00147436
0.000910226
0.000126236
0.000194977
0.00143683
0.00227834
0.00273104
0.00298617
0.00313004
0.00320434
0.00322993
0.00321708
0.00317027
0.0030905
0.00297624
0.00282362
0.00262578
0.00237132
0.00204058
0.00159741
0.000969851
0.000130524
0.000120522
0.000959223
0.00164393
0.0021506
0.00254189
0.00285283
0.00310378
0.00330737
0.00347183
0.00360275
0.00370391
0.00377777
0.00382567
0.0038477
0.00384245
0.00380636
0.00373247
0.00360836
0.00341238
0.00310762
0.00263461
0.00191983
0.00098446
0.000125744
0.00103166
0.00180256
0.00238709
0.00284598
0.00321498
0.00351553
0.00376124
0.00396119
0.00412161
0.00424684
0.00433982
0.00440223
0.00443454
0.00443574
0.00440282
0.00433002
0.00420745
0.00401948
0.00374324
0.00335017
0.00281922
0.00217573
0.000129763
0.00108814
0.0019282
0.00257676
0.00309253
0.00351144
0.00385544
0.00413872
0.00437088
0.00455867
0.00470685
0.00481879
0.00489662
0.00494133
0.00495262
0.00492864
0.00486557
0.00475722
0.00459482
0.00436806
0.00406925
0.00370457
0.00331669
0.000132911
0.00113308
0.00202942
0.00273103
0.00329476
0.00375648
0.00413839
0.00445502
0.00471632
0.00492937
0.00509932
0.00522993
0.00532382
0.00538259
0.00540683
0.005396
0.00534846
0.00526147
0.00513184
0.00495758
0.00474172
0.00449941
0.00426833
0.000135397
0.00116922
0.0021117
0.00285743
0.00346162
0.00396
0.00437489
0.00472101
0.00500853
0.00524479
0.00543525
0.00558403
0.00569424
0.0057681
0.00580709
0.00581196
0.00578291
0.00571994
0.00562356
0.0054963
0.00534528
0.00518576
0.00504456
0.000137367
0.00119841
0.00217882
0.00296125
0.00359954
0.00412923
0.00457271
0.00494478
0.00525577
0.00551321
0.00572282
0.00588905
0.00601542
0.00610476
0.00615931
0.00618091
0.00617119
0.00613198
0.00606594
0.00597759
0.00587476
0.00577003
0.00568112
0.000138929
0.00122202
0.00223356
0.00304645
0.00371338
0.00426972
0.00473786
0.00513266
0.00546454
0.00574117
0.00596847
0.00615117
0.00629317
0.00639778
0.00646788
0.00650612
0.00651514
0.00649787
0.00645804
0.00640075
0.00633319
0.006265
0.0062078
0.000140163
0.00124105
0.00227805
0.00311612
0.003807
0.00438592
0.00487522
0.0052898
0.00564014
0.00593401
0.00617747
0.00637548
0.00653224
0.00665145
0.00673647
0.00679053
0.00681688
0.00681907
0.00680122
0.00676837
0.00672668
0.00668345
0.00664642
0.000141133
0.00125632
0.00231401
0.00317277
0.00388357
0.00448149
0.00498885
0.00542053
0.00578705
0.00609624
0.00635428
0.00656631
0.00673673
0.00686955
0.00696845
0.00703704
0.00707895
0.00709798
0.00709832
0.00708465
0.00706216
0.00703643
0.00701284
0.000141891
0.00126848
0.00234287
0.00321851
0.00394575
0.00455956
0.00508221
0.00552856
0.00590914
0.00623182
0.00650287
0.00672752
0.00691036
0.00705557
0.00716709
0.00724872
0.00730428
0.00733767
0.00735294
0.00735437
0.00734636
0.00733326
0.00731897
0.000142477
0.00127809
0.00236584
0.00325514
0.00399585
0.00462284
0.00515833
0.00561716
0.00600985
0.00634428
0.00662677
0.00686263
0.00705656
0.00721286
0.00733561
0.00742873
0.0074961
0.0075416
0.00756909
0.00758247
0.00758552
0.00758176
0.00757414
0.000142928
0.00128562
0.00238395
0.0032842
0.00403585
0.00467368
0.00521987
0.00568922
0.00609222
0.00643678
0.00672921
0.00697489
0.00717857
0.00734463
0.00747721
0.00758029
0.00765776
0.00771338
0.00775086
0.00777375
0.00778537
0.00778865
0.00778595
0.000143271
0.00129145
0.00239808
0.00330703
0.00406749
0.00471416
0.00526918
0.00574731
0.00615901
0.00651218
0.00681315
0.00706731
0.00727944
0.00745396
0.00759503
0.00770664
0.00779262
0.00785667
0.0079023
0.00793279
0.00795111
0.00795979
0.00796077
0.000143529
0.00129592
0.002409
0.00332479
0.00409227
0.00474608
0.00530831
0.00579369
0.00621266
0.00657308
0.00688129
0.00714267
0.00736203
0.00754377
0.00769207
0.00781089
0.00790401
0.00797502
0.00802727
0.00806385
0.00808745
0.00810031
0.00810411
0.000143721
0.00129931
0.00241734
0.00333846
0.00411149
0.004771
0.00533906
0.00583038
0.00625534
0.0066218
0.00693607
0.00720353
0.00742897
0.00761681
0.00777119
0.00789604
0.00799507
0.0080718
0.00812943
0.00817088
0.00819865
0.00821477
0.00822073
0.000143863
0.00130186
0.00242365
0.00334888
0.00412623
0.00479026
0.005363
0.00585911
0.00628896
0.00666039
0.00697967
0.00725218
0.0074827
0.00767561
0.00783504
0.00796487
0.00806877
0.00815015
0.00821212
0.00825746
0.00828853
0.00830721
0.00831485
0.000143967
0.00130374
0.00242837
0.00335673
0.00413744
0.00480501
0.00538144
0.00588139
0.00631519
0.00669065
0.00701403
0.00729069
0.00752538
0.00772246
0.00788604
0.00801995
0.00812781
0.00821295
0.00827841
0.00832685
0.00836052
0.00838121
0.00839015
0.000144042
0.00130513
0.00243187
0.0033626
0.00414586
0.00481618
0.00539552
0.0058985
0.00633545
0.00671415
0.00704084
0.00732086
0.00755893
0.00775941
0.00792636
0.00806358
0.00817463
0.00826279
0.00833102
0.00838192
0.00841764
0.00843989
0.00844984
0.000144095
0.00130614
0.00243443
0.00336693
0.00415214
0.00482456
0.00540615
0.00591151
0.00635094
0.00673221
0.00706155
0.00734426
0.00758506
0.00778826
0.00795791
0.00809778
0.00821138
0.00830194
0.00837237
0.0084252
0.00846254
0.008486
0.00849674
0.000144134
0.00130687
0.00243629
0.0033701
0.00415677
0.00483079
0.0054141
0.00592131
0.00636268
0.00674597
0.00707739
0.00736223
0.00760519
0.00781056
0.00798235
0.00812432
0.00823993
0.00833239
0.00840455
0.00845889
0.00849748
0.00852189
0.00853322
0.00014416
0.00130738
0.00243762
0.00337239
0.00416015
0.00483537
0.00542
0.00592861
0.00637148
0.00675634
0.00708939
0.0073759
0.00762055
0.00782762
0.0080011
0.00814471
0.0082619
0.00835584
0.00842934
0.00848486
0.00852441
0.00854956
0.00856135
0.000144179
0.00130775
0.00243858
0.00337404
0.0041626
0.00483872
0.00542433
0.00593401
0.00637803
0.00676409
0.00709839
0.00738619
0.00763215
0.00784054
0.00801533
0.00816022
0.00827864
0.00837372
0.00844826
0.00850468
0.00854498
0.00857068
0.00858282
0.000144192
0.001308
0.00243925
0.00337522
0.00416436
0.00484113
0.00542748
0.00593797
0.00638284
0.00676982
0.00710508
0.00739387
0.00764084
0.00785025
0.00802604
0.00817191
0.00829127
0.00838723
0.00846256
0.00851967
0.00856053
0.00858666
0.00859907
0.000144201
0.00130818
0.00243972
0.00337604
0.00416561
0.00484287
0.00542976
0.00594084
0.00638636
0.00677402
0.00711001
0.00739954
0.00764728
0.00785746
0.00803402
0.00818064
0.00830071
0.00839733
0.00847327
0.0085309
0.00857219
0.00859863
0.00861124
0.000144207
0.0013083
0.00244004
0.00337662
0.00416649
0.0048441
0.00543139
0.0059429
0.0063889
0.00677708
0.0071136
0.0074037
0.00765201
0.00786277
0.00803991
0.00818709
0.0083077
0.00840482
0.00848121
0.00853923
0.00858084
0.00860752
0.00862028
0.000144211
0.00130839
0.00244027
0.00337703
0.0041671
0.00484496
0.00543254
0.00594438
0.00639073
0.00677928
0.0071162
0.00740672
0.00765546
0.00786665
0.00804422
0.00819181
0.00831282
0.00841032
0.00848705
0.00854536
0.0085872
0.00861406
0.00862693
0.000144214
0.00130844
0.00244042
0.0033773
0.00416753
0.00484557
0.00543335
0.00594542
0.00639202
0.00678085
0.00711807
0.00740889
0.00765794
0.00786945
0.00804734
0.00819525
0.00831655
0.00841432
0.0084913
0.00854983
0.00859184
0.00861883
0.00863178
0.000144216
0.00130848
0.00244053
0.00337749
0.00416783
0.00484599
0.00543392
0.00594615
0.00639294
0.00678197
0.00711939
0.00741044
0.00765972
0.00787147
0.00804958
0.00819772
0.00831924
0.00841721
0.00849437
0.00855305
0.0085952
0.00862228
0.00863528
0.000144217
0.00130851
0.0024406
0.00337762
0.00416803
0.00484628
0.00543431
0.00594666
0.00639358
0.00678275
0.00712033
0.00741154
0.00766099
0.0078729
0.00805118
0.00819948
0.00832116
0.00841928
0.00849657
0.00855537
0.0085976
0.00862475
0.0086378
0.000144218
0.00130853
0.00244064
0.00337771
0.00416817
0.00484648
0.00543458
0.00594702
0.00639402
0.0067833
0.00712099
0.00741231
0.00766188
0.00787391
0.00805232
0.00820073
0.00832253
0.00842075
0.00849813
0.00855701
0.00859931
0.00862651
0.00863959
0.000144218
0.00130854
0.00244068
0.00337777
0.00416826
0.00484661
0.00543477
0.00594726
0.00639433
0.00678367
0.00712144
0.00741284
0.0076625
0.00787462
0.00805311
0.00820161
0.00832348
0.00842178
0.00849923
0.00855817
0.00860052
0.00862775
0.00864085
0.000144219
0.00130854
0.0024407
0.00337781
0.00416832
0.00484671
0.00543489
0.00594742
0.00639454
0.00678393
0.00712176
0.00741322
0.00766293
0.00787511
0.00805366
0.00820223
0.00832415
0.00842251
0.0085
0.00855898
0.00860136
0.00862862
0.00864173
0.000144219
0.00130855
0.00244071
0.00337783
0.00416836
0.00484677
0.00543497
0.00594753
0.00639468
0.00678411
0.00712197
0.00741347
0.00766323
0.00787545
0.00805405
0.00820265
0.00832462
0.00842301
0.00850053
0.00855954
0.00860195
0.00862922
0.00864234
0.000144219
0.00130855
0.00244072
0.00337785
0.00416839
0.00484681
0.00543503
0.00594761
0.00639478
0.00678423
0.00712212
0.00741364
0.00766343
0.00787568
0.00805431
0.00820294
0.00832494
0.00842335
0.0085009
0.00855993
0.00860235
0.00862964
0.00864277
0.000144219
0.00130855
0.00244072
0.00337786
0.00416841
0.00484683
0.00543507
0.00594766
0.00639484
0.00678431
0.00712222
0.00741376
0.00766357
0.00787584
0.00805449
0.00820314
0.00832515
0.00842359
0.00850115
0.00856019
0.00860263
0.00862992
0.00864305
0.000144219
0.00130855
0.00244073
0.00337787
0.00416842
0.00484685
0.00543509
0.00594769
0.00639489
0.00678437
0.00712228
0.00741384
0.00766366
0.00787595
0.00805461
0.00820327
0.0083253
0.00842375
0.00850132
0.00856037
0.00860281
0.00863011
0.00864325
0.000144219
0.00130856
0.00244073
0.00337787
0.00416843
0.00484686
0.00543511
0.00594771
0.00639492
0.0067844
0.00712233
0.00741389
0.00766372
0.00787602
0.00805469
0.00820336
0.0083254
0.00842385
0.00850144
0.0085605
0.00860294
0.00863024
0.00864338
0.000144219
0.00130856
0.00244073
0.00337788
0.00416843
0.00484687
0.00543512
0.00594773
0.00639493
0.00678443
0.00712235
0.00741393
0.00766376
0.00787606
0.00805474
0.00820342
0.00832547
0.00842392
0.00850151
0.00856058
0.00860302
0.00863033
0.00864347
0.000144219
0.00130856
0.00244073
0.00337788
0.00416844
0.00484687
0.00543513
0.00594774
0.00639495
0.00678444
0.00712237
0.00741395
0.00766379
0.00787609
0.00805478
0.00820346
0.00832551
0.00842397
0.00850156
0.00856063
0.00860308
0.00863038
0.00864352
0.000144219
0.00130856
0.00244073
0.00337788
0.00416844
0.00484688
0.00543513
0.00594774
0.00639495
0.00678445
0.00712239
0.00741396
0.0076638
0.00787611
0.0080548
0.00820349
0.00832554
0.008424
0.0085016
0.00856066
0.00860311
0.00863041
0.00864356
0.000144219
0.00130856
0.00244073
0.00337788
0.00416844
0.00484688
0.00543513
0.00594775
0.00639496
0.00678446
0.00712239
0.00741397
0.00766381
0.00787612
0.00805481
0.0082035
0.00832555
0.00842402
0.00850161
0.00856068
0.00860313
0.00863043
0.00864357
0.000144219
0.00130856
0.00244073
0.00337788
0.00416844
0.00484688
0.00543513
0.00594775
0.00639496
0.00678446
0.0071224
0.00741398
0.00766382
0.00787613
0.00805482
0.00820351
0.00832556
0.00842402
0.00850162
0.00856069
0.00860314
0.00863044
0.00864358
0.000186251
0.000171676
0.000171515
0.000185525
0.00168378
0.00160512
0.0016044
0.00168095
0.00309657
0.00302982
0.00302815
0.00309137
0.00415692
0.00411869
0.00411631
0.00414971
0.0049814
0.00495886
0.00495593
0.00497254
0.00564213
0.00562755
0.00562417
0.00563193
0.00618216
0.00617187
0.00616811
0.00617082
0.00662874
0.00662093
0.00661682
0.00661638
0.00700022
0.00699391
0.0069895
0.00698692
0.00730971
0.00730437
0.00729967
0.00729557
0.00756722
0.00756251
0.00755755
0.0075523
0.00778069
0.00777641
0.00777122
0.00776508
0.00795673
0.00795274
0.00794735
0.00794051
0.00810096
0.00809718
0.00809161
0.00808421
0.00821826
0.00821462
0.0082089
0.00820105
0.00831289
0.00830935
0.0083035
0.00829528
0.00838858
0.00838511
0.00837914
0.00837064
0.00844857
0.00844515
0.00843909
0.00843035
0.00849569
0.0084923
0.00848617
0.00847724
0.00853235
0.00852898
0.00852279
0.00851371
0.0085606
0.00855725
0.00855101
0.00854182
0.00858217
0.00857884
0.00857255
0.00856327
0.00859848
0.00859516
0.00858884
0.00857949
0.00861071
0.00860739
0.00860105
0.00859164
0.00861979
0.00861647
0.00861011
0.00860066
0.00862646
0.00862315
0.00861677
0.00860729
0.00863133
0.00862802
0.00862163
0.00861213
0.00863486
0.00863154
0.00862515
0.00861563
0.00863738
0.00863406
0.00862767
0.00861814
0.00863918
0.00863586
0.00862946
0.00861992
0.00864044
0.00863713
0.00863072
0.00862118
0.00864133
0.00863801
0.00863161
0.00862206
0.00864194
0.00863863
0.00863222
0.00862267
0.00864237
0.00863905
0.00863264
0.00862309
0.00864266
0.00863934
0.00863293
0.00862337
0.00864285
0.00863954
0.00863313
0.00862357
0.00864298
0.00863967
0.00863326
0.0086237
0.00864307
0.00863975
0.00863334
0.00862378
0.00864313
0.00863981
0.0086334
0.00862384
0.00864316
0.00863984
0.00863343
0.00862387
0.00864318
0.00863986
0.00863345
0.00862389
0.00864318
0.00863986
0.00863345
0.00862389
0.0010312
0.00202095
0.00274386
0.00319356
0.00346313
0.00361914
0.00369951
0.00372467
0.00370506
0.00364529
0.00354627
0.00340614
0.00322041
0.00298133
0.00267619
0.00228363
0.00176549
0.00104966
0.00013624
0.0022029
0.00288764
0.00342977
0.00380777
0.00405307
0.00420045
0.00427479
0.00429139
0.00425854
0.00417981
0.00405543
0.00388288
0.00365693
0.00336891
0.00300494
0.00254225
0.0019414
0.00113144
0.000142082
0.0033221
0.00373868
0.00411403
0.00440263
0.00460243
0.00472506
0.00478269
0.00478408
0.00473426
0.00463501
0.00448546
0.00428231
0.00401962
0.00368799
0.00327279
0.00275049
0.0020811
0.00119526
0.000146577
0.00426114
0.00450715
0.00475521
0.0049613
0.00511021
0.00520038
0.00523473
0.00521634
0.00514683
0.00502599
0.00485169
0.00461976
0.00432359
0.00395323
0.00349352
0.00292047
0.00219392
0.0012461
0.000150097
0.0050302
0.00517494
0.00533341
0.005472
0.00557307
0.00562908
0.00563732
0.0055967
0.00550601
0.00536319
0.00516488
0.00490606
0.00457952
0.00417485
0.00367652
0.00306026
0.00228589
0.00128705
0.000152877
0.00566215
0.00574607
0.00584299
0.00592919
0.00598885
0.00601245
0.00599439
0.00593089
0.00581868
0.00565416
0.00543293
0.0051492
0.00479526
0.00436031
0.00382855
0.00317555
0.00236114
0.00132022
0.000155082
0.00618544
0.00623137
0.00628575
0.00633209
0.00635728
0.00635184
0.0063089
0.00622317
0.00609
0.00590468
0.00566193
0.00535539
0.00497689
0.00451534
0.00395475
0.00327058
0.00242272
0.0013471
0.000156832
0.0066213
0.00664234
0.00666673
0.00668275
0.00667981
0.00664914
0.00658359
0.00647712
0.00632421
0.0061194
0.00585681
0.0055296
0.00512926
0.00464449
0.00405917
0.00334867
0.00247297
0.00136884
0.000158216
0.00698537
0.00698931
0.00699201
0.00698479
0.00695904
0.00690688
0.00682131
0.006696
0.00652499
0.00630233
0.00602173
0.00567602
0.00525645
0.00475155
0.00414512
0.00341251
0.00251376
0.00138634
0.000159306
0.00728944
0.00728115
0.00726777
0.00724254
0.00719831
0.00712805
0.00702506
0.00688301
0.00669574
0.00645704
0.00616035
0.00579827
0.00536192
0.00483972
0.00421542
0.00346436
0.00254666
0.00140034
0.000160159
0.0075428
0.00752547
0.00749987
0.00746052
0.00740132
0.00731591
0.00719799
0.00704131
0.0068397
0.0065868
0.00627593
0.00589957
0.00544873
0.00491179
0.00427247
0.00350614
0.00257298
0.00141146
0.000160822
0.00775302
0.00772881
0.00769378
0.00764326
0.0075719
0.00747389
0.00734328
0.00717401
0.00695993
0.00669467
0.00637149
0.0059828
0.00551958
0.0049702
0.00431838
0.00353952
0.00259384
0.0014202
0.000161333
0.00792646
0.00789693
0.00785451
0.0077951
0.00771385
0.00760542
0.00746414
0.00728415
0.00705938
0.0067835
0.00644976
0.00605057
0.0055769
0.00501712
0.00435499
0.00356593
0.00261023
0.00142701
0.000161723
0.00806859
0.00803489
0.00798664
0.0079201
0.00783083
0.00771382
0.00756365
0.00737463
0.00714082
0.00685594
0.00651326
0.00610523
0.00562283
0.00505446
0.00438391
0.00358662
0.00262297
0.00143225
0.000162018
0.00818419
0.0081472
0.00809431
0.00802207
0.00792631
0.00780226
0.00764474
0.00744821
0.00720683
0.00691442
0.00656428
0.00614889
0.00565928
0.00508388
0.00440652
0.00360268
0.00263278
0.00143626
0.000162238
0.00827743
0.00823783
0.00818126
0.00810446
0.00800346
0.0078737
0.00771015
0.00750744
0.0072598
0.00696115
0.00660485
0.00618342
0.00568792
0.00510684
0.00442402
0.00361501
0.00264024
0.00143928
0.000162402
0.00835199
0.00831032
0.00825083
0.00817039
0.00806518
0.00793081
0.00776238
0.00755461
0.00730187
0.00699812
0.00663679
0.00621045
0.0057102
0.00512457
0.00443744
0.00362438
0.00264587
0.00144154
0.000162523
0.00841108
0.00836778
0.00830597
0.00822264
0.00811408
0.007976
0.00780364
0.0075918
0.00733493
0.00702706
0.00666168
0.0062314
0.00572736
0.00513813
0.00444762
0.00363144
0.00265006
0.00144321
0.00016261
0.00845747
0.00841288
0.00834926
0.00826364
0.00815243
0.00801141
0.00783591
0.00762083
0.00736065
0.00704949
0.00668088
0.00624747
0.00574045
0.00514839
0.00445527
0.00363669
0.00265316
0.00144443
0.000162674
0.00849355
0.00844796
0.00838291
0.00829551
0.00818221
0.00803888
0.0078609
0.00764324
0.00738046
0.0070667
0.00669554
0.00625968
0.00575033
0.00515609
0.00446096
0.00364057
0.00265543
0.00144532
0.000162719
0.00852135
0.00847497
0.00840882
0.00832003
0.0082051
0.00805997
0.00788006
0.00766039
0.00739557
0.00707978
0.00670664
0.00626887
0.00575772
0.00516181
0.00446516
0.0036434
0.00265707
0.00144596
0.000162751
0.00854257
0.00849559
0.00842858
0.00833871
0.00822253
0.008076
0.0078946
0.00767337
0.00740697
0.00708961
0.00671494
0.00627571
0.00576319
0.00516602
0.00446822
0.00364545
0.00265825
0.00144641
0.000162773
0.0085586
0.00851116
0.0084435
0.00835282
0.00823567
0.00808807
0.00790553
0.00768311
0.0074155
0.00709694
0.00672111
0.00628077
0.00576721
0.00516909
0.00447044
0.00364693
0.00265909
0.00144673
0.000162789
0.00857062
0.00852283
0.00845467
0.00836336
0.00824549
0.00809708
0.00791366
0.00769034
0.00742181
0.00710235
0.00672564
0.00628446
0.00577013
0.0051713
0.00447203
0.00364797
0.00265968
0.00144695
0.000162799
0.00857953
0.00853148
0.00846295
0.00837118
0.00825276
0.00810374
0.00791966
0.00769566
0.00742645
0.00710631
0.00672894
0.00628714
0.00577223
0.00517289
0.00447316
0.00364871
0.00266009
0.0014471
0.000162807
0.00858609
0.00853784
0.00846903
0.00837691
0.00825809
0.00810861
0.00792405
0.00769954
0.00742982
0.00710917
0.00673132
0.00628907
0.00577374
0.00517402
0.00447396
0.00364923
0.00266038
0.00144721
0.000162812
0.00859087
0.00854247
0.00847346
0.00838108
0.00826196
0.00811215
0.00792723
0.00770235
0.00743225
0.00711123
0.00673302
0.00629044
0.0057748
0.00517481
0.00447452
0.00364959
0.00266057
0.00144728
0.000162815
0.00859432
0.00854582
0.00847666
0.00838409
0.00826475
0.00811469
0.00792951
0.00770436
0.00743399
0.0071127
0.00673423
0.00629141
0.00577555
0.00517537
0.0044749
0.00364984
0.00266071
0.00144733
0.000162818
0.0085968
0.00854822
0.00847895
0.00838625
0.00826674
0.00811651
0.00793114
0.00770579
0.00743522
0.00711374
0.00673508
0.00629209
0.00577608
0.00517575
0.00447517
0.00365
0.0026608
0.00144736
0.000162819
0.00859856
0.00854992
0.00848058
0.00838778
0.00826816
0.0081178
0.00793229
0.0077068
0.00743608
0.00711447
0.00673568
0.00629256
0.00577644
0.00517602
0.00447535
0.00365012
0.00266086
0.00144739
0.00016282
0.0085998
0.00855112
0.00848172
0.00838885
0.00826915
0.0081187
0.00793309
0.0077075
0.00743669
0.00711497
0.00673609
0.00629289
0.00577669
0.0051762
0.00447547
0.0036502
0.0026609
0.0014474
0.000162821
0.00860067
0.00855196
0.00848252
0.0083896
0.00826984
0.00811933
0.00793365
0.00770799
0.00743711
0.00711532
0.00673638
0.00629311
0.00577686
0.00517632
0.00447556
0.00365025
0.00266093
0.00144741
0.000162821
0.00860127
0.00855255
0.00848308
0.00839012
0.00827032
0.00811976
0.00793404
0.00770833
0.00743739
0.00711556
0.00673657
0.00629326
0.00577697
0.0051764
0.00447561
0.00365028
0.00266095
0.00144742
0.000162821
0.00860169
0.00855295
0.00848346
0.00839048
0.00827065
0.00812006
0.0079343
0.00770856
0.00743759
0.00711572
0.0067367
0.00629336
0.00577705
0.00517646
0.00447565
0.00365031
0.00266096
0.00144742
0.000162822
0.00860197
0.00855322
0.00848372
0.00839072
0.00827088
0.00812026
0.00793448
0.00770871
0.00743772
0.00711583
0.00673679
0.00629343
0.0057771
0.00517649
0.00447568
0.00365032
0.00266097
0.00144742
0.000162822
0.00860216
0.00855341
0.0084839
0.00839089
0.00827103
0.0081204
0.00793461
0.00770882
0.00743781
0.00711591
0.00673685
0.00629348
0.00577713
0.00517652
0.00447569
0.00365033
0.00266097
0.00144742
0.000162822
0.00860229
0.00855353
0.00848401
0.008391
0.00827113
0.00812049
0.00793469
0.00770889
0.00743787
0.00711596
0.00673689
0.00629351
0.00577716
0.00517653
0.0044757
0.00365034
0.00266098
0.00144743
0.000162822
0.00860237
0.00855361
0.00848409
0.00839107
0.0082712
0.00812055
0.00793474
0.00770894
0.00743791
0.00711599
0.00673691
0.00629353
0.00577717
0.00517654
0.00447571
0.00365034
0.00266098
0.00144743
0.000162822
0.00860243
0.00855367
0.00848414
0.00839112
0.00827124
0.00812059
0.00793478
0.00770897
0.00743794
0.00711601
0.00673693
0.00629354
0.00577718
0.00517655
0.00447571
0.00365034
0.00266098
0.00144743
0.000162822
0.00860246
0.0085537
0.00848417
0.00839115
0.00827127
0.00812062
0.0079348
0.00770899
0.00743795
0.00711602
0.00673694
0.00629355
0.00577719
0.00517656
0.00447572
0.00365034
0.00266098
0.00144743
0.000162822
0.00860248
0.00855372
0.00848419
0.00839117
0.00827128
0.00812063
0.00793481
0.007709
0.00743796
0.00711603
0.00673695
0.00629356
0.00577719
0.00517656
0.00447572
0.00365035
0.00266098
0.00144743
0.000162822
0.00860248
0.00855372
0.0084842
0.00839117
0.00827129
0.00812064
0.00793482
0.007709
0.00743797
0.00711603
0.00673695
0.00629356
0.00577719
0.00517656
0.00447572
0.00365035
0.00266098
0.00144743
0.000162822
)
;

boundaryField
{
    leftWall
    {
        type            nutkWallFunction;
        blending        stepwise;
        value           nonuniform List<scalar> 
50
(
0
1.20008e-06
3.35117e-06
4.85769e-06
5.98259e-06
6.8676e-06
7.58956e-06
8.19335e-06
8.99071e-06
9.79273e-06
1.04001e-05
1.0868e-05
1.12315e-05
1.15148e-05
1.17353e-05
1.19063e-05
1.20382e-05
1.21391e-05
1.22157e-05
1.22733e-05
1.23162e-05
1.23478e-05
1.23709e-05
1.23876e-05
1.23996e-05
1.24081e-05
1.2414e-05
1.24182e-05
1.2421e-05
1.2423e-05
1.24243e-05
1.24252e-05
1.24259e-05
1.24263e-05
1.24265e-05
1.24267e-05
1.24268e-05
1.24269e-05
1.24269e-05
1.2427e-05
1.2427e-05
1.2427e-05
1.2427e-05
1.2427e-05
1.2427e-05
1.2427e-05
1.2427e-05
1.2427e-05
1.2427e-05
1.2427e-05
)
;
    }
    rightWall
    {
        type            nutkWallFunction;
        blending        stepwise;
        value           nonuniform List<scalar> 
50
(
0
3.01264e-06
5.31779e-06
6.95613e-06
8.18772e-06
9.15913e-06
9.9523e-06
1.06159e-05
1.14922e-05
1.23734e-05
1.30405e-05
1.35543e-05
1.39535e-05
1.42646e-05
1.4507e-05
1.46952e-05
1.48406e-05
1.49522e-05
1.50371e-05
1.51011e-05
1.5149e-05
1.51845e-05
1.52106e-05
1.52295e-05
1.52431e-05
1.52529e-05
1.52597e-05
1.52646e-05
1.52679e-05
1.52702e-05
1.52718e-05
1.52729e-05
1.52736e-05
1.52741e-05
1.52744e-05
1.52747e-05
1.52748e-05
1.52749e-05
1.52749e-05
1.5275e-05
1.5275e-05
1.5275e-05
1.5275e-05
1.5275e-05
1.5275e-05
1.5275e-05
1.52751e-05
1.52751e-05
1.52751e-05
1.52751e-05
)
;
    }
    lowerWall
    {
        type            nutkWallFunction;
        blending        stepwise;
        value           nonuniform List<scalar> 
62
(
0
0
0
0
0
0
0
0
0
0
0
0
0
0
0
0
0
0
0
0
0
0
0
0
2.19494e-06
4.86535e-06
6.8268e-06
8.47968e-06
1.01468e-05
1.23971e-05
1.67164e-05
1.87656e-05
1.65689e-05
1.65462e-05
1.86629e-05
0
4.05672e-06
6.95042e-06
9.10526e-06
1.09429e-05
1.28306e-05
1.54023e-05
2.01274e-05
0
0
0
0
0
0
0
0
0
0
0
0
0
0
0
0
0
0
0
)
;
    }
    atmosphere
    {
        type            calculated;
        value           nonuniform List<scalar> 
46
(
0.000144219
0.00130856
0.00244073
0.00337788
0.00416844
0.00484688
0.00543513
0.00594775
0.00639496
0.00678446
0.0071224
0.00741398
0.00766382
0.00787613
0.00805482
0.00820351
0.00832556
0.00842402
0.00850162
0.00856069
0.00860314
0.00863044
0.00864358
0.00864318
0.00863986
0.00863345
0.00862389
0.00860248
0.00855372
0.0084842
0.00839117
0.00827129
0.00812064
0.00793482
0.007709
0.00743797
0.00711603
0.00673695
0.00629356
0.00577719
0.00517656
0.00447572
0.00365035
0.00266098
0.00144743
0.000162822
)
;
    }
    defaultFaces
    {
        type            empty;
    }
}


// ************************************************************************* //
