/*--------------------------------*- C++ -*----------------------------------*\
| =========                 |                                                 |
| \\      /  F ield         | OpenFOAM: The Open Source CFD Toolbox           |
|  \\    /   O peration     | Version:  2406                                  |
|   \\  /    A nd           | Website:  www.openfoam.com                      |
|    \\/     M anipulation  |                                                 |
\*---------------------------------------------------------------------------*/
FoamFile
{
    version     2.0;
    format      ascii;
    arch        "LSB;label=32;scalar=64";
    class       surfaceScalarField;
    location    "0.75";
    object      phi;
}
// * * * * * * * * * * * * * * * * * * * * * * * * * * * * * * * * * * * * * //

dimensions      [0 3 -1 0 0 0 0];

oriented        oriented;

internalField   nonuniform List<scalar> 
4432
(
-3.92101e-304
-1.99738e-304
-7.74042e-304
-9.27261e-304
-1.16644e-303
-1.22144e-303
-1.57383e-303
-1.19389e-303
-2.00203e-303
-8.01117e-304
-2.4485e-303
7.19629e-305
-2.89783e-303
1.60895e-303
-3.30986e-303
4.08848e-303
-3.58376e-303
7.94073e-303
-3.40483e-303
1.38747e-302
-1.52895e-303
2.31417e-302
8.63059e-303
3.75087e-302
1.28254e-302
5.87315e-302
-2.68187e-303
2.33875e-302
-7.4006e-303
5.13438e-303
-5.14132e-303
-8.69977e-304
-3.23437e-303
-1.84138e-303
-1.99575e-303
-1.54548e-303
-1.2172e-303
-9.90145e-304
-7.22325e-304
-4.91053e-304
-3.96844e-304
-1.19356e-304
-1.62849e-304
1.10576e-304
1.48663e-304
-1.21142e-303
-3.67571e-304
-2.36848e-303
-1.66618e-303
-3.54309e-303
-2.23678e-303
-4.76282e-303
-2.17542e-303
-6.04076e-303
-1.38193e-303
-7.36669e-303
3.68885e-304
-8.69256e-303
3.43307e-303
-9.89913e-303
8.3422e-303
-1.07126e-302
1.5902e-302
-1.0469e-302
2.73856e-302
-7.20239e-303
4.4954e-302
-4.08733e-304
7.26948e-302
8.5302e-303
1.13705e-301
-7.07656e-303
4.18031e-302
-1.00292e-302
7.11497e-303
-7.02924e-303
-6.03971e-305
-4.68768e-303
-1.51351e-303
-3.0537e-303
-1.43378e-303
-1.96207e-303
-9.52915e-304
-1.23424e-303
-4.54985e-304
-7.35682e-304
-4.71783e-305
-3.53288e-304
2.39082e-304
3.14034e-304
-2.0416e-303
-5.68167e-304
-4.01114e-303
-2.37638e-303
-6.01354e-303
-3.21756e-303
-8.09675e-303
-3.12845e-303
-1.02861e-302
-1.94214e-303
-1.25719e-302
6.75833e-304
-1.48887e-302
5.24314e-303
-1.70713e-302
1.25252e-302
-1.8761e-302
2.36625e-302
-1.91983e-302
4.04242e-302
-1.64532e-302
6.57528e-302
-1.42636e-302
1.05215e-301
8.99819e-304
1.62069e-301
-1.19164e-302
5.56752e-302
-1.18529e-302
9.01032e-303
-8.40179e-303
8.27174e-304
-5.78886e-303
-1.03099e-303
-3.90221e-303
-1.18206e-303
-2.59335e-303
-8.17236e-304
-1.69333e-303
-3.61669e-304
-1.06063e-303
5.07908e-305
-5.57418e-304
3.76666e-304
4.97255e-304
-2.91226e-303
-7.84953e-304
-5.74755e-303
-3.09645e-303
-8.63719e-303
-4.21825e-303
-1.165e-302
-4.11764e-303
-1.48281e-302
-2.55345e-303
-1.81707e-302
9.15223e-304
-2.16112e-302
6.95874e-303
-2.4972e-302
1.65542e-302
-2.78806e-302
3.1139e-302
-2.96257e-302
5.29027e-302
-2.85368e-302
8.53943e-302
-3.16011e-302
1.34922e-301
-8.51994e-303
2.03384e-301
-1.68283e-302
6.63122e-302
-1.38235e-302
1.10129e-302
-9.83311e-303
1.69731e-303
-6.9039e-303
-5.44885e-304
-4.7669e-303
-9.09281e-304
-3.25188e-303
-6.6262e-304
-2.1893e-303
-2.59908e-304
-1.4299e-303
1.46111e-304
-8.08511e-304
5.07159e-304
6.90547e-304
-3.84888e-303
-1.02099e-303
-7.62026e-303
-3.86559e-303
-1.1472e-302
-5.29711e-303
-1.54956e-302
-5.21357e-303
-1.97537e-302
-3.29634e-303
-2.4263e-302
1.00059e-303
-2.89706e-302
8.48952e-303
-3.37132e-302
2.03394e-302
-3.81511e-302
3.82439e-302
-4.16796e-302
6.47365e-302
-4.28634e-302
1.03797e-301
-5.13976e-302
1.62014e-301
-1.9299e-302
2.39709e-301
-2.20896e-302
7.56065e-302
-1.6151e-302
1.30438e-302
-1.14603e-302
2.52858e-303
-8.1352e-303
-9.17922e-305
-5.71544e-303
-6.52451e-304
-3.9812e-303
-5.17981e-304
-2.75103e-303
-1.71808e-304
-1.86525e-303
2.17901e-304
-1.12416e-303
6.03389e-304
8.52897e-304
-4.87423e-303
-1.28474e-303
-9.67005e-303
-4.71932e-303
-1.45751e-302
-6.50949e-303
-1.97052e-302
-6.48693e-303
-2.51478e-302
-4.25247e-303
-3.0944e-302
8.42216e-304
-3.70666e-302
9.74279e-303
-4.33859e-302
2.37884e-302
-4.96209e-302
4.48895e-302
-5.52857e-302
7.58447e-302
-5.90938e-302
1.20914e-301
-7.31414e-302
1.86771e-301
-3.1297e-302
2.7279e-301
-2.7835e-302
8.42688e-302
-1.88661e-302
1.50721e-302
-1.33244e-302
3.32761e-303
-9.5226e-303
3.24609e-304
-6.77722e-303
-4.22294e-304
-4.80057e-303
-3.95047e-304
-3.39073e-303
-1.09506e-304
-2.37729e-303
2.4866e-304
-1.52276e-303
6.29438e-304
8.96134e-304
-6.00953e-303
-1.58912e-303
-1.19367e-302
-5.69179e-303
-1.8003e-302
-7.91169e-303
-2.43504e-302
-8.01154e-303
-3.10944e-302
-5.50957e-303
-3.83061e-302
3.43848e-304
-4.59929e-302
1.06181e-302
-5.40714e-302
2.68032e-302
-6.23319e-302
5.09865e-302
-7.04049e-302
8.61575e-302
-7.70919e-302
1.3673e-301
-9.66879e-302
2.09387e-301
-4.45245e-302
3.03316e-301
-3.41127e-302
9.24245e-302
-2.19471e-302
1.70879e-302
-1.54326e-302
4.11092e-303
-1.10819e-302
7.13476e-304
-7.96641e-303
-2.17897e-304
-5.71873e-303
-2.97003e-304
-4.11106e-303
-7.87539e-305
-2.96526e-303
2.25933e-304
-2.02336e-303
5.41363e-304
6.62404e-304
-7.27491e-303
-1.94693e-303
-1.44595e-302
-6.80675e-303
-2.18126e-302
-9.54674e-303
-2.95033e-302
-9.84962e-303
-3.76778e-302
-7.14767e-303
-4.64414e-302
-5.90865e-304
-5.5842e-302
1.10047e-302
-6.58493e-302
2.92617e-302
-7.63311e-302
5.64059e-302
-8.70311e-302
9.55515e-302
-9.67186e-302
1.51154e-301
-1.22252e-301
2.29708e-301
-5.87401e-302
3.29694e-301
-4.09162e-302
9.97598e-302
-2.53394e-302
1.90904e-302
-1.77622e-302
4.90334e-303
-1.28048e-302
1.09586e-303
-9.27873e-303
-2.60145e-305
-6.72955e-303
-2.15988e-304
-4.89862e-303
-7.4687e-305
-3.60147e-303
1.53031e-304
-2.63928e-303
3.41743e-304
2.3711e-304
-3.8779e-307
-2.02561e-306
-5.28555e-307
-8.10583e-306
-4.09019e-307
-6.98926e-306
-4.20996e-307
-3.98491e-306
-4.03964e-307
-1.8447e-306
-3.25671e-307
-7.39155e-307
-2.27242e-307
-2.55151e-307
-1.42408e-307
-6.74059e-308
-8.22331e-308
-4.18339e-309
-4.44466e-308
1.18005e-308
-2.26824e-308
1.21712e-308
-1.09692e-308
8.75866e-309
-5.02353e-309
5.41838e-309
-2.1669e-309
3.0474e-309
-8.69476e-310
1.58827e-309
-3.1612e-310
7.69194e-310
-9.78287e-311
3.40761e-310
-2.10685e-311
1.27095e-310
2.378e-311
-7.65281e-307
-5.52218e-306
-1.36763e-306
-1.52033e-305
-1.36084e-306
-1.18689e-305
-1.29717e-306
-6.5188e-306
-1.09121e-306
-2.94807e-306
-8.09043e-307
-1.14201e-306
-5.40845e-307
-3.62641e-307
-3.33234e-307
-6.90706e-308
-1.92265e-307
2.19601e-308
-1.04943e-307
3.81664e-308
-5.45021e-308
3.15919e-308
-2.69923e-308
2.12267e-308
-1.27343e-308
1.27737e-308
-5.6953e-309
7.12106e-309
-2.38892e-309
3.72591e-309
-9.18849e-310
1.83433e-309
-3.07021e-310
8.41111e-310
-7.33695e-311
3.37768e-310
7.68027e-311
-1.43568e-306
-1.26396e-305
-2.74116e-306
-2.5644e-305
-2.88426e-306
-1.80752e-305
-2.61409e-306
-9.45001e-306
-2.06038e-306
-4.14255e-306
-1.45573e-306
-1.54872e-306
-9.44794e-307
-4.52899e-307
-5.73278e-307
-5.18102e-308
-3.29071e-307
6.34086e-308
-1.80015e-307
7.5455e-308
-9.42233e-308
5.82403e-308
-4.72476e-308
3.82229e-308
-2.26657e-308
2.28444e-308
-1.03547e-308
1.27643e-308
-4.46166e-309
6.74263e-309
-1.7773e-309
3.37908e-309
-6.23707e-310
1.59767e-309
-1.60731e-310
6.79441e-310
1.78082e-310
-3.01303e-306
-2.74706e-305
-5.32804e-306
-4.19422e-305
-5.51542e-306
-2.65889e-305
-4.73461e-306
-1.31594e-305
-3.54679e-306
-5.57788e-306
-2.41434e-306
-2.01606e-306
-1.52991e-306
-5.44823e-307
-9.16031e-307
-1.9717e-308
-5.23016e-307
1.21198e-307
-2.86305e-307
1.25932e-307
-1.50668e-307
9.421e-308
-7.62602e-308
6.13015e-308
-3.70613e-308
3.66644e-308
-1.72173e-308
2.06179e-308
-7.57855e-309
1.10161e-308
-3.10429e-309
5.61812e-309
-1.13268e-309
2.7298e-309
-3.10208e-310
1.21714e-309
3.56778e-310
-6.80266e-306
-5.83143e-305
-1.02488e-305
-6.67304e-305
-1.00455e-305
-3.79867e-305
-8.13011e-306
-1.78045e-305
-5.82312e-306
-7.31715e-306
-3.84345e-306
-2.57208e-306
-2.38872e-306
-6.49496e-307
-1.41508e-306
2.42147e-308
-8.04665e-307
1.95716e-307
-4.40898e-307
1.91052e-307
-2.33167e-307
1.41015e-307
-1.18997e-307
9.16815e-308
-5.84918e-308
5.51019e-308
-2.75718e-308
3.12548e-308
-1.23618e-308
1.69049e-308
-5.1861e-309
8.76843e-309
-1.95613e-309
4.36635e-309
-5.64081e-310
2.02658e-309
6.53538e-310
-1.58929e-305
-1.21303e-304
-1.94821e-305
-1.0223e-304
-1.76373e-305
-5.24086e-305
-1.3417e-305
-2.34006e-305
-9.22307e-306
-9.38799e-306
-5.93047e-306
-3.23761e-306
-3.62893e-306
-7.77308e-307
-2.1327e-306
7.6492e-308
-1.20979e-306
2.86872e-307
-6.6405e-307
2.71995e-307
-3.52975e-307
2.00048e-307
-1.81574e-307
1.30552e-307
-9.01945e-308
7.90356e-308
-4.30818e-308
4.52714e-308
-1.96369e-308
2.47916e-308
-8.41461e-309
1.30652e-308
-3.26794e-309
6.64794e-309
-9.86429e-310
3.18867e-309
1.11312e-309
-3.73781e-305
-2.5434e-304
-3.64872e-305
-1.47843e-304
-2.99208e-305
-6.91353e-305
-2.13775e-305
-2.97932e-305
-1.41599e-305
-1.17879e-305
-8.90894e-306
-4.03059e-306
-5.38674e-306
-9.4106e-307
-3.14889e-306
1.30765e-307
-1.78506e-306
3.92336e-307
-9.82612e-307
3.68409e-307
-5.25251e-307
2.71734e-307
-2.72356e-307
1.78513e-307
-1.36669e-307
1.08999e-307
-6.60967e-308
6.30659e-308
-3.05879e-308
3.49442e-308
-1.33607e-308
1.86762e-308
-5.32504e-309
9.67106e-309
-1.67453e-309
4.75037e-309
1.75567e-309
-8.54455e-305
-3.94652e-304
-6.68201e-305
-1.91726e-304
-4.85854e-305
-8.57344e-305
-3.27273e-305
-3.64058e-305
-2.10032e-305
-1.43468e-305
-1.29898e-305
-4.89349e-306
-7.787e-306
-1.12041e-306
-4.53803e-306
1.9401e-307
-2.5745e-306
5.14236e-307
-1.42226e-306
4.8075e-307
-7.64683e-307
3.56026e-307
-3.99561e-307
2.35418e-307
-2.02397e-307
1.4486e-307
-9.89879e-308
8.45397e-308
-4.64277e-308
4.72922e-308
-2.06191e-308
2.55479e-308
-8.4021e-309
1.33897e-308
-2.74261e-309
6.66554e-309
2.52768e-309
-2.00845e-302
-2.87188e-303
-3.99431e-302
-9.61377e-303
-6.02554e-302
-1.3776e-302
-8.14756e-302
-1.4851e-302
-1.04025e-301
-1.20837e-302
-1.28251e-301
-4.42646e-303
-1.54402e-301
9.51656e-303
-1.82604e-301
3.15804e-302
-2.12833e-301
6.4174e-302
-2.44912e-301
1.10484e-301
-2.73851e-301
1.7477e-301
-3.53469e-301
2.62614e-301
-1.74165e-301
3.69761e-301
-1.10884e-301
1.11769e-301
-6.58453e-302
2.29274e-302
-4.59981e-302
6.50289e-303
-3.33113e-302
1.87524e-303
-2.43514e-302
3.57407e-304
-1.78446e-302
-7.11229e-305
-1.31119e-302
-1.0328e-304
-9.69293e-303
-4.19302e-305
-7.20393e-303
-6.71935e-305
-3.49749e-304
-4.79924e-303
-2.6727e-302
-4.04939e-303
-5.31786e-302
-1.31516e-302
-8.02429e-302
-1.92655e-302
-1.08528e-301
-2.16931e-302
-1.38631e-301
-1.94985e-302
-1.71089e-301
-1.14581e-302
-2.06372e-301
3.99131e-303
-2.44862e-301
2.88198e-302
-2.86849e-301
6.54978e-302
-3.32536e-301
1.17108e-301
-3.75766e-301
1.87488e-301
-4.85333e-301
2.81155e-301
-2.49596e-301
3.91996e-301
-1.45372e-301
1.19148e-301
-8.30221e-302
2.5713e-302
-5.7514e-302
7.70605e-303
-4.16282e-302
2.45928e-303
-3.05188e-302
6.2953e-304
-2.24235e-302
7.52298e-306
-1.6437e-302
-1.63078e-304
-1.19599e-302
-2.07539e-304
-8.50816e-303
-2.90493e-304
-4.89462e-304
-5.58522e-303
-3.37216e-302
-5.59024e-303
-6.70716e-302
-1.77843e-302
-1.012e-301
-2.65991e-302
-1.36891e-301
-3.11538e-302
-1.74929e-301
-3.03387e-302
-2.16052e-301
-2.27676e-302
-2.60941e-301
-6.74033e-303
-3.10204e-301
1.98043e-302
-3.64374e-301
5.93359e-302
-4.23901e-301
1.14772e-301
-4.81706e-301
1.89503e-301
-6.19535e-301
2.87134e-301
-3.27609e-301
4.00323e-301
-1.81508e-301
1.22652e-301
-1.01148e-301
2.72025e-302
-6.94135e-302
8.277e-303
-5.00423e-302
2.68353e-303
-3.66255e-302
6.88175e-304
-2.68578e-302
-3.16862e-305
-1.95874e-302
-2.64576e-304
-1.40871e-302
-3.38028e-304
-9.8263e-303
-3.96651e-304
-4.78624e-304
-6.40801e-303
-4.10911e-302
-7.62293e-303
-8.16453e-302
-2.38981e-302
-1.23132e-301
-3.64029e-302
-1.66524e-301
-4.40739e-302
-2.12809e-301
-4.56262e-302
-2.62924e-301
-3.95166e-302
-3.17746e-301
-2.3917e-302
-3.78076e-301
3.30897e-303
-4.44624e-301
4.46226e-302
-5.17999e-301
1.02796e-301
-5.90068e-301
1.80871e-301
-7.55548e-301
2.81815e-301
-4.07413e-301
3.97555e-301
-2.19208e-301
1.22958e-301
-1.20243e-301
2.73578e-302
-8.17843e-302
8.10511e-303
-5.86607e-302
2.4497e-303
-4.27892e-302
4.61944e-304
-3.12791e-302
-2.35791e-304
-2.27142e-302
-4.40541e-304
-1.6233e-302
-4.72734e-304
-1.12425e-302
-4.63713e-304
-4.45517e-304
-7.33186e-303
-4.88404e-302
-1.02902e-302
-9.68958e-302
-3.19141e-302
-1.46015e-301
-4.93639e-302
-1.97377e-301
-6.13805e-302
-2.52183e-301
-6.64942e-302
-3.11573e-301
-6.29961e-302
-3.76613e-301
-4.89251e-302
-4.48268e-301
-2.20576e-302
-5.27389e-301
2.0086e-302
-6.14696e-301
8.02032e-302
-7.00947e-301
1.61139e-301
-8.93882e-301
2.65514e-301
-4.89464e-301
3.84849e-301
-2.58549e-301
1.20231e-301
-1.40296e-301
2.60793e-302
-9.46612e-302
7.07413e-303
-6.75441e-302
1.65827e-303
-4.9084e-302
-1.27281e-304
-3.57663e-302
-6.65606e-304
-2.58898e-302
-7.43079e-304
-1.84416e-302
-6.66176e-304
-1.27421e-302
-5.55061e-304
-4.41762e-304
-8.32412e-303
-5.69591e-302
-1.3753e-302
-1.12791e-301
-4.23055e-302
-1.69794e-301
-6.62541e-302
-2.29377e-301
-8.41196e-302
-2.92972e-301
-9.42239e-302
-3.61933e-301
-9.4674e-302
-4.37513e-301
-8.33566e-302
-5.20833e-301
-5.79357e-302
-6.12869e-301
-1.58623e-302
-7.1443e-301
4.55778e-302
-8.15149e-301
1.29197e-301
-1.03582e-300
2.37536e-301
-5.74712e-301
3.61934e-301
-2.99733e-301
1.14144e-301
-1.61307e-301
2.31229e-302
-1.08055e-301
5.00446e-303
-7.67176e-302
1.75331e-304
-5.55439e-302
-1.1802e-303
-4.03538e-302
-1.39885e-303
-2.91383e-302
-1.23586e-303
-2.07155e-302
-9.74346e-304
-1.43019e-302
-7.18568e-304
-4.94519e-304
-9.35809e-303
-6.54115e-302
-1.81974e-302
-1.2925e-301
-5.56135e-302
-1.94353e-301
-8.79583e-302
-2.62387e-301
-1.13489e-301
-3.35048e-301
-1.30285e-301
-4.13922e-301
-1.3624e-301
-5.00461e-301
-1.29066e-301
-5.95946e-301
-1.0628e-301
-7.01472e-301
-6.52133e-302
-8.17936e-301
-3.03641e-303
-9.33838e-301
8.31855e-302
-1.18304e-300
1.9615e-301
-6.64377e-301
3.27198e-301
-3.43058e-301
1.03856e-301
-1.83297e-301
1.8052e-302
-1.21963e-301
1.62045e-303
-8.61819e-302
-2.18664e-303
-6.21744e-302
-2.82882e-303
-4.50472e-302
-2.53129e-303
-3.24593e-302
-1.99091e-303
-2.30444e-302
-1.45255e-303
-1.5903e-302
-9.94049e-304
-6.24673e-304
-1.04172e-302
-7.41197e-302
-2.38421e-302
-1.46107e-301
-7.24695e-302
-2.19454e-301
-1.15505e-301
-2.96132e-301
-1.50879e-301
-3.7814e-301
-1.76378e-301
-4.67332e-301
-1.89651e-301
-5.65377e-301
-1.88212e-301
-6.73728e-301
-1.6941e-301
-7.93603e-301
-1.30409e-301
-9.25987e-301
-6.81853e-302
-1.05825e-300
2.04554e-302
-1.33731e-300
1.38577e-301
-7.59756e-301
2.77689e-301
-3.88853e-301
8.79712e-302
-2.06288e-301
1.02087e-302
-1.36368e-301
-3.46528e-303
-9.59163e-302
-5.67566e-303
-6.89589e-302
-5.23759e-303
-4.98326e-302
-4.17477e-303
-3.58389e-302
-3.08606e-303
-2.54124e-302
-2.15521e-303
-1.75296e-302
-1.41747e-303
-8.51773e-304
-1.14899e-302
-8.29338e-302
-3.095e-302
-1.63055e-301
-9.36227e-302
-2.44659e-301
-1.50109e-301
-3.30089e-301
-1.97919e-301
-4.21707e-301
-2.34482e-301
-5.21676e-301
-2.57171e-301
-6.3191e-301
-2.63295e-301
-7.54046e-301
-2.5003e-301
-8.89432e-301
-2.14357e-301
-1.03914e-300
-1.53006e-301
-1.18943e-300
-6.24214e-302
-1.50019e-300
6.10059e-302
-8.62036e-301
2.09119e-301
-4.37415e-301
6.44848e-302
-2.30273e-301
-1.30281e-303
-1.51224e-301
-1.07525e-302
-1.05876e-301
-1.05946e-302
-7.58614e-302
-8.59598e-303
-5.46816e-302
-6.45028e-303
-3.92538e-302
-4.6e-303
-2.78002e-302
-3.1338e-303
-1.91662e-302
-2.02135e-303
-1.19423e-303
-1.25655e-302
-9.15935e-302
-3.98457e-302
-1.79561e-301
-1.19984e-301
-2.69213e-301
-1.93232e-301
-3.63352e-301
-2.56544e-301
-4.64782e-301
-3.06911e-301
-5.76018e-301
-3.41413e-301
-6.99249e-301
-3.57172e-301
-8.36303e-301
-3.5123e-301
-9.88663e-301
-3.20406e-301
-1.15749e-300
-2.61182e-301
-1.3279e-300
-1.69587e-301
-1.67273e-300
-4.13429e-302
-9.72044e-301
1.15897e-301
-4.88905e-301
3.07585e-302
-2.55175e-301
-1.761e-302
-1.66443e-301
-2.08329e-302
-1.15988e-301
-1.7279e-302
-8.28249e-302
-1.30996e-302
-5.95516e-302
-9.47394e-303
-4.2672e-302
-6.60311e-303
-3.01836e-302
-4.43163e-303
-2.07952e-302
-2.83211e-303
-1.66736e-303
-1.36326e-302
-9.96678e-302
-5.0944e-302
-1.9476e-301
-1.52689e-301
-2.91892e-301
-2.46668e-301
-3.94454e-301
-3.29078e-301
-5.05776e-301
-3.96384e-301
-6.28774e-301
-4.45376e-301
-7.65916e-301
-4.73065e-301
-9.1922e-301
-4.76449e-301
-1.09029e-300
-4.52278e-301
-1.28035e-300
-3.96836e-301
-1.47342e-300
-3.05762e-301
-1.85511e-300
-1.74054e-301
-1.08999e-300
-8.72451e-303
-5.43237e-301
-1.64514e-302
-2.80807e-301
-4.00205e-302
-1.81873e-301
-3.43348e-302
-1.2614e-301
-2.60508e-302
-8.97695e-302
-1.8916e-302
-6.43844e-302
-1.33341e-302
-4.60508e-302
-9.14314e-303
-3.25316e-302
-6.07549e-303
-2.23947e-302
-3.86529e-303
-2.28033e-303
-1.46767e-302
-1.06469e-301
-6.48007e-302
-2.07281e-301
-1.93212e-301
-3.10791e-301
-3.1268e-301
-4.21137e-301
-4.18365e-301
-5.42265e-301
-5.06109e-301
-6.77502e-301
-5.72485e-301
-8.29566e-301
-6.14544e-301
-1.00062e-300
-6.29422e-301
-1.19235e-300
-6.13956e-301
-1.40605e-300
-5.64373e-301
-1.62459e-300
-4.76021e-301
-2.04628e-300
-3.43247e-301
-1.21516e-300
-1.72334e-301
-5.99942e-301
-8.08431e-302
-3.06826e-301
-6.98874e-302
-1.97286e-301
-5.18123e-302
-1.36176e-301
-3.71383e-302
-9.65861e-302
-2.61324e-302
-6.9102e-302
-1.80592e-302
-4.93335e-302
-1.22264e-302
-3.48026e-302
-8.06492e-303
-2.39352e-302
-5.11946e-303
-3.03251e-303
-1.56778e-302
-1.10904e-301
-8.2211e-302
-2.14986e-301
-2.43537e-301
-3.23007e-301
-3.94205e-301
-4.40055e-301
-5.27933e-301
-5.70727e-301
-6.39892e-301
-7.18693e-301
-7.26621e-301
-8.86812e-301
-7.85497e-301
-1.07729e-300
-8.14076e-301
-1.29181e-300
-8.09533e-301
-1.53169e-300
-7.68245e-301
-1.77867e-300
-6.85483e-301
-2.24358e-300
-5.55151e-301
-1.3456e-300
-3.82839e-301
-6.58017e-301
-1.66209e-301
-3.32687e-301
-1.08331e-301
-2.12355e-301
-7.35507e-302
-1.45884e-301
-5.05541e-302
-1.03126e-301
-3.46846e-302
-7.3597e-302
-2.35783e-302
-5.24409e-302
-1.57964e-302
-3.69389e-302
-1.03609e-302
-2.53753e-302
-6.57008e-303
-3.90998e-303
-1.6608e-302
-1.11202e-301
-1.04415e-301
-2.14502e-301
-3.06485e-301
-3.24157e-301
-4.95174e-301
-4.46362e-301
-6.6223e-301
-5.86259e-301
-8.02241e-301
-7.476e-301
-9.12122e-301
-9.33126e-301
-9.90048e-301
-1.14488e-300
-1.03441e-300
-1.38443e-300
-1.04302e-300
-1.65305e-300
-1.0127e-300
-1.93135e-300
-9.38921e-301
-2.44256e-300
-8.15553e-301
-1.47786e-300
-6.47699e-301
-7.15743e-301
-2.75727e-301
-3.57581e-301
-1.55725e-301
-2.2662e-301
-9.92605e-302
-1.54963e-301
-6.59315e-302
-1.09179e-301
-4.4275e-302
-7.77153e-302
-2.96817e-302
-5.52593e-302
-1.97155e-302
-3.88571e-302
-1.2877e-302
-2.66561e-302
-8.16483e-303
-4.88287e-303
-1.74278e-302
-1.04344e-301
-1.33547e-301
-2.00364e-301
-3.86256e-301
-3.07577e-301
-6.2098e-301
-4.33167e-301
-8.26887e-301
-5.82279e-301
-9.98438e-301
-7.58137e-301
-1.13372e-300
-9.62868e-301
-1.23243e-300
-1.19804e-300
-1.29429e-300
-1.46494e-300
-1.31814e-300
-1.76471e-300
-1.30147e-300
-2.07686e-300
-1.24033e-300
-2.63694e-300
-1.12912e-300
-1.60678e-300
-9.72944e-301
-7.70382e-301
-4.10609e-301
-3.80296e-301
-2.10803e-301
-2.39405e-301
-1.27646e-301
-1.62968e-301
-8.23403e-302
-1.14429e-301
-5.43011e-302
-8.12262e-302
-3.59953e-302
-5.76207e-302
-2.37557e-302
-4.04375e-302
-1.54755e-302
-2.7695e-302
-9.82185e-303
-5.90412e-303
-1.80828e-302
-8.47092e-302
-1.73535e-301
-1.63287e-301
-4.89361e-301
-2.63016e-301
-7.79088e-301
-3.90817e-301
-1.02892e-300
-5.50313e-301
-1.23446e-300
-7.42966e-301
-1.39634e-300
-9.69532e-301
-1.51673e-300
-1.2307e-300
-1.59729e-300
-1.52733e-300
-1.6381e-300
-1.86039e-300
-1.63756e-300
-2.20828e-300
-1.59253e-300
-2.81892e-300
-1.49869e-300
-1.72509e-300
-1.36204e-300
-8.1741e-301
-5.67348e-301
-3.98888e-301
-2.69154e-301
-2.49633e-301
-1.55892e-301
-1.69191e-301
-9.8149e-302
-1.18382e-301
-6.38344e-302
-8.37826e-302
-4.19869e-302
-5.92834e-302
-2.76072e-302
-4.1515e-302
-1.79734e-302
-2.8382e-302
-1.14324e-302
-6.91042e-303
-1.85032e-302
-4.04197e-302
-2.31488e-301
-8.66325e-302
-6.25871e-301
-1.74556e-301
-9.79486e-301
-3.06178e-301
-1.27654e-300
-4.80082e-301
-1.51655e-300
-6.93964e-301
-1.70466e-300
-9.46322e-301
-1.84658e-300
-1.23673e-300
-1.94636e-300
-1.56557e-300
-2.00548e-300
-1.93367e-300
-2.02308e-300
-2.3183e-300
-1.99691e-300
-2.97995e-300
-1.92463e-300
-1.82211e-300
-1.81461e-300
-8.4821e-301
-7.30892e-301
-4.09936e-301
-3.20878e-301
-2.5548e-301
-1.79299e-301
-1.72486e-301
-1.11077e-301
-1.20287e-301
-7.17084e-302
-8.48904e-302
-4.70239e-302
-5.9925e-302
-3.09091e-302
-4.18816e-302
-2.01577e-302
-2.85856e-302
-1.28686e-302
-7.82573e-303
-1.86087e-302
5.78608e-302
-2.89407e-301
6.08669e-302
-7.83972e-301
-1.78241e-302
-1.20807e-300
-1.62498e-301
-1.55198e-300
-3.60417e-301
-1.8241e-300
-6.03308e-301
-2.03619e-300
-8.87129e-301
-2.19842e-300
-1.21072e-300
-2.3174e-300
-1.57444e-300
-2.3958e-300
-1.97908e-300
-2.43307e-300
-2.40044e-300
-2.42721e-300
-3.11223e-300
-2.37341e-300
-1.8787e-300
-2.32437e-300
-8.43042e-301
-8.528e-301
-4.07405e-301
-3.47557e-301
-2.53942e-301
-1.91689e-301
-1.71123e-301
-1.18668e-301
-1.19115e-301
-7.67631e-302
-8.39326e-302
-5.04853e-302
-5.91747e-302
-3.3302e-302
-4.13145e-302
-2.18106e-302
-2.81729e-302
-1.3996e-302
-8.56814e-303
-1.83222e-302
2.92552e-301
-6.35928e-301
3.38029e-301
-1.26559e-300
2.40782e-301
-1.76062e-300
5.76136e-302
-2.14759e-300
-1.82453e-301
-2.44804e-300
-4.65866e-301
-2.68147e-300
-7.88035e-301
-2.86271e-300
-1.14903e-300
-3.00078e-300
-1.5505e-300
-3.09924e-300
-1.99352e-300
-3.15728e-300
-2.44668e-300
-3.17239e-300
-3.21319e-300
-3.14794e-300
-1.85714e-300
-1.9893e-300
-7.57401e-301
-7.40668e-301
-3.82655e-301
-3.28363e-301
-2.40576e-301
-1.8895e-301
-1.62911e-301
-1.19415e-301
-1.13746e-301
-7.82111e-302
-8.03231e-302
-5.19002e-302
-5.67176e-302
-3.44902e-302
-3.96414e-302
-2.27427e-302
-2.70487e-302
-1.4693e-302
-9.06069e-303
-1.75919e-302
8.67275e-301
-9.46076e-302
7.99866e-301
-6.06127e-301
6.09688e-301
-9.75027e-301
3.47952e-301
-1.24913e-300
4.46307e-302
-1.45642e-300
-2.89413e-301
-1.61482e-300
-6.54183e-301
-1.73631e-300
-1.05452e-300
-1.82754e-300
-1.49581e-300
-1.89001e-300
-1.98038e-300
-1.91938e-300
-2.50324e-300
-1.90175e-300
-2.10807e-300
-1.80924e-300
-1.04533e-300
-1.00919e-300
-5.14931e-301
-4.89563e-301
-3.15831e-301
-2.76337e-301
-2.10447e-301
-1.72954e-301
-1.46295e-301
-1.13401e-301
-1.03632e-301
-7.58443e-302
-7.38524e-302
-5.10559e-302
-5.24713e-302
-3.4306e-302
-3.68302e-302
-2.2832e-302
-2.52019e-302
-1.4874e-302
-9.2459e-303
-1.64155e-302
5.14819e-301
-3.38562e-301
3.85212e-301
-5.45626e-301
2.606e-301
-6.68717e-301
1.28875e-301
-7.56586e-301
-6.0094e-303
-8.21575e-301
-1.46694e-301
-8.6894e-301
-2.96933e-301
-9.0192e-301
-4.59466e-301
-9.22032e-301
-6.32439e-301
-9.28429e-301
-8.01288e-301
-9.15922e-301
-9.1411e-301
-8.68981e-301
-7.77904e-301
-7.51721e-301
-5.05477e-301
-5.05506e-301
-3.40765e-301
-3.33916e-301
-2.39483e-301
-2.21202e-301
-1.71343e-301
-1.49412e-301
-1.23885e-301
-1.02132e-301
-8.98864e-302
-7.01251e-302
-6.5072e-302
-4.80874e-302
-4.67352e-302
-3.27716e-302
-3.30533e-302
-2.20628e-302
-2.27347e-302
-1.45139e-302
-9.10017e-303
-1.48538e-302
8.98064e-302
-2.47546e-301
4.77799e-302
-3.26245e-301
1.64489e-302
-3.629e-301
-2.10374e-302
-3.94482e-301
-6.47091e-302
-4.20255e-301
-1.14617e-301
-4.39243e-301
-1.7053e-301
-4.51396e-301
-2.31029e-301
-4.56896e-301
-2.91784e-301
-4.5553e-301
-3.42987e-301
-4.45956e-301
-3.66263e-301
-4.248e-301
-3.41693e-301
-3.86659e-301
-2.84499e-301
-3.14272e-301
-2.25745e-301
-2.36829e-301
-1.7463e-301
-1.72321e-301
-1.32896e-301
-1.23619e-301
-1.0005e-301
-8.79416e-302
-7.46149e-302
-6.20953e-302
-5.50695e-302
-4.34744e-302
-4.01044e-302
-3.01108e-302
-2.86499e-302
-2.05382e-302
-1.9845e-302
-1.3658e-302
-8.64123e-303
-1.3022e-302
-3.44428e-302
-1.49493e-301
-3.41405e-302
-2.0483e-301
-3.8119e-302
-2.30915e-301
-4.91949e-302
-2.50819e-301
-6.63136e-302
-2.66316e-301
-8.84345e-302
-2.77414e-301
-1.14443e-301
-2.8419e-301
-1.42603e-301
-2.86819e-301
-1.69918e-301
-2.85329e-301
-1.91668e-301
-2.79217e-301
-2.01789e-301
-2.66996e-301
-1.96484e-301
-2.45723e-301
-1.78045e-301
-2.11344e-301
-1.52528e-301
-1.70631e-301
-1.25361e-301
-1.3187e-301
-9.99739e-302
-9.91015e-302
-7.79693e-302
-7.30245e-302
-5.97111e-302
-5.29701e-302
-4.49612e-302
-3.78766e-302
-3.32428e-302
-2.66817e-302
-2.40194e-302
-1.84527e-302
-1.67739e-302
-1.24112e-302
-7.9241e-303
-1.10628e-302
-4.94562e-302
-8.58142e-302
-4.77897e-302
-1.29839e-301
-4.69136e-302
-1.52778e-301
-5.0126e-302
-1.686e-301
-5.7446e-302
-1.80036e-301
-6.81943e-302
-1.8789e-301
-8.14423e-302
-1.92551e-301
-9.58959e-302
-1.94288e-301
-1.0973e-301
-1.93198e-301
-1.20605e-301
-1.89029e-301
-1.26107e-301
-1.80981e-301
-1.24851e-301
-1.67675e-301
-1.17067e-301
-1.47955e-301
-1.04391e-301
-1.24069e-301
-8.92019e-302
-9.97365e-302
-7.36376e-302
-7.76229e-302
-5.91187e-302
-5.89046e-302
-4.63581e-302
-4.37781e-302
-3.55759e-302
-3.19374e-302
-2.67026e-302
-2.28749e-302
-1.95203e-302
-1.60397e-302
-1.37491e-302
-1.09109e-302
-7.0277e-303
-9.11624e-303
-4.17034e-302
-4.95854e-302
-4.2608e-302
-8.2283e-302
-4.20416e-302
-1.01481e-301
-4.31133e-302
-1.14685e-301
-4.64667e-302
-1.23961e-301
-5.18992e-302
-1.30206e-301
-5.88652e-302
-1.33915e-301
-6.65556e-302
-1.35396e-301
-7.39141e-302
-1.34779e-301
-7.9725e-302
-1.31945e-301
-8.28452e-302
-1.26472e-301
-8.25501e-302
-1.17729e-301
-7.87095e-302
-1.05399e-301
-7.1845e-302
-9.04633e-302
-6.30055e-302
-7.47005e-302
-5.33548e-302
-5.969e-302
-4.38416e-302
-4.63958e-302
-3.50815e-302
-3.52159e-302
-2.7387e-302
-2.6163e-302
-2.08485e-302
-1.90332e-302
-1.54137e-302
-1.35228e-302
-1.09482e-302
-9.29887e-303
-6.03832e-303
-7.29633e-303
-3.08535e-302
-2.90054e-302
-3.30906e-302
-5.21193e-302
-3.34058e-302
-6.71589e-302
-3.40842e-302
-7.78955e-302
-3.58339e-302
-8.55183e-302
-3.87068e-302
-9.06858e-302
-4.24508e-302
-9.38263e-302
-4.66168e-302
-9.52182e-302
-5.06174e-302
-9.49947e-302
-5.38003e-302
-9.31201e-302
-5.55624e-302
-8.93917e-302
-5.54768e-302
-8.35428e-302
-5.33825e-302
-7.55215e-302
-4.94486e-302
-6.58384e-302
-4.4151e-302
-5.54144e-302
-3.8107e-302
-4.51766e-302
-3.1897e-302
-3.58029e-302
-2.59607e-302
-2.76666e-302
-2.05727e-302
-2.08874e-302
-1.58627e-302
-1.54117e-302
-1.18509e-302
-1.10837e-302
-8.48392e-303
-7.69821e-303
-5.03531e-303
-5.68005e-303
-2.14907e-302
-1.71358e-302
-2.39874e-302
-3.29827e-302
-2.48149e-302
-4.41938e-302
-2.54954e-302
-5.25851e-302
-2.65848e-302
-5.87166e-302
-2.82105e-302
-6.29717e-302
-3.02846e-302
-6.56471e-302
-3.25809e-302
-6.69549e-302
-3.47853e-302
-6.70107e-302
-3.65445e-302
-6.58236e-302
-3.75237e-302
-6.33131e-302
-3.74656e-302
-5.9384e-302
-3.62425e-302
-5.40696e-302
-3.39007e-302
-4.76683e-302
-3.06604e-302
-4.06918e-302
-2.68482e-302
-3.3693e-302
-2.28067e-302
-2.71244e-302
-1.8826e-302
-2.12782e-302
-1.51125e-302
-1.62899e-302
-1.17851e-302
-1.21713e-302
-8.88798e-303
-8.84965e-303
-6.408e-303
-6.202e-303
-4.08196e-303
-4.30676e-303
-1.44221e-302
-1.01919e-302
-1.66475e-302
-2.08365e-302
-1.76163e-302
-2.88953e-302
-1.83017e-302
-3.52148e-302
-1.90833e-302
-3.99961e-302
-2.0081e-302
-4.34168e-302
-2.128e-302
-4.56493e-302
-2.25764e-302
-4.68343e-302
-2.38085e-302
-4.70594e-302
-2.47862e-302
-4.63517e-302
-2.53213e-302
-4.46921e-302
-2.52597e-302
-4.20627e-302
-2.45121e-302
-3.8519e-302
-2.3083e-302
-3.42492e-302
-2.10748e-302
-2.95545e-302
-1.86608e-302
-2.47721e-302
-1.604e-302
-2.01983e-302
-1.33961e-302
-1.60457e-302
-1.08726e-302
-1.24319e-302
-8.5627e-303
-9.39123e-303
-6.51165e-303
-6.89462e-303
-4.72392e-303
-4.87012e-303
-3.22177e-303
-3.18443e-303
-9.41898e-303
-6.08807e-303
-1.11921e-302
-1.3127e-302
-1.20865e-302
-1.87598e-302
-1.27116e-302
-2.33689e-302
-1.33089e-302
-2.69814e-302
-1.39666e-302
-2.96504e-302
-1.46948e-302
-3.1458e-302
-1.545e-302
-3.24853e-302
-1.61523e-302
-3.2791e-302
-1.67006e-302
-3.24042e-302
-1.69899e-302
-3.13323e-302
-1.69292e-302
-2.95883e-302
-1.64602e-302
-2.72273e-302
-1.55751e-302
-2.43738e-302
-1.43215e-302
-2.12131e-302
-1.27918e-302
-1.7955e-302
-1.11005e-302
-1.47932e-302
-9.36112e-303
-1.18761e-302
-7.66878e-303
-9.29561e-303
-6.09108e-303
-7.08898e-303
-4.66565e-303
-5.24834e-303
-3.40264e-303
-3.73243e-303
-2.47899e-303
-2.29853e-303
-6.01961e-303
-3.64602e-303
-7.33681e-303
-8.23783e-303
-8.06744e-303
-1.20852e-302
-8.58791e-303
-1.53549e-302
-9.04584e-303
-1.80048e-302
-9.49901e-303
-2.00254e-302
-9.96156e-303
-2.14429e-302
-1.04172e-302
-2.22961e-302
-1.08276e-302
-2.26197e-302
-1.11401e-302
-2.2437e-302
-1.12967e-302
-2.17635e-302
-1.12446e-302
-2.06214e-302
-1.09475e-302
-1.90575e-302
-1.03959e-302
-1.71561e-302
-9.61184e-303
-1.5035e-302
-8.64469e-303
-1.28274e-302
-7.56008e-303
-1.06596e-302
-6.427e-303
-8.63318e-303
-5.30676e-303
-6.81597e-303
-4.24575e-303
-5.24039e-303
-3.27236e-303
-3.90783e-303
-2.39698e-303
-2.79495e-303
-1.86168e-303
-1.62107e-303
-3.77926e-303
-2.18605e-303
-4.71016e-303
-5.14359e-303
-5.26193e-303
-7.71898e-303
-5.6647e-303
-9.98219e-303
-6.00684e-303
-1.18742e-302
-6.32362e-303
-1.33609e-302
-6.62643e-303
-1.44387e-302
-6.9101e-303
-1.51203e-302
-7.15663e-303
-1.54227e-302
-7.33894e-303
-1.53616e-302
-7.42542e-303
-1.49521e-302
-7.38583e-303
-1.42158e-302
-7.19811e-303
-1.31894e-302
-6.85466e-303
-1.19306e-302
-6.36554e-303
-1.05158e-302
-5.75717e-303
-9.03086e-303
-5.06708e-303
-7.55827e-303
-4.33674e-303
-6.16673e-303
-3.60478e-303
-4.90439e-303
-2.90198e-303
-3.79685e-303
-2.24843e-303
-2.84871e-303
-1.65275e-303
-2.04696e-303
-1.36593e-303
-1.11801e-303
-2.33894e-303
-1.31069e-303
-2.97192e-303
-3.19207e-303
-3.36533e-303
-4.8846e-303
-3.65888e-303
-6.41667e-303
-3.90506e-303
-7.73451e-303
-4.12461e-303
-8.79969e-303
-4.32519e-303
-9.59603e-303
-4.5056e-303
-1.0122e-302
-4.65746e-303
-1.03831e-302
-4.76684e-303
-1.03882e-302
-4.81658e-303
-1.01489e-302
-4.78954e-303
-9.68264e-303
-4.67258e-303
-9.01677e-303
-4.46027e-303
-8.19077e-303
-4.15712e-303
-7.25488e-303
-3.77736e-303
-6.26477e-303