/*--------------------------------*- C++ -*----------------------------------*\
| =========                 |                                                 |
| \\      /  F ield         | OpenFOAM: The Open Source CFD Toolbox           |
|  \\    /   O peration     | Version:  2406                                  |
|   \\  /    A nd           | Website:  www.openfoam.com                      |
|    \\/     M anipulation  |                                                 |
\*---------------------------------------------------------------------------*/
FoamFile
{
    version     2.0;
    format      ascii;
    arch        "LSB;label=32;scalar=64";
    class       volVectorField;
    location    "0.75";
    object      U;
}
// * * * * * * * * * * * * * * * * * * * * * * * * * * * * * * * * * * * * * //

dimensions      [0 1 -1 0 0 0 0];

internalField   nonuniform List<vector> 
2268
(
(-2.32662e-300 -6.91169e-301 0)
(-6.62566e-300 -2.94739e-300 0)
(-1.10469e-299 -3.7709e-300 0)
(-1.55848e-299 -3.71706e-300 0)
(-2.03481e-299 -2.68417e-300 0)
(-2.53614e-299 -3.54327e-301 0)
(-3.05415e-299 3.78991e-300 0)
(-3.56204e-299 1.05371e-299 0)
(-3.99488e-299 2.11485e-299 0)
(-4.18739e-299 3.78291e-299 0)
(-3.58637e-299 6.47742e-299 0)
(2.55028e-301 1.04114e-298 0)
(2.18411e-298 1.61617e-298 0)
(3.59583e-299 7.04586e-299 0)
(-9.71894e-299 2.19103e-299 0)
(-7.17777e-299 -6.67214e-300 0)
(-4.56065e-299 -1.04474e-299 0)
(-2.82391e-299 -8.32757e-300 0)
(-1.73271e-299 -5.22991e-300 0)
(-1.04635e-299 -2.62293e-300 0)
(-6.02826e-300 -7.80919e-301 0)
(-3.0323e-300 2.68419e-301 0)
(-6.85799e-301 3.74642e-301 0)
(-7.22841e-300 -1.464e-300 0)
(-2.04302e-299 -7.05777e-300 0)
(-3.36459e-299 -9.40844e-300 0)
(-4.72482e-299 -9.16504e-300 0)
(-6.14945e-299 -5.9599e-300 0)
(-7.64255e-299 1.13081e-300 0)
(-9.17674e-299 1.35707e-299 0)
(-1.06697e-298 3.35777e-299 0)
(-1.19315e-298 6.45321e-299 0)
(-1.2527e-298 1.11879e-298 0)
(-1.13753e-298 1.84925e-298 0)
(-5.36894e-299 3.00606e-298 0)
(1.10108e-298 4.72097e-298 0)
(-2.84024e-299 1.81893e-298 0)
(-1.33166e-298 3.34898e-299 0)
(-9.58164e-299 -2.71493e-300 0)
(-6.46722e-299 -9.42112e-300 0)
(-4.23548e-299 -8.34823e-300 0)
(-2.73658e-299 -5.45378e-300 0)
(-1.74312e-299 -2.67554e-300 0)
(-1.07484e-299 -5.06933e-301 0)
(-6.04836e-300 9.24695e-301 0)
(-2.01776e-300 1.22944e-300 0)
(-1.20782e-299 -2.5021e-300 0)
(-3.45347e-299 -1.09204e-299 0)
(-5.70457e-299 -1.47265e-299 0)
(-8.02528e-299 -1.43078e-299 0)
(-1.04609e-298 -8.95115e-300 0)
(-1.30239e-298 2.84947e-300 0)
(-1.56797e-298 2.34722e-299 0)
(-1.83134e-298 5.64348e-299 0)
(-2.06631e-298 1.07051e-298 0)
(-2.21712e-298 1.83612e-298 0)
(-2.16615e-298 3.00129e-298 0)
(-1.64038e-298 4.83772e-298 0)
(-5.20368e-299 7.54785e-298 0)
(-1.14518e-298 2.69163e-298 0)
(-1.57553e-298 4.32808e-299 0)
(-1.13067e-298 2.06324e-300 0)
(-7.8759e-299 -6.9097e-300 0)
(-5.34097e-299 -7.12232e-300 0)
(-3.56837e-299 -4.82818e-300 0)
(-2.35266e-299 -2.23375e-300 0)
(-1.51347e-299 -2.12215e-303 0)
(-9.08101e-300 1.65501e-300 0)
(-3.6457e-300 2.15899e-300 0)
(-1.71055e-299 -3.62843e-300 0)
(-4.93859e-299 -1.47209e-299 0)
(-8.18395e-299 -1.99911e-299 0)
(-1.15361e-298 -1.94483e-299 0)
(-1.50627e-298 -1.20046e-299 0)
(-1.8792e-298 4.44278e-300 0)
(-2.26944e-298 3.31013e-299 0)
(-2.66472e-298 7.87123e-299 0)
(-3.03677e-298 1.48268e-298 0)
(-3.3288e-298 2.52566e-298 0)
(-3.43522e-298 4.09345e-298 0)
(-3.15019e-298 6.51502e-298 0)
(-2.53067e-298 9.93946e-298 0)
(-2.0007e-298 3.31573e-298 0)
(-1.84147e-298 5.39407e-299 0)
(-1.31464e-298 6.86198e-300 0)
(-9.30412e-299 -4.21474e-300 0)
(-6.45854e-299 -5.63212e-300 0)
(-4.42503e-299 -3.98981e-300 0)
(-2.9995e-299 -1.66867e-300 0)
(-1.99901e-299 5.50156e-301 0)
(-1.26567e-299 2.40923e-300 0)
(-5.80284e-300 3.20639e-300 0)
(-2.24963e-299 -4.84122e-300 0)
(-6.53795e-299 -1.86899e-299 0)
(-1.08603e-298 -2.55239e-299 0)
(-1.53321e-298 -2.49811e-299 0)
(-2.00466e-298 -1.55471e-299 0)
(-2.50541e-298 5.43249e-300 0)
(-3.03422e-298 4.19836e-299 0)
(-3.58021e-298 9.99075e-299 0)
(-4.11702e-298 1.87722e-298 0)
(-4.59346e-298 3.18255e-298 0)
(-4.92263e-298 5.12061e-298 0)
(-4.95377e-298 8.04312e-298 0)
(-4.80859e-298 1.20057e-297 0)
(-2.88325e-298 3.83937e-298 0)
(-2.16013e-298 6.48884e-299 0)
(-1.5274e-298 1.14521e-299 0)
(-1.08917e-298 -1.66457e-300 0)
(-7.68222e-299 -4.17903e-300 0)
(-5.367e-299 -3.15987e-300 0)
(-3.7227e-299 -1.13574e-300 0)
(-2.55833e-299 1.02638e-300 0)
(-1.70033e-299 3.06303e-300 0)
(-8.66296e-300 4.24462e-300 0)
(-2.84026e-299 -6.17527e-300 0)
(-8.28836e-299 -2.30199e-299 0)
(-1.37899e-298 -3.16319e-299 0)
(-1.94874e-298 -3.12734e-299 0)
(-2.55026e-298 -2.00205e-299 0)
(-3.19137e-298 5.36387e-300 0)
(-3.87363e-298 4.96185e-299 0)
(-4.58924e-298 1.19556e-298 0)
(-5.31643e-298 2.24929e-298 0)
(-6.0128e-298 3.80253e-298 0)
(-6.60979e-298 6.07912e-298 0)
(-6.99227e-298 9.43816e-298 0)
(-7.2962e-298 1.38589e-297 0)
(-3.82096e-298 4.31858e-298 0)
(-2.53419e-298 7.5854e-299 0)
(-1.77323e-298 1.58313e-299 0)
(-1.26895e-298 6.74135e-301 0)
(-9.05212e-299 -2.86093e-300 0)
(-6.42132e-299 -2.42915e-300 0)
(-4.53912e-299 -7.18071e-301 0)
(-3.20244e-299 1.32477e-300 0)
(-2.22528e-299 3.44755e-300 0)
(-1.25141e-299 4.95815e-300 0)
(-3.49565e-299 -7.68706e-300 0)
(-1.0225e-298 -2.79016e-299 0)
(-1.70282e-298 -3.86056e-299 0)
(-2.40755e-298 -3.87207e-299 0)
(-3.15202e-298 -2.58638e-299 0)
(-3.94732e-298 3.72366e-300 0)
(-4.79857e-298 5.55064e-299 0)
(-5.70233e-298 1.37122e-298 0)
(-6.643e-298 2.59429e-298 0)
(-7.58834e-298 4.38113e-298 0)
(-8.48619e-298 6.96749e-298 0)
(-9.24511e-298 1.07145e-297 0)
(-9.98105e-298 1.55751e-297 0)
(-4.82961e-298 4.77403e-298 0)
(-2.95883e-298 8.6774e-299 0)
(-2.05204e-298 2.00736e-299 0)
(-1.47147e-298 2.8284e-300 0)
(-1.0587e-298 -1.69563e-300 0)
(-7.60152e-299 -1.83341e-300 0)
(-5.45523e-299 -4.63505e-301 0)
(-3.93095e-299 1.35827e-300 0)
(-2.8392e-299 3.3441e-300 0)
(-1.78044e-299 4.71115e-300 0)
(-4.2273e-299 -9.45955e-300 0)
(-1.23825e-298 -3.35129e-299 0)
(-2.06308e-298 -4.67617e-299 0)
(-2.91709e-298 -4.7724e-299 0)
(-3.81897e-298 -3.35845e-299 0)
(-4.78346e-298 -1.3534e-302 0)
(-5.81984e-298 5.90626e-299 0)
(-6.92975e-298 1.52085e-298 0)
(-8.10467e-298 2.90716e-298 0)
(-9.32289e-298 4.91528e-298 0)
(-1.05477e-297 7.78574e-298 0)
(-1.17121e-297 1.18784e-297 0)
(-1.2885e-297 1.71528e-297 0)
(-5.91644e-298 5.19858e-298 0)
(-3.42535e-298 9.76045e-299 0)
(-2.36003e-298 2.42833e-299 0)
(-1.69535e-298 4.87003e-300 0)
(-1.22818e-298 -6.55485e-301 0)
(-8.90299e-299 -1.37126e-300 0)
(-6.46162e-299 -3.86251e-301 0)
(-4.72269e-299 1.07955e-300 0)
(-3.50003e-299 2.49721e-300 0)
(-2.52586e-299 2.4362e-300 0)
(-1.4469e-303 -4.03264e-303 0)
(-7.40694e-303 -2.4674e-302 0)
(-4.66078e-303 -2.29613e-302 0)
(-4.67775e-303 -1.33606e-302 0)
(-4.93424e-303 -6.26095e-303 0)
(-4.28889e-303 -2.5682e-303 0)
(-3.14668e-303 -9.41863e-304 0)
(-2.04161e-303 -2.97254e-304 0)
(-1.2098e-303 -6.61384e-305 0)
(-6.67712e-304 4.77972e-306 0)
(-3.47072e-304 1.91681e-305 0)
(-1.70803e-304 1.66446e-305 0)
(-7.96418e-305 1.10361e-305 0)
(-3.50531e-305 6.38625e-306 0)
(-1.44206e-305 3.34768e-306 0)
(-5.43089e-306 1.5994e-306 0)
(-1.78662e-306 6.80959e-307 0)
(-4.46965e-307 2.28774e-307 0)
(-3.40616e-308 3.10423e-308 0)
(-1.70503e-303 -1.56395e-302 0)
(-1.57675e-302 -5.40473e-302 0)
(-1.54576e-302 -4.49163e-302 0)
(-1.56125e-302 -2.53397e-302 0)
(-1.40039e-302 -1.16542e-302 0)
(-1.09101e-302 -4.61025e-303 0)
(-7.5616e-303 -1.53608e-303 0)
(-4.78672e-303 -3.57371e-304 0)
(-2.82153e-303 2.55106e-305 0)
(-1.56817e-303 1.09823e-304 0)
(-8.27845e-304 9.9035e-305 0)
(-4.16523e-304 6.84169e-305 0)
(-1.99753e-304 4.15856e-305 0)
(-9.09921e-305 2.32091e-305 0)
(-3.90404e-305 1.20771e-305 0)
(-1.55024e-305 5.87078e-306 0)
(-5.47633e-306 2.6284e-306 0)
(-1.53344e-306 1.00553e-306 0)
(-1.41698e-307 1.99902e-307 0)
(-3.47853e-303 -3.79903e-302 0)
(-2.93002e-302 -9.36021e-302 0)
(-3.32848e-302 -7.0351e-302 0)
(-3.25674e-302 -3.79689e-302 0)
(-2.71164e-302 -1.69766e-302 0)
(-1.99253e-302 -6.48063e-303 0)
(-1.33113e-302 -1.98578e-303 0)
(-8.2598e-303 -3.13421e-304 0)
(-4.82902e-303 1.87759e-304 0)
(-2.68418e-303 2.60838e-304 0)
(-1.42584e-303 2.07776e-304 0)
(-7.2542e-304 1.37731e-304 0)
(-3.53315e-304 8.24684e-305 0)
(-1.64179e-304 4.59484e-305 0)
(-7.22355e-305 2.41078e-305 0)
(-2.9631e-305 1.19436e-305 0)
(-1.09474e-305 5.54022e-306 0)
(-3.29276e-306 2.27477e-306 0)
(-3.76979e-307 5.45983e-307 0)
(-1.25215e-302 -8.47613e-302 0)
(-5.62707e-302 -1.55444e-301 0)
(-6.53767e-302 -1.05189e-301 0)
(-6.05488e-302 -5.38067e-302 0)
(-4.75496e-302 -2.32545e-302 0)
(-3.34291e-302 -8.5601e-303 0)
(-2.16941e-302 -2.41264e-303 0)
(-1.32362e-302 -1.89744e-304 0)
(-7.67817e-303 4.28046e-304 0)
(-4.2631e-303 4.71959e-304 0)
(-2.27369e-303 3.57837e-304 0)
(-1.16629e-303 2.33478e-304 0)
(-5.74844e-304 1.39389e-304 0)
(-2.71322e-304 7.80146e-305 0)
(-1.21775e-304 4.13746e-305 0)
(-5.12549e-305 2.0873e-305 0)
(-1.96208e-305 9.97584e-306 0)
(-6.24017e-306 4.32375e-306 0)
(-8.42368e-307 1.18349e-306 0)
(-4.42958e-302 -1.82025e-301 0)
(-1.11019e-301 -2.51885e-301 0)
(-1.22976e-301 -1.53034e-301 0)
(-1.06379e-301 -7.39935e-302 0)
(-7.9244e-302 -3.09162e-302 0)
(-5.37069e-302 -1.10192e-302 0)
(-3.4045e-302 -2.87852e-303 0)
(-2.04931e-302 -1.74188e-306 0)
(-1.18153e-302 7.48992e-304 0)
(-6.55644e-303 7.51052e-304 0)
(-3.50995e-303 5.57102e-304 0)
(-1.81361e-303 3.61863e-304 0)
(-9.03284e-304 2.16685e-304 0)
(-4.32175e-304 1.22221e-304 0)
(-1.97331e-304 6.561e-305 0)
(-8.49086e-305 3.36885e-305 0)
(-3.34981e-305 1.65351e-305 0)
(-1.11633e-305 7.49673e-306 0)
(-1.7155e-306 2.28142e-306 0)
(-1.41508e-301 -3.84306e-301 0)
(-2.21352e-301 -3.9618e-301 0)
(-2.23455e-301 -2.15881e-301 0)
(-1.79233e-301 -9.8918e-302 0)
(-1.27097e-301 -4.01458e-302 0)
(-8.34799e-302 -1.396e-302 0)
(-5.19219e-302 -3.42918e-303 0)
(-3.09323e-302 2.36907e-304 0)
(-1.77607e-302 1.15174e-303 0)
(-9.86065e-303 1.10439e-303 0)
(-5.30062e-303 8.1239e-304 0)
(-2.75834e-303 5.2852e-304 0)
(-1.38727e-303 3.18448e-304 0)
(-6.72013e-304 1.81316e-304 0)
(-3.1161e-304 9.85657e-305 0)
(-1.3673e-304 5.14678e-305 0)
(-5.53885e-305 2.58695e-305 0)
(-1.92236e-305 1.21848e-305 0)
(-3.2981e-306 4.06553e-306 0)
(-4.12568e-301 -7.93753e-301 0)
(-4.40832e-301 -5.9665e-301 0)
(-3.92227e-301 -2.93095e-301 0)
(-2.90912e-301 -1.28342e-301 0)
(-1.9717e-301 -5.10275e-302 0)
(-1.26122e-301 -1.74827e-302 0)
(-7.72827e-302 -4.1198e-303 0)
(-4.57049e-302 5.0596e-304 0)
(-2.61891e-302 1.63427e-303 0)
(-1.45665e-302 1.53714e-303 0)
(-7.86802e-303 1.13042e-303 0)
(-4.12427e-303 7.39361e-304 0)
(-2.09404e-303 4.49122e-304 0)
(-1.02634e-303 2.58346e-304 0)
(-4.8275e-304 1.42203e-304 0)
(-2.15618e-304 7.54178e-305 0)
(-8.94271e-305 3.86932e-305 0)
(-3.21517e-305 1.87826e-305 0)
(-6.0803e-306 6.74473e-306 0)
(-1.08218e-300 -1.67632e-300 0)
(-8.6867e-301 -8.39156e-301 0)
(-6.56936e-301 -3.78326e-301 0)
(-4.52344e-301 -1.61001e-301 0)
(-2.9487e-301 -6.34527e-302 0)
(-1.84665e-301 -2.16612e-302 0)
(-1.11913e-301 -5.01949e-303 0)
(-6.58764e-302 7.63993e-304 0)
(-3.77339e-302 2.17598e-303 0)
(-2.10458e-302 2.04073e-303 0)
(-1.14265e-302 1.50858e-303 0)
(-6.03239e-303 9.94306e-304 0)
(-3.09021e-303 6.09447e-304 0)
(-1.53081e-303 3.54131e-304 0)
(-7.29231e-304 1.97164e-304 0)
(-3.30785e-304 1.0596e-304 0)
(-1.3998e-304 5.52292e-305 0)
(-5.18527e-305 2.73515e-305 0)
(-1.07654e-305 1.03058e-305 0)
(-5.48057e-299 -1.27247e-299 0)
(-1.60781e-298 -4.35493e-299 0)
(-2.67968e-298 -6.15933e-299 0)
(-3.78813e-298 -6.46562e-299 0)
(-4.95745e-298 -4.91484e-299 0)
(-6.20857e-298 -9.93933e-300 0)
(-7.55785e-298 6.00244e-299 0)
(-9.01565e-298 1.70166e-298 0)
(-1.0585e-297 3.33227e-298 0)
(-1.22605e-297 5.66493e-298 0)
(-1.40283e-297 8.9397e-298 0)
(-1.58611e-297 1.34868e-297 0)
(-1.77945e-297 1.91362e-297 0)
(-7.70509e-298 5.77229e-298 0)
(-4.19716e-298 1.14455e-298 0)
(-2.87067e-298 3.10699e-299 0)
(-2.06676e-298 8.12882e-300 0)
(-1.50886e-298 9.55364e-301 0)
(-1.10501e-298 -7.27087e-301 0)
(-8.10424e-299 -4.38428e-301 0)
(-5.97002e-299 2.85445e-301 0)
(-4.43434e-299 4.53685e-301 0)
(-3.29834e-299 -1.18174e-300 0)
(-7.28816e-299 -1.8263e-299 0)
(-2.14006e-298 -6.01834e-299 0)
(-3.56812e-298 -8.70498e-299 0)
(-5.04513e-298 -9.55863e-299 0)
(-6.60429e-298 -8.12347e-299 0)
(-8.2763e-298 -3.78223e-299 0)
(-1.00884e-297 4.26595e-299 0)
(-1.20635e-297 1.70587e-298 0)
(-1.42199e-297 3.59211e-298 0)
(-1.65705e-297 6.25632e-298 0)
(-1.91238e-297 9.91797e-298 0)
(-2.18836e-297 1.48493e-297 0)
(-2.48579e-297 2.07611e-297 0)
(-1.02858e-297 6.28762e-298 0)
(-5.31832e-298 1.32933e-298 0)
(-3.59326e-298 3.90964e-299 0)
(-2.58028e-298 1.2105e-299 0)
(-1.88808e-298 2.90106e-300 0)
(-1.3878e-298 -4.03304e-302 0)
(-1.01913e-298 -6.75961e-301 0)
(-7.45212e-299 -7.37872e-301 0)
(-5.38564e-299 -1.1787e-300 0)
(-3.747e-299 -2.59206e-300 0)
(-9.20229e-299 -2.543e-299 0)
(-2.69944e-298 -8.1723e-299 0)
(-4.50002e-298 -1.20825e-298 0)
(-6.36282e-298 -1.38482e-298 0)
(-8.33104e-298 -1.29155e-298 0)
(-1.04458e-297 -8.58107e-299 0)
(-1.27452e-297 4.06812e-301 0)
(-1.52641e-297 1.40379e-298 0)
(-1.80331e-297 3.47511e-298 0)
(-2.10787e-297 6.37965e-298 0)
(-2.44227e-297 1.0312e-297 0)
(-2.80841e-297 1.54874e-297 0)
(-3.20449e-297 2.15354e-297 0)
(-1.29723e-297 6.56849e-298 0)
(-6.5108e-298 1.44511e-298 0)
(-4.34636e-298 4.4052e-299 0)
(-3.10448e-298 1.44307e-299 0)
(-2.26705e-298 3.89158e-300 0)
(-1.66432e-298 1.21503e-301 0)
(-1.21859e-298 -1.08365e-300 0)
(-8.83919e-299 -1.50148e-300 0)
(-6.28189e-299 -1.95572e-300 0)
(-4.26565e-299 -2.68925e-300 0)
(-1.12328e-298 -3.48887e-299 0)
(-3.28743e-298 -1.1017e-298 0)
(-5.47636e-298 -1.6618e-298 0)
(-7.7406e-298 -1.97667e-298 0)
(-1.01341e-297 -1.982e-298 0)
(-1.27087e-297 -1.59852e-298 0)
(-1.55134e-297 -7.31351e-299 0)
(-1.85934e-297 7.33097e-299 0)
(-2.19892e-297 2.92724e-298 0)
(-2.57366e-297 6.00429e-298 0)
(-2.98652e-297 1.01354e-297 0)
(-3.4401e-297 1.54944e-297 0)
(-3.931e-297 2.16595e-297 0)
(-1.57568e-297 6.66573e-298 0)
(-7.773e-298 1.49004e-298 0)
(-5.1339e-298 4.52569e-299 0)
(-3.64481e-298 1.45246e-299 0)
(-2.65182e-298 3.53385e-300 0)
(-1.94117e-298 -4.63398e-301 0)
(-1.41632e-298 -1.77112e-300 0)
(-1.02181e-298 -2.14585e-300 0)
(-7.2063e-299 -2.32415e-300 0)
(-4.86141e-299 -2.47511e-300 0)
(-1.33835e-298 -4.73629e-299 0)
(-3.90417e-298 -1.4769e-298 0)
(-6.4966e-298 -2.26608e-298 0)
(-9.17658e-298 -2.7789e-298 0)
(-1.20098e-297 -2.94107e-298 0)
(-1.50594e-297 -2.66533e-298 0)
(-1.83848e-297 -1.8493e-298 0)
(-2.20407e-297 -3.76059e-299 0)
(-2.60762e-297 1.88754e-298 0)
(-3.05336e-297 5.08738e-298 0)
(-3.54477e-297 9.38057e-298 0)
(-4.08481e-297 1.49135e-297 0)
(-4.66939e-297 2.12367e-297 0)
(-1.86501e-297 6.60146e-298 0)
(-9.10248e-298 1.46186e-298 0)
(-5.95687e-298 4.21973e-299 0)
(-4.20405e-298 1.19077e-299 0)
(-3.04612e-298 1.45054e-300 0)
(-2.22255e-298 -2.08079e-300 0)
(-1.6166e-298 -2.98232e-300 0)
(-1.1624e-298 -2.95496e-300 0)
(-8.17111e-299 -2.67933e-300 0)
(-5.50625e-299 -2.33203e-300 0)
(-1.5654e-298 -6.36682e-299 0)
(-4.54858e-298 -1.96664e-298 0)
(-7.55835e-298 -3.06029e-298 0)
(-1.06673e-297 -3.84406e-298 0)
(-1.3954e-297 -4.23367e-298 0)
(-1.74936e-297 -4.13196e-298 0)
(-2.13563e-297 -3.42973e-298 0)
(-2.56062e-297 -2.00396e-298 0)
(-3.02999e-297 2.7974e-299 0)
(-3.54853e-297 3.56656e-298 0)
(-4.12015e-297 8.00636e-298 0)
(-4.74807e-297 1.37355e-297 0)
(-5.42795e-297 2.02885e-297 0)
(-2.16741e-297 6.37146e-298 0)
(-1.04993e-297 1.3521e-298 0)
(-6.81538e-298 3.41327e-299 0)
(-4.7832e-298 5.98509e-300 0)
(-3.45165e-298 -2.8239e-300 0)
(-2.51042e-298 -5.10112e-300 0)
(-1.82115e-298 -5.03551e-300 0)
(-1.30655e-298 -4.23308e-300 0)
(-9.1705e-299 -3.30979e-300 0)
(-6.18112e-299 -2.43459e-300 0)
(-1.8038e-298 -8.47272e-299 0)
(-5.21746e-298 -2.59814e-298 0)
(-8.6562e-298 -4.08854e-298 0)
(-1.22056e-297 -5.23246e-298 0)
(-1.5959e-297 -5.9331e-298 0)
(-2.00049e-297 -6.08338e-298 0)
(-2.44254e-297 -5.56446e-298 0)
(-2.9294e-297 -4.2473e-298 0)
(-3.46748e-297 -1.99128e-298 0)
(-4.06211e-297 1.35129e-298 0)
(-4.7176e-297 5.93406e-298 0)
(-5.43741e-297 1.18947e-297 0)
(-6.21711e-297 1.87643e-297 0)
(-2.4858e-297 5.94468e-298 0)
(-1.19657e-297 1.14286e-298 0)
(-7.70936e-298 1.98655e-299 0)
(-5.38213e-298 -4.09326e-300 0)
(-3.86861e-298 -9.91048e-300 0)
(-2.80517e-298 -9.99248e-300 0)
(-2.03018e-298 -8.29944e-300 0)
(-1.454e-298 -6.28013e-300 0)
(-1.01958e-298 -4.44357e-300 0)
(-6.87442e-299 -2.90127e-300 0)
(-2.05181e-298 -1.11623e-298 0)
(-5.90418e-298 -3.40258e-298 0)
(-9.77896e-298 -5.40217e-298 0)
(-1.37772e-297 -7.01304e-298 0)
(-1.80095e-297 -8.12467e-298 0)
(-2.25799e-297 -8.61694e-298 0)
(-2.75834e-297 -8.36175e-298 0)
(-3.31041e-297 -7.22035e-298 0)
(-3.92137e-297 -5.04524e-298 0)
(-4.59715e-297 -1.67892e-298 0)
(-5.34238e-297 3.04167e-298 0)
(-6.16087e-297 9.26998e-298 0)
(-7.04777e-297 1.65404e-297 0)
(-2.82346e-297 5.26145e-298 0)
(-1.35049e-297 8.04949e-299 0)
(-8.63809e-298 -2.38083e-300 0)
(-5.99962e-298 -1.95006e-299 0)
(-4.29601e-298 -2.06125e-299 0)
(-3.10603e-298 -1.73202e-299 0)
(-2.24299e-298 -1.31826e-299 0)
(-1.60395e-298 -9.39292e-300 0)
(-1.12382e-298 -6.28224e-300 0)
(-7.57807e-299 -3.83896e-300 0)
(-2.30595e-298 -1.45633e-298 0)
(-6.59615e-298 -4.41689e-298 0)
(-1.09061e-297 -7.06082e-298 0)
(-1.53555e-297 -9.26686e-298 0)
(-2.00761e-297 -1.09065e-297 0)
(-2.51898e-297 -1.18465e-297 0)
(-3.08068e-297 -1.19464e-297 0)
(-3.70223e-297 -1.10591e-297 0)
(-4.39168e-297 -9.02589e-298 0)
(-5.15547e-297 -5.67829e-298 0)
(-5.99869e-297 -8.34521e-299 0)
(-6.92537e-297 5.68255e-298 0)
(-7.92983e-297 1.34223e-297 0)
(-3.18339e-297 4.23066e-298 0)
(-1.51182e-297 2.9657e-299 0)
(-9.59931e-298 -3.50096e-299 0)
(-6.63308e-298 -4.17399e-299 0)
(-4.73166e-298 -3.59012e-299 0)
(-3.41129e-298 -2.77257e-299 0)
(-2.45823e-298 -2.01161e-299 0)
(-1.75527e-298 -1.38619e-299 0)
(-1.2288e-298 -9.01231e-300 0)
(-8.28492e-299 -5.35169e-300 0)
(-2.55985e-298 -1.88318e-298 0)
(-7.27177e-298 -5.68501e-298 0)
(-1.20023e-297 -9.13598e-298 0)
(-1.6895e-297 -1.20887e-297 0)
(-2.21072e-297 -1.43941e-297 0)
(-2.77824e-297 -1.59024e-297 0)
(-3.40473e-297 -1.64632e-297 0)
(-4.10099e-297 -1.59193e-297 0)
(-4.87587e-297 -1.41033e-297 0)
(-5.73642e-297 -1.08311e-297 0)
(-6.68805e-297 -5.90076e-298 0)
(-7.7352e-297 8.99992e-299 0)
(-8.87028e-297 9.14168e-298 0)
(-3.56765e-297 2.72726e-298 0)
(-1.68025e-297 -4.37143e-299 0)
(-1.05879e-297 -8.101e-299 0)
(-7.27802e-298 -7.25762e-299 0)
(-5.17208e-298 -5.68495e-299 0)
(-3.71833e-298 -4.18729e-299 0)
(-2.67393e-298 -2.9518e-299 0)
(-1.90647e-298 -1.99519e-299 0)
(-1.33343e-298 -1.27981e-299 0)
(-8.98726e-299 -7.53406e-300 0)
(-2.80293e-298 -2.41618e-298 0)
(-7.89539e-298 -7.26125e-298 0)
(-1.30101e-297 -1.17138e-297 0)
(-1.83215e-297 -1.55925e-297 0)
(-2.40191e-297 -1.87216e-297 0)
(-3.02708e-297 -2.09362e-297 0)
(-3.72217e-297 -2.20757e-297 0)
(-4.49916e-297 -2.19785e-297 0)
(-5.36773e-297 -2.04686e-297 0)
(-6.33538e-297 -1.73505e-297 0)
(-7.40791e-297 -1.23977e-297 0)
(-8.59008e-297 -5.3609e-298 0)
(-9.87134e-297 3.36361e-298 0)
(-3.97639e-297 5.91585e-299 0)
(-1.85471e-297 -1.46297e-298 0)
(-1.15947e-297 -1.43777e-298 0)
(-7.92753e-298 -1.13865e-298 0)
(-5.61228e-298 -8.44948e-299 0)
(-4.02356e-298 -6.0351e-299 0)
(-2.88745e-298 -4.17297e-299 0)
(-2.05563e-298 -2.78655e-299 0)
(-1.4363e-298 -1.77604e-299 0)
(-9.67545e-299 -1.04568e-299 0)
(-3.01807e-298 -3.08069e-298 0)
(-8.41031e-298 -9.21397e-298 0)
(-1.38392e-297 -1.49018e-297 0)
(-1.9521e-297 -1.99151e-297 0)
(-2.56838e-297 -2.40482e-297 0)
(-3.25229e-297 -2.712e-297 0)
(-4.02e-297 -2.89681e-297 0)
(-4.88454e-297 -2.94304e-297 0)
(-5.85611e-297 -2.83323e-297 0)
(-6.9426e-297 -2.54682e-297 0)
(-8.14996e-297 -2.05941e-297 0)
(-9.48353e-297 -1.34196e-297 0)
(-1.09281e-296 -4.30498e-298 0)
(-4.4068e-297 -2.3667e-298 0)
(-2.03297e-297 -2.85524e-298 0)
(-1.26049e-297 -2.26696e-298 0)
(-8.57173e-298 -1.67224e-298 0)
(-6.04542e-298 -1.19609e-298 0)
(-4.32211e-298 -8.35245e-299 0)
(-3.09528e-298 -5.6925e-299 0)
(-2.20016e-298 -3.76892e-299 0)
(-1.53554e-298 -2.39461e-299 0)
(-1.03365e-298 -1.4148e-299 0)
(-3.17799e-298 -3.91132e-298 0)
(-8.72642e-298 -1.16336e-297 0)
(-1.43501e-297 -1.88364e-297 0)
(-2.03214e-297 -2.52265e-297 0)
(-2.69139e-297 -3.0561e-297 0)
(-3.43478e-297 -3.46513e-297 0)
(-4.27966e-297 -3.73413e-297 0)
(-5.23936e-297 -3.84843e-297 0)
(-6.32421e-297 -3.79137e-297 0)
(-7.54207e-297 -3.54277e-297 0)
(-8.89907e-297 -3.07687e-297 0)
(-1.0401e-296 -2.36168e-297 0)
(-1.20266e-296 -1.42899e-297 0)
(-4.85181e-297 -6.35629e-298 0)
(-2.21133e-297 -4.68562e-298 0)
(-1.35972e-297 -3.32359e-298 0)
(-9.19695e-298 -2.33499e-298 0)
(-6.46221e-298 -1.6236e-298 0)
(-4.60735e-298 -1.11335e-298 0)
(-3.29254e-298 -7.49976e-299 0)
(-2.33646e-298 -4.93314e-299 0)
(-1.62855e-298 -3.12929e-299 0)
(-1.09523e-298 -1.85728e-299 0)
(-3.2381e-298 -4.95927e-298 0)
(-8.69833e-298 -1.46441e-297 0)
(-1.43263e-297 -2.36983e-297 0)
(-2.04687e-297 -3.17376e-297 0)
(-2.74437e-297 -3.84834e-297 0)
(-3.54852e-297 -4.37512e-297 0)
(-4.47621e-297 -4.74139e-297 0)
(-5.53995e-297 -4.93547e-297 0)
(-6.74914e-297 -4.94351e-297 0)
(-8.11135e-297 -4.74661e-297 0)
(-9.63249e-297 -4.31951e-297 0)
(-1.13193e-296 -3.62841e-297 0)
(-1.31425e-296 -2.70185e-297 0)
(-5.29863e-297 -1.15777e-297 0)
(-2.38415e-297 -7.00333e-298 0)
(-1.45412e-297 -4.61254e-298 0)
(-9.78415e-298 -3.11981e-298 0)
(-6.84954e-298 -2.11887e-298 0)
(-4.86977e-298 -1.43075e-298 0)
(-3.47218e-298 -9.54454e-299 0)
(-2.45934e-298 -6.24631e-299 0)
(-1.71157e-298 -3.95984e-299 0)
(-1.14969e-298 -2.36159e-299 0)
(-3.11994e-298 -6.30714e-298 0)
(-8.08034e-298 -1.84257e-297 0)
(-1.34267e-297 -2.9731e-297 0)
(-1.95886e-297 -3.97172e-297 0)
(-2.69075e-297 -4.80785e-297 0)
(-3.55942e-297 -5.46669e-297 0)
(-4.5784e-297 -5.94125e-297 0)
(-5.757e-297 -6.22578e-297 0)
(-7.10269e-297 -6.31069e-297 0)
(-8.62191e-297 -6.18039e-297 0)
(-1.03205e-296 -5.81146e-297 0)
(-1.2206e-296 -5.17142e-297 0)
(-1.42405e-296 -4.28683e-297 0)
(-5.72642e-297 -1.81733e-297 0)
(-2.54284e-297 -9.79948e-298 0)
(-1.53925e-297 -6.09769e-298 0)
(-1.03052e-297 -3.99421e-298 0)
(-7.18774e-298 -2.65841e-298 0)
(-5.09505e-298 -1.77191e-298 0)
(-3.62375e-298 -1.17285e-298 0)
(-2.56124e-298 -7.64795e-299 0)
(-1.77931e-298 -4.85002e-299 0)
(-1.19346e-298 -2.90703e-299 0)
(-2.66338e-298 -8.1026e-298 0)
(-6.4293e-298 -2.32514e-297 0)
(-1.10979e-297 -3.72728e-297 0)
(-1.71341e-297 -4.9504e-297 0)
(-2.48161e-297 -5.96532e-297 0)
(-3.42544e-297 -6.76617e-297 0)
(-4.54955e-297 -7.35666e-297 0)
(-5.85739e-297 -7.73962e-297 0)
(-7.35296e-297 -7.91201e-297 0)
(-9.04138e-297 -7.86244e-297 0)
(-1.0928e-296 -7.57171e-297 0)
(-1.30218e-296 -7.01179e-297 0)
(-1.52762e-296 -6.21126e-297 0)
(-6.10046e-297 -2.61315e-297 0)
(-2.67361e-297 -1.29463e-297 0)
(-1.60804e-297 -7.67533e-298 0)
(-1.07151e-297 -4.89032e-298 0)
(-7.44576e-298 -3.20069e-298 0)
(-5.26132e-298 -2.11199e-298 0)
(-3.73189e-298 -1.3904e-298 0)
(-2.63158e-298 -9.05014e-299 0)
(-1.82463e-298 -5.74777e-299 0)
(-1.22188e-298 -3.46353e-299 0)
(-1.46028e-298 -1.06219e-297 0)
(-2.87837e-298 -2.95507e-297 0)
(-6.42075e-298 -4.67909e-297 0)
(-1.23161e-297 -6.15165e-297 0)
(-2.0549e-297 -7.35457e-297 0)
(-3.09829e-297 -8.30038e-297 0)
(-4.3507e-297 -9.00892e-297 0)
(-5.8071e-297 -9.49511e-297 0)
(-7.46791e-297 -9.76316e-297 0)
(-9.33686e-297 -9.80682e-297 0)
(-1.14191e-296 -9.61173e-297 0)
(-1.37245e-296 -9.15908e-297 0)
(-1.62003e-296 -8.48516e-297 0)
(-6.35279e-297 -3.50855e-297 0)
(-2.75188e-297 -1.60955e-297 0)
(-1.64836e-297 -9.14543e-298 0)
(-1.09395e-297 -5.69998e-298 0)
(-7.57507e-298 -3.68705e-298 0)
(-5.33653e-298 -2.41841e-298 0)
(-3.77559e-298 -1.58842e-298 0)
(-2.65674e-298 -1.03432e-298 0)
(-1.83882e-298 -6.58783e-299 0)
(-1.22955e-298 -3.99283e-299 0)
(1.81695e-298 -1.43557e-297 0)
(4.39381e-298 -3.79808e-297 0)
(2.13963e-298 -5.88958e-297 0)
(-4.05286e-298 -7.6222e-297 0)
(-1.33897e-297 -9.00909e-297 0)
(-2.52974e-297 -1.00929e-296 0)
(-3.94615e-297 -1.09157e-296 0)
(-5.57627e-297 -1.15062e-296 0)
(-7.41961e-297 -1.1876e-296 0)
(-9.48042e-297 -1.20222e-296 0)
(-1.17629e-296 -1.1935e-296 0)
(-1.42753e-296 -1.16077e-296 0)
(-1.69669e-296 -1.10946e-296 0)
(-6.31575e-297 -4.37779e-297 0)
(-2.73345e-297 -1.85272e-297 0)
(-1.63963e-297 -1.02009e-297 0)
(-1.08618e-297 -6.2853e-298 0)
(-7.50647e-298 -4.0503e-298 0)
(-5.27929e-298 -2.65548e-298 0)
(-3.73002e-298 -1.74668e-298 0)
(-2.62178e-298 -1.1407e-298 0)
(-1.81292e-298 -7.29737e-299 0)
(-1.21116e-298 -4.45115e-299 0)
(1.20637e-297 -1.91178e-297 0)
(1.93388e-297 -4.95009e-297 0)
(1.69451e-297 -7.43465e-297 0)
(8.9004e-298 -9.41282e-297 0)
(-2.71617e-298 -1.09621e-296 0)
(-1.68684e-297 -1.21667e-296 0)
(-3.31376e-297 -1.30943e-296 0)
(-5.14498e-297 -1.37877e-296 0)
(-7.18864e-297 -1.42638e-296 0)
(-9.45438e-297 -1.45198e-296 0)
(-1.19441e-296 -1.45438e-296 0)
(-1.46506e-296 -1.43392e-296 0)
(-1.75254e-296 -1.39854e-296 0)
(-5.57226e-297 -4.82394e-297 0)
(-2.55768e-297 -1.89742e-297 0)
(-1.54974e-297 -1.04824e-297 0)
(-1.03259e-297 -6.51903e-298 0)
(-7.16091e-298 -4.23246e-298 0)
(-5.04857e-298 -2.79189e-298 0)
(-3.5733e-298 -1.84662e-298 0)
(-2.51476e-298 -1.21267e-298 0)
(-1.74034e-298 -7.80437e-299 0)
(-1.16307e-298 -4.79389e-299 0)
(4.6302e-297 -2.6894e-297 0)
(4.67911e-297 -6.38069e-297 0)
(3.90663e-297 -9.2375e-297 0)
(2.63775e-297 -1.14348e-296 0)
(1.09715e-297 -1.31273e-296 0)
(-6.18089e-298 -1.44415e-296 0)
(-2.48847e-297 -1.54694e-296 0)
(-4.53352e-297 -1.62659e-296 0)
(-6.78567e-297 -1.68521e-296 0)
(-9.27034e-297 -1.72224e-296 0)
(-1.1987e-296 -1.73606e-296 0)
(-1.48827e-296 -1.72521e-296 0)
(-7.7453e-297 -7.47909e-297 0)
(-3.4753e-297 -3.16788e-297 0)
(-2.05196e-297 -1.64562e-297 0)
(-1.33816e-297 -9.90539e-298 0)
(-9.20775e-298 -6.36586e-298 0)
(-6.49558e-298 -4.20653e-298 0)
(-4.62823e-298 -2.80815e-298 0)
(-3.29906e-298 -1.87488e-298 0)
(-2.33319e-298 -1.24127e-298 0)
(-1.62015e-298 -8.04937e-299 0)
(-1.08502e-298 -4.98262e-299 0)
(3.14019e-297 -2.00724e-297 0)
(2.38587e-297 -3.71977e-297 0)
(1.74899e-297 -4.80123e-297 0)
(1.04829e-297 -5.53055e-297 0)
(3.35051e-298 -6.0523e-297 0)
(-3.99556e-298 -6.43043e-297 0)
(-1.17505e-297 -6.69973e-297 0)
(-2.01222e-297 -6.87531e-297 0)
(-2.91967e-297 -6.95022e-297 0)
(-3.86892e-297 -6.87932e-297 0)
(-4.73209e-297 -6.52099e-297 0)
(-5.07994e-297 -5.52474e-297 0)
(-3.27006e-297 -3.41005e-297 0)
(-2.15571e-297 -2.11452e-297 0)
(-1.50205e-297 -1.33607e-297 0)
(-1.06855e-297 -8.75639e-298 0)
(-7.7064e-298 -5.87008e-298 0)
(-5.59142e-298 -3.97708e-298 0)
(-4.05697e-298 -2.70079e-298 0)
(-2.92784e-298 -1.82675e-298 0)
(-2.0887e-298 -1.22231e-298 0)
(-1.45923e-298 -7.99968e-299 0)
(-9.81111e-299 -4.99373e-299 0)
(6.31734e-298 -1.64586e-297 0)
(3.32246e-298 -2.16755e-297 0)
(1.80623e-298 -2.41424e-297 0)
(-4.06056e-300 -2.63302e-297 0)
(-2.21755e-298 -2.81251e-297 0)
(-4.72832e-298 -2.94545e-297 0)
(-7.57468e-298 -3.032e-297 0)
(-1.073e-297 -3.07342e-297 0)
(-1.40686e-297 -3.06755e-297 0)
(-1.72515e-297 -3.00349e-297 0)
(-1.95646e-297 -2.85533e-297 0)
(-1.975e-297 -2.58634e-297 0)
(-1.69272e-297 -2.04437e-297 0)
(-1.36108e-297 -1.48845e-297 0)
(-1.06206e-297 -1.05071e-297 0)
(-8.12418e-298 -7.36524e-298 0)
(-6.14088e-298 -5.15e-298 0)
(-4.59847e-298 -3.58943e-298 0)
(-3.41068e-298 -2.48785e-298 0)
(-2.50047e-298 -1.70931e-298 0)
(-1.80432e-298 -1.15827e-298 0)
(-1.27095e-298 -7.66081e-299 0)
(-8.59212e-299 -4.82537e-299 0)
(-1.86965e-298 -1.02517e-297 0)
(-1.82743e-298 -1.35265e-297 0)
(-1.83721e-298 -1.50146e-297 0)
(-2.25448e-298 -1.62345e-297 0)
(-3.02609e-298 -1.72205e-297 0)
(-4.092e-298 -1.79399e-297 0)
(-5.40053e-298 -1.83857e-297 0)
(-6.88372e-298 -1.85649e-297 0)
(-8.42328e-298 -1.84764e-297 0)
(-9.81571e-298 -1.80838e-297 0)
(-1.07579e-297 -1.72827e-297 0)
(-1.09021e-297 -1.58571e-297 0)
(-1.01884e-297 -1.34663e-297 0)
(-8.92285e-298 -1.06694e-297 0)
(-7.44945e-298 -8.08634e-298 0)
(-6.00674e-298 -5.97328e-298 0)
(-4.72444e-298 -4.33891e-298 0)
(-3.64476e-298 -3.11067e-298 0)
(-2.76462e-298 -2.20305e-298 0)
(-2.06151e-298 -1.53965e-298 0)
(-1.50677e-298 -1.05781e-298 0)
(-1.07147e-298 -7.07621e-299 0)
(-7.29033e-299 -4.49853e-299 0)
(-2.66943e-298 -5.87858e-298 0)
(-2.63919e-298 -8.57478e-298 0)
(-2.49055e-298 -9.90117e-298 0)
(-2.54515e-298 -1.0829e-297 0)
(-2.83536e-298 -1.1515e-297 0)
(-3.33088e-298 -1.19932e-297 0)
(-3.98907e-298 -1.22784e-297 0)
(-4.75293e-298 -1.23829e-297 0)
(-5.54052e-298 -1.23107e-297 0)
(-6.23793e-298 -1.20438e-297 0)
(-6.70781e-298 -1.15262e-297 0)
(-6.82845e-298 -1.06565e-297 0)
(-6.57299e-298 -9.33767e-298 0)
(-5.99298e-298 -7.74168e-298 0)
(-5.21233e-298 -6.14241e-298 0)
(-4.36259e-298 -4.71979e-298 0)
(-3.54165e-298 -3.54045e-298 0)
(-2.80413e-298 -2.60482e-298 0)
(-2.17194e-298 -1.88385e-298 0)
(-1.64677e-298 -1.33931e-298 0)
(-1.21947e-298 -9.33238e-299 0)
(-8.7583e-299 -6.31545e-299 0)
(-5.99995e-299 -4.05158e-299 0)
(-2.16108e-298 -3.38078e-298 0)
(-2.31535e-298 -5.43491e-298 0)
(-2.25818e-298 -6.58356e-298 0)
(-2.25456e-298 -7.36298e-298 0)
(-2.37321e-298 -7.91086e-298 0)
(-2.61451e-298 -8.28014e-298 0)
(-2.95634e-298 -8.49792e-298 0)
(-3.36225e-298 -8.58083e-298 0)
(-3.78182e-298 -8.53541e-298 0)
(-4.1521e-298 -8.3525e-298 0)
(-4.40556e-298 -8.00167e-298 0)
(-4.48703e-298 -7.43569e-298 0)
(-4.37389e-298 -6.62669e-298 0)
(-4.07478e-298 -5.64536e-298 0)
(-3.63705e-298 -4.61918e-298 0)
(-3.12594e-298 -3.65573e-298 0)
(-2.60115e-298 -2.81537e-298 0)
(-2.10481e-298 -2.11885e-298 0)
(-1.66084e-298 -1.56221e-298 0)
(-1.27888e-298 -1.12889e-298 0)
(-9.58999e-299 -7.97451e-299 0)
(-6.95506e-299 -5.45748e-299 0)
(-4.79669e-299 -3.53132e-299 0)
(-1.54731e-298 -1.96949e-298 0)
(-1.76449e-298 -3.44344e-298 0)
(-1.78744e-298 -4.3662e-298 0)
(-1.79833e-298 -5.0115e-298 0)
(-1.86025e-298 -5.4646e-298 0)
(-1.98615e-298 -5.76914e-298 0)
(-2.16862e-298 -5.95157e-298 0)
(-2.38803e-298 -6.02847e-298 0)
(-2.61581e-298 -6.00728e-298 0)
(-2.81745e-298 -5.88443e-298 0)
(-2.95747e-298 -5.64466e-298 0)
(-3.00658e-298 -5.26723e-298 0)
(-2.94829e-298 -4.74584e-298 0)
(-2.78178e-298 -4.11565e-298 0)