/*--------------------------------*- C++ -*----------------------------------*\
| =========                 |                                                 |
| \\      /  F ield         | OpenFOAM: The Open Source CFD Toolbox           |
|  \\    /   O peration     | Version:  2406                                  |
|   \\  /    A nd           | Website:  www.openfoam.com                      |
|    \\/     M anipulation  |                                                 |
\*---------------------------------------------------------------------------*/
FoamFile
{
    version     2.0;
    format      ascii;
    arch        "LSB;label=32;scalar=64";
    class       volScalarField;
    location    "0.2";
    object      epsilon;
}
// * * * * * * * * * * * * * * * * * * * * * * * * * * * * * * * * * * * * * //

dimensions      [0 2 -3 0 0 0 0];

internalField   nonuniform List<scalar> 
2268
(
3.11056
4.22461
4.22461
4.22461
4.22461
4.22461
4.22461
4.22461
4.22461
4.22461
4.22461
4.22461
4.22461
0.207807
0.234177
0.289427
0.319337
0.331046
0.327568
0.307265
0.264008
0.187987
0.0769714
1.99652
3.53904
3.87395
3.99094
4.04704
4.07914
4.09939
4.11283
4.12192
4.12796
4.13166
4.13343
4.13343
0.270021
0.162617
0.167894
0.174307
0.176861
0.17553
0.169419
0.156073
0.132197
0.112592
1.99652
3.12319
3.57196
3.77086
3.87483
3.93633
3.9757
4.00204
4.01992
4.03183
4.03915
4.04264
4.04264
0.317367
0.1664
0.153062
0.151251
0.150667
0.149797
0.14779
0.143266
0.13513
0.152625
1.99652
2.85875
3.32578
3.57199
3.71211
3.79846
3.85491
3.89312
3.91925
3.93672
3.94749
3.95264
3.95263
0.347916
0.174366
0.149432
0.142265
0.139575
0.138848
0.139222
0.140034
0.141679
0.182089
1.99652
2.68257
3.12893
3.39682
3.5614
3.66727
3.7382
3.78691
3.82052
3.84312
3.85709
3.86378
3.86378
0.367941
0.180792
0.147766
0.136612
0.132264
0.131517
0.133515
0.138258
0.147764
0.207293
1.99652
2.55993
2.97192
3.24472
3.42379
3.54389
3.62645
3.68408
3.72425
3.75144
3.76832
3.77642
3.77642
0.381206
0.185173
0.146287
0.132091
0.126389
0.125491
0.128561
0.13632
0.153266
0.234407
1.99652
2.47111
2.84601
3.11356
3.29936
3.42889
3.52026
3.58514
3.63088
3.66206
3.68151
3.69086
3.69086
0.389962
0.1878
0.144602
0.128102
0.121291
0.120112
0.123737
0.133603
0.158292
0.279906
1.99652
2.40455
2.74407
3.00066
3.18749
3.32242
3.41999
3.49048
3.54075
3.5753
3.59696
3.6074
3.6074
0.39556
0.188898
0.142558
0.124388
0.116687
0.115098
0.118727
0.129402
0.160622
0.412418
0.0831689
0.200624
0.277723
0.32033
0.341746
0.351616
0.35583
0.357505
0.358087
0.358139
0.357754
0.356667
0.354113
0.348471
0.336667
0.313477
0.270825
0.197669
0.097614
0.113267
0.136044
0.160225
0.173041
0.179135
0.18184
0.182975
0.183426
0.183585
0.183602
0.183501
0.183216
0.182547
0.181054
0.177838
0.171204
0.158217
0.135203
0.118179
0.152372
0.136536
0.1446
0.148593
0.15019
0.150801
0.151043
0.151144
0.151183
0.151189
0.151168
0.151109
0.150977
0.150676
0.149935
0.148079
0.143685
0.135441
0.151884
0.180422
0.141618
0.139611
0.138268
0.137198
0.136567
0.13627
0.136156
0.136122
0.136122
0.13615
0.136233
0.136437
0.136868
0.137625
0.138624
0.139332
0.139767
0.175931
0.204251
0.14647
0.136429
0.131175
0.128222
0.126709
0.126019
0.125741
0.125649
0.125646
0.125718
0.125923
0.126401
0.127407
0.129296
0.132402
0.13681
0.143448
0.193934
0.230403
0.150671
0.133254
0.12505
0.120773
0.118636
0.117654
0.117247
0.117108
0.117105
0.117222
0.117541
0.118263
0.119753
0.12255
0.12729
0.134527
0.145928
0.207662
0.275167
0.1541
0.129452
0.119239
0.114145
0.111611
0.110429
0.109926
0.10975
0.109751
0.109915
0.110345
0.111289
0.113189
0.11671
0.122696
0.13208
0.147245
0.218177
0.399514
0.154669
0.124464
0.113454
0.108055
0.10534
0.104042
0.103473
0.103272
0.103282
0.103495
0.104034
0.105179
0.107416
0.111478
0.118334
0.129219
0.14735
0.226302
1.99652
2.32441
2.61365
2.84849
3.03071
3.16899
3.27268
3.34954
3.40534
3.44415
3.46867
3.48055
3.48055
0.40023
0.188231
0.13865
0.118788
0.110013
0.107598
0.110362
0.119295
0.139707
0.195827
1.99652
2.25443
2.4912
2.69465
2.86183
2.99521
3.09938
3.17907
3.23829
3.28018
3.30694
3.31998
3.31998
0.402526
0.188227
0.136087
0.114609
0.104613
0.100995
0.102092
0.107715
0.118921
0.138509
1.99652
2.20583
2.40241
2.57748
2.72708
2.85095
2.95084
3.02927
3.08877
3.13149
3.15907
3.17259
3.17258
0.402763
0.188383
0.134738
0.112114
0.101108
0.0963586
0.0958471
0.0987226
0.104605
0.113089
1.99652
2.17008
2.33538
2.48604
2.61834
2.73091
2.82397
2.89861
2.95621
2.99811
3.0254
3.03885
3.03885
0.401981
0.188424
0.133895
0.11049
0.0987039
0.0930123
0.0911865
0.0920821
0.0949258
0.0989653
1.99652
2.14267
2.28312
2.41316
2.52955
2.63059
2.71572
2.78517
2.83951
2.87948
2.90573
2.91872
2.91872
0.400738
0.188401
0.133343
0.109415
0.0970603
0.0906567
0.0878681
0.0874442
0.0885511
0.0905261
1.99652
2.12103
2.2414
2.35405
2.45627
2.54634
2.62333
2.68697
2.73735
2.77473
2.79944
2.81172
2.81172
0.399311
0.188353
0.132982
0.108713
0.0959693
0.0890717
0.0856342
0.0843814
0.0845086
0.0854719
1.99652
2.10357
2.20749
2.30548
2.39529
2.47528
2.54444
2.60219
2.64832
2.6828
2.7057
2.71713
2.71713
0.397841
0.188298
0.132748
0.108265
0.0952744
0.0880605
0.0842171
0.0824724
0.0820645
0.0825378
1.99652
2.08927
2.17957
2.26518
2.34421
2.41519
2.47707
2.52916
2.57105
2.60256
2.62357
2.63408
2.63408
0.396402
0.188241
0.132596
0.107986
0.0948497
0.0874492
0.0833701
0.081351
0.0806646
0.0809131
1.99652
2.07744
2.15639
2.23154
2.30128
2.3643
2.41959
2.46642
2.5043
2.53291
2.55207
2.56166
2.56166
0.39504
0.188184
0.132494
0.107813
0.0945978
0.0870968
0.0828916
0.0807297
0.0799075
0.0800615
1.99652
2.0676
2.13706
2.20336
2.26514
2.32122
2.37066
2.41274
2.44691
2.47282
2.49022
2.49895
2.49895
0.393778
0.188126
0.132422
0.107703
0.0944492
0.0868999
0.0826335
0.0804037
0.0795204
0.0796399
1.99652
2.0594
2.12092
2.17976
2.23475
2.28485
2.32917
2.36703
2.39789
2.42134
2.43712
2.44505
2.44505
0.392634
0.18807
0.132365
0.107626
0.0943571
0.0867888
0.0824973
0.0802392
0.079332
0.0794422
1.99652
2.05258
2.10747
2.16007
2.20932
2.2543
2.29422
2.32841
2.35634
2.37763
2.39197
2.39918
2.39918
0.391619
0.188015
0.132316
0.107565
0.094291
0.0867192
0.0824219
0.0801559
0.0792425
0.0793532
1.99652
2.04695
2.09635
2.14374
2.1882
2.22888
2.26506
2.29611
2.32153
2.34092
2.35401
2.3606
2.3606
0.390747
0.187966
0.132264
0.107501
0.0942278
0.0866617
0.08237
0.0801078
0.0791974
0.0793128
1.99652
2.04235
2.08726
2.13039
2.17089
2.20801
2.24107
2.26949
2.2928
2.3106
2.32262
2.32868
2.32868
0.390046
0.187926
0.132192
0.107409
0.0941411
0.0865907
0.0823159
0.0800677
0.0791676
0.0792912
1.99652
2.03866
2.07999
2.11969
2.15701
2.19125
2.22178
2.24806
2.26963
2.28612
2.29727
2.30289
2.30289
0.389596
0.187894
0.132057
0.10724
0.0939887
0.0864744
0.0822357
0.0800161
0.0791361
0.0792732
1.99652
2.03582
2.07436
2.1114
2.14625
2.17824
2.20679
2.23138
2.25159
2.26705
2.27751
2.28278
2.28278
0.389611
0.187837
0.131741
0.106885
0.0936953
0.0862651
0.0821003
0.0799351
0.079091
0.0792505
1.99652
2.03373
2.07024
2.10533
2.13836
2.1687
2.1958
2.21915
2.23835
2.25304
2.26298
2.268
2.26799
0.390578
0.187503
0.130922
0.106123
0.0931322
0.0858935
0.0818737
0.0798059
0.0790223
0.0792174
1.99652
2.03237
2.06754
2.10136
2.1332
2.16245
2.18859
2.21112
2.22965
2.24384
2.25344
2.25829
2.25828
0.392208
0.185476
0.128744
0.104543
0.0921126
0.0852761
0.0815185
0.0796118
0.0789223
0.0791705
1.99652
2.03169
2.0662
2.09939
2.13064
2.15936
2.18502
2.20715
2.22534
2.23928
2.24872
2.25347
2.25347
0.377565
0.175748
0.123376
0.101571
0.0904496
0.08435
0.0810137
0.0793459
0.0787888
0.0791088
1.99652
2.03169
2.0662
2.09939
2.13064
2.15936
2.18502
2.20715
2.22534
2.23928
2.24871
2.25347
0.485452
0.220814
0.144863
0.113037
0.096988
0.0881464
0.0831413
0.0803786
0.0790196
0.0786279
0.0790353
0.27612
0.321027
0.352742
0.36868
0.376873
0.381261
0.383756
0.385363
0.386757
0.388643
0.3908
0.376237
0.220517
0.154342
0.121285
0.102862
0.0920537
0.0856052
0.0818058
0.0796811
0.0786639
0.0784535
0.0789561
0.207405
0.174187
0.18082
0.184966
0.186664
0.187196
0.187296
0.187283
0.187227
0.186889
0.184834
0.175095
0.14455
0.121174
0.105214
0.0945827
0.0876371
0.0832178
0.0805216
0.0790036
0.078317
0.0782833
0.0788788
0.227084
0.15321
0.143795
0.139746
0.136931
0.134884
0.133473
0.132517
0.131739
0.130676
0.128379
0.122992
0.112775
0.102719
0.0945263
0.0884046
0.0840922
0.0812143
0.0794153
0.0784108
0.0780108
0.0781321
0.0788099
0.241715
0.148827
0.130996
0.122113
0.116406
0.112607
0.110128
0.108516
0.107344
0.106152
0.104367
0.10133
0.0967797
0.0919081
0.0875505
0.0840525
0.08146
0.0796731
0.078544
0.0779366
0.0777632
0.078009
0.0787536
0.249966
0.147609
0.125385
0.113707
0.106183
0.101212
0.0979885
0.0959262
0.0945351
0.0933818
0.0920723
0.0902925
0.0879704
0.0854532
0.0831012
0.081133
0.0796272
0.0785707
0.0779087
0.0775859
0.077578
0.0779162
0.0787109
0.254323
0.147173
0.122656
0.109382
0.100736
0.0949975
0.0912685
0.0889009
0.0873792
0.0862887
0.0853066
0.084217
0.0829529
0.0816138
0.0803466
0.0792645
0.0784231
0.0778316
0.077476
0.0773442
0.0774491
0.077851
0.0786808
0.256518
0.14699
0.121294
0.107127
0.0978072
0.0915813
0.0875196
0.0849492
0.083345
0.0823014
0.0815217
0.0808153
0.0800977
0.0793766
0.078702
0.0781242
0.0776746
0.0773652
0.0771995
0.077188
0.0773651
0.0778082
0.078661
0.257582
0.146912
0.120627
0.105976
0.0962662
0.0897436
0.0854718
0.0827709
0.081113
0.0800967
0.0794336
0.0789372
0.0785084
0.0781145
0.0777599
0.0774614
0.0772337
0.0770872
0.077033
0.0770932
0.0773137
0.077782
0.0786488
0.258082
0.146881
0.120312
0.105411
0.0954865
0.0887921
0.0843942
0.0816129
0.0799205
0.0789172
0.078317
0.0779322
0.077654
0.0774305
0.0772444
0.077095
0.0769876
0.0769307
0.0769387
0.0770392
0.0772845
0.0777671
0.0786421
0.258313
0.146872
0.120172
0.105148
0.095111
0.0883227
0.0838535
0.0810252
0.0793114
0.0783132
0.0777448
0.0774167
0.0772144
0.0770769
0.0769764
0.0769034
0.0768584
0.0768484
0.0768892
0.0770113
0.0772699
0.0777602
0.0786395
0.258421
0.146871
0.120115
0.105033
0.0949411
0.0881048
0.0835979
0.080744
0.0790178
0.078021
0.0774676
0.0771669
0.0770014
0.0769056
0.0768466
0.0768111
0.0767969
0.0768103
0.0768676
0.0770005
0.0772656
0.0777595
0.0786405
0.25848
0.146876
0.120095
0.104989
0.0948723
0.0880139
0.0834891
0.0806226
0.0788901
0.0778935
0.077347
0.0770588
0.0769104
0.0768338
0.0767943
0.0767763
0.0767765
0.0768008
0.0768658
0.0770035
0.0772712
0.0777661
0.0786465
0.258534
0.146888
0.120095
0.10498
0.0948553
0.0879893
0.0834582
0.0805875
0.078853
0.0778571
0.0773139
0.0770315
0.0768906
0.0768226
0.0767915
0.0767812
0.0767877
0.0768167
0.0768846
0.0770236
0.0772913
0.0777847
0.078662
0.258627
0.146915
0.120113
0.104997
0.0948724
0.0880082
0.0834795
0.0806112
0.078879
0.0778854
0.0773448
0.0770655
0.076928
0.0768637
0.0768361
0.0768287
0.0768374
0.0768677
0.0769358
0.0770738
0.077339
0.0778278
0.0786977
0.25884
0.146983
0.120161
0.105044
0.0949267
0.0880737
0.0835571
0.0806995
0.0789757
0.0779881
0.0774516
0.0771751
0.0770397
0.0769769
0.0769505
0.0769438
0.0769526
0.0769822
0.0770486
0.0771832
0.0774426
0.0779219
0.0787769
0.259373
0.147157
0.120275
0.105145
0.095039
0.088211
0.083723
0.080891
0.0791866
0.0782121
0.0776836
0.0774116
0.0772786
0.0772168
0.0771907
0.0771836
0.0771913
0.0772188
0.0772813
0.0774097
0.0776585
0.0781205
0.0789476
0.260753
0.147629
0.120548
0.105347
0.0952502
0.0884722
0.084045
0.0812667
0.0796026
0.0786546
0.0781419
0.0778784
0.0777495
0.0776893
0.0776633
0.0776553
0.077661
0.0776849
0.0777415
0.0778598
0.0780914
0.0785245
0.0793033
0.264463
0.148957
0.121202
0.105736
0.0956231
0.0889448
0.0846425
0.0819718
0.0803854
0.0794874
0.0790038
0.0787558
0.0786343
0.0785772
0.0785516
0.0785426
0.0785458
0.0785652
0.0786137
0.0787174
0.0789235
0.0793121
0.0800147
0.274885
0.152792
0.122708
0.106405
0.0962275
0.0897626
0.0857122
0.083246
0.0818007
0.08099
0.0805561
0.0803342
0.0802254
0.0801737
0.0801498
0.0801403
0.0801411
0.0801552
0.0801937
0.0802787
0.0804503
0.0807768
0.08137
0.306962
0.163567
0.125626
0.107256
0.0970763
0.0911155
0.0875632
0.0854649
0.0842579
0.0835887
0.083233
0.0830516
0.0829624
0.0829196
0.0828993
0.0828904
0.0828894
0.0828984
0.0829259
0.0829888
0.083118
0.0833659
0.0838175
0.441563
0.189631
0.128549
0.107302
0.0980148
0.0932877
0.090675
0.0891911
0.0883551
0.0878967
0.0876543
0.0875307
0.0874698
0.0874403
0.0874259
0.0874192
0.0874175
0.0874223
0.0874387
0.0874775
0.0875585
0.087715
0.0880001
1.5838
0.215512
0.120563
0.103855
0.098901
0.0968503
0.0958142
0.0952452
0.0949282
0.0947549
0.0946632
0.0946163
0.094593
0.0945816
0.0945759
0.0945732
0.0945723
0.0945738
0.0945793
0.0945928
0.0946212
0.0946767
0.0947792
0.446518
0.3416
0.341099
0.443453
0.1628
0.165215
0.16526
0.163538
0.119998
0.122521
0.122466
0.120124
0.10203
0.103289
0.1032
0.101922
0.0921671
0.0928546
0.0927656
0.0920001
0.0865189
0.0869755
0.0868921
0.086348
0.0833499
0.083725
0.0836451
0.0831867
0.0816485
0.0820038
0.0819248
0.0814915
0.0807834
0.0811406
0.0810611
0.0806291
0.0803682
0.0807322
0.0806519
0.0802145
0.0801799
0.0805499
0.080469
0.0800263
0.0800986
0.0804726
0.0803915
0.0799455
0.0800641
0.0804409
0.08036
0.0799123
0.0800479
0.0804271
0.0803471
0.0798989
0.0800368
0.0804191
0.0803406
0.0798928
0.0800242
0.080411
0.0803351
0.0798888
0.0800066
0.0804002
0.0803284
0.0798843
0.0799817
0.080385
0.0803191
0.0798785
0.0799492
0.0803652
0.080307
0.079871
0.0799104
0.0803416
0.0802926
0.079862
0.0798687
0.0803163
0.0802772
0.0798525
0.0798281
0.0802916
0.0802621
0.0798431
0.0797919
0.0802696
0.0802488
0.0798348
0.0797623
0.0802518
0.0802379
0.0798281
0.0797399
0.0802383
0.0802298
0.0798231
0.0797242
0.0802289
0.0802241
0.0798196
0.0797139
0.0802227
0.0802205
0.0798174
0.0797077
0.0802191
0.0802183
0.0798161
0.0797044
0.0802173
0.0802174
0.0798158
0.0797033
0.0802169
0.0802176
0.0798163
0.0797045
0.0802183
0.0802191
0.0798182
0.0797092
0.0802224
0.0802234
0.079823
0.079721
0.0802327
0.0802336
0.0798343
0.0797484
0.0802565
0.0802573
0.0798602
0.0798107
0.0803115
0.0803117
0.0799192
0.0799492
0.0804355
0.0804346
0.0800511
0.080248
0.080708
0.080705
0.0803381
0.0808671
0.0812831
0.081277
0.0809388
0.082087
0.0824372
0.0824278
0.0821347
0.0843568
0.0846201
0.0846088
0.0843799
0.0883314
0.0884931
0.0884836
0.0883366
0.0948933
0.0949464
0.094942
0.0948883
0.191187
0.134995
0.114163
0.104326
0.0991782
0.0964732
0.0951164
0.0944931
0.0942692
0.0943019
0.0945963
0.0952977
0.096713
0.0993481
0.103944
0.11152
0.123647
0.145243
0.23639
0.136956
0.115235
0.10282
0.09558
0.0913769
0.0890186
0.0877719
0.0871766
0.0869699
0.0870458
0.0874368
0.0883167
0.0900227
0.0930878
0.0982786
0.106677
0.12009
0.144291
0.243455
0.111905
0.101644
0.0942432
0.0892675
0.0861179
0.0842454
0.0832132
0.0827106
0.0825533
0.0826794
0.0831515
0.0841699
0.0860978
0.0894924
0.0951459
0.104182
0.118505
0.14415
0.246918
0.0979593
0.0924581
0.0880064
0.0847293
0.0825166
0.0811387
0.0803551
0.0799736
0.0798809
0.0800578
0.0805953
0.0817158
0.0838017
0.0874268
0.0933975
0.102854
0.117729
0.144133
0.248603
0.0896434
0.0864027
0.0836811
0.0815783
0.0800978
0.0791455
0.0785938
0.0783333
0.0783059
0.0785285
0.0791158
0.0803077
0.0824997
0.0862756
0.0924482
0.102161
0.117347
0.144134
0.24941
0.0846649
0.0825468
0.0808244
0.0794856
0.0785275
0.0779016
0.0775388
0.0773815
0.0774108
0.0776706
0.0782937
0.0795325
0.0817915
0.08566
0.0919528
0.101811
0.117163
0.144137
0.24979
0.0817658
0.0801955
0.0790316
0.0781626
0.0775499
0.0771524
0.076928
0.0768493
0.0769225
0.0772099
0.077857
0.079125
0.0814238
0.0853457
0.0917056
0.101642
0.117078
0.144139
0.249966
0.0801497
0.078831
0.0779648
0.0773684
0.0769686
0.0767187
0.0765873
0.076563
0.076667
0.0769733
0.0776358
0.0789208
0.0812419
0.0851927
0.0915879
0.101564
0.117041
0.144142
0.250046
0.0792944
0.0780804
0.0773638
0.0769162
0.0766393
0.0764781
0.0764044
0.0764147
0.0765387
0.0768571
0.0775287
0.0788232
0.081156
0.0851216
0.0915344
0.10153
0.117025
0.144143
0.250083
0.0788661
0.0776896
0.0770432
0.0766721
0.0764615
0.0763501
0.0763099
0.0763407
0.0764767
0.0768023
0.0774791
0.0787786
0.0811174
0.0850901
0.0915112
0.101515
0.117018
0.144144
0.250099
0.0786633
0.077497
0.0768811
0.0765469
0.0763701
0.076285
0.0762629
0.0763052
0.0764479
0.0767776
0.0774572
0.0787592
0.0811007
0.0850768
0.0915016
0.101509
0.117016
0.144145
0.250106
0.0785723
0.077407
0.0768034
0.0764859
0.0763253
0.0762533
0.0762404
0.0762886
0.076435
0.0767668
0.0774478
0.0787511
0.0810939
0.0850714
0.0914978
0.101507
0.117015
0.144145
0.250109
0.0785335
0.077367
0.0767679
0.0764575
0.0763043
0.0762384
0.07623
0.0762812
0.0764294
0.0767623
0.077444
0.0787478
0.0810912
0.0850693
0.0914964
0.101506
0.117015
0.144145
0.25011
0.0785177
0.0773501
0.0767525
0.076445
0.0762949
0.0762318
0.0762255
0.0762781
0.0764271
0.0767605
0.0774426
0.0787466
0.0810902
0.0850686
0.0914959
0.101506
0.117015
0.144146
0.250111
0.0785111
0.0773432
0.0767461
0.0764397
0.0762909
0.0762289
0.0762235
0.0762767
0.0764262
0.0767598
0.077442
0.0787462
0.0810899
0.0850683
0.0914957
0.101506
0.117015
0.144146
0.250111
0.0785079
0.0773403
0.0767435
0.0764376
0.0762893
0.0762278
0.0762228
0.0762762
0.0764258
0.0767596
0.0774418
0.078746
0.0810898
0.0850682
0.0914956
0.101506
0.117015
0.144146
0.250111
0.0785054
0.0773388
0.0767424
0.0764367
0.0762887
0.0762273
0.0762225
0.076276
0.0764257
0.0767595
0.0774418
0.078746
0.0810897
0.0850682
0.0914956
0.101506
0.117015
0.144146
0.250111
0.0785026
0.0773376
0.0767418
0.0764364
0.0762884
0.0762272
0.0762223
0.076276
0.0764256
0.0767595
0.0774418
0.078746
0.0810897
0.0850682
0.0914956
0.101506
0.117015
0.144146
0.250112
0.0784992
0.0773363
0.0767413
0.0764361
0.0762883
0.0762271
0.0762223
0.0762759
0.0764256
0.0767595
0.0774418
0.078746
0.0810897
0.0850682
0.0914956
0.101506
0.117015
0.144146
0.250112
0.0784953
0.0773349
0.0767409
0.076436
0.0762883
0.0762271
0.0762223
0.0762759
0.0764256
0.0767595
0.0774418
0.078746
0.0810897
0.0850682
0.0914956
0.101506
0.117015
0.144146
0.250112
0.078491
0.0773334
0.0767404
0.0764358
0.0762882
0.0762271
0.0762223
0.0762759
0.0764256
0.0767595
0.0774418
0.078746
0.0810897
0.0850682
0.0914956
0.101506
0.117015
0.144146
0.250112
0.0784869
0.077332
0.0767399
0.0764357
0.0762882
0.0762271
0.0762223
0.0762759
0.0764256
0.0767595
0.0774418
0.078746
0.0810897
0.0850682
0.0914956
0.101506
0.117015
0.144146
0.250112
0.0784832
0.0773307
0.0767394
0.0764355
0.0762881
0.0762271
0.0762223
0.0762759
0.0764256
0.0767595
0.0774418
0.078746
0.0810897
0.0850682
0.0914956
0.101506
0.117015
0.144146
0.250112
0.0784802
0.0773296
0.0767391
0.0764354
0.0762881
0.0762271
0.0762223
0.076276
0.0764256
0.0767595
0.0774418
0.078746
0.0810897
0.0850682
0.0914956
0.101506
0.117015
0.144146
0.250112
0.0784779
0.0773288
0.0767388
0.0764354
0.0762881
0.0762271
0.0762223
0.076276
0.0764257
0.0767595
0.0774418
0.078746
0.0810897
0.0850682
0.0914956
0.101506
0.117015
0.144146
0.250112
0.0784764
0.0773283
0.0767387
0.0764353
0.0762881
0.0762271
0.0762224
0.076276
0.0764257
0.0767595
0.0774418
0.078746
0.0810897
0.0850682
0.0914956
0.101506
0.117015
0.144146
0.250112
0.0784755
0.0773281
0.0767387
0.0764354
0.0762882
0.0762272
0.0762224
0.0762761
0.0764257
0.0767596
0.0774418
0.078746
0.0810898
0.0850683
0.0914957
0.101506
0.117015
0.144146
0.250112
0.0784751
0.0773281
0.0767389
0.0764357
0.0762885
0.0762274
0.0762226
0.0762762
0.0764259
0.0767597
0.0774419
0.0787461
0.0810898
0.0850683
0.0914957
0.101506
0.117015
0.144146
0.250112
0.0784753
0.0773287
0.0767395
0.0764363
0.076289
0.0762279
0.0762231
0.0762766
0.0764262
0.07676
0.0774422
0.0787463
0.08109
0.0850684
0.0914957
0.101506
0.117015
0.144146
0.250112
0.0784764
0.0773301
0.076741
0.0764377
0.0762903
0.0762291
0.0762241
0.0762776
0.076427
0.0767606
0.0774427
0.0787467
0.0810903
0.0850686
0.0914959
0.101506
0.117015
0.144146
0.250112
0.0784793
0.0773335
0.0767445
0.0764411
0.0762935
0.076232
0.0762267
0.0762798
0.0764289
0.0767623
0.077444
0.0787477
0.081091
0.0850691
0.0914962
0.101506
0.117015
0.144146
0.250112
0.078486
0.0773414
0.0767525
0.0764489
0.0763009
0.0762388
0.0762329
0.0762853
0.0764337
0.0767663
0.0774473
0.0787503
0.081093
0.0850704
0.091497
0.101507
0.117015
0.144146
0.250113
0.0785011
0.0773593
0.0767711
0.0764671
0.0763182
0.0762549
0.0762476
0.0762984
0.0764452
0.0767762
0.0774555
0.0787568
0.0810978
0.0850737
0.091499
0.101508
0.117015
0.144146
0.250115
0.0785354
0.0773996
0.0768131
0.0765087
0.0763581
0.0762925
0.0762823
0.0763299
0.0764733
0.0768005
0.077476
0.0787733
0.0811101
0.0850822
0.091504
0.10151
0.117017
0.144148
0.25012
0.0786115
0.0774886
0.0769063
0.0766017
0.0764483
0.0763782
0.0763625
0.0764039
0.0765401
0.0768595
0.0775264
0.0788145
0.0811416
0.0851039
0.091517
0.101517
0.11702
0.144151
0.250132
0.078777
0.0776799
0.0771069
0.076803
0.0766453
0.0765678
0.0765425
0.0765722
0.076695
0.0769989
0.077648
0.0789158
0.0812204
0.0851591
0.09155
0.101533
0.117028
0.144159
0.250163
0.0791256
0.0780766
0.0775224
0.0772222
0.0770593
0.0769708
0.0769301
0.0769407
0.0770403
0.0773161
0.0779312
0.0791577
0.0814132
0.0852965
0.0916316
0.101569
0.117042
0.144178
0.250244
0.0798306
0.078864
0.0783447
0.0780549
0.0778878
0.077786
0.077725
0.0777085
0.0777731
0.0780037
0.0785598
0.079709
0.0818649
0.0856259
0.0918254
0.101642
0.117054
0.144218
0.250465
0.0811866
0.0803489
0.0798884
0.0796216
0.0794569
0.0793445
0.0792629
0.0792158
0.0792369
0.0794057
0.0798721
0.0808914
0.0828622
0.0863714
0.0922566
0.101748
0.116968
0.144255
0.251095
0.0836527
0.0829969
0.0826262
0.0824025
0.082255
0.0821441
0.0820527
0.0819837
0.0819653
0.0820657
0.0824156
0.0832408
0.0848994
0.0879311
0.0931337
0.101773
0.116289
0.143904
0.253002
0.0878809
0.0874575
0.087211
0.0870569
0.0869497
0.0868636
0.0867867
0.086721
0.0866862
0.086731
0.0869506
0.0875132
0.0886879
0.0908885
0.0947394
0.101326
0.113233
0.140247
0.259195
0.0947307
0.0945804
0.0944904
0.094433
0.0943918
0.0943575
0.0943257
0.0942971
0.0942794
0.0942923
0.0943744
0.0945953
0.0950657
0.0959527
0.0974929
0.100102
0.104962
0.119829
0.279613
)
;

boundaryField
{
    leftWall
    {
        type            epsilonWallFunction;
        blending        stepwise;
        value           nonuniform List<scalar> 
50
(
3.11056
1.99652
1.99652
1.99652
1.99652
1.99652
1.99652
1.99652
1.99652
1.99652
1.99652
1.99652
1.99652
1.99652
1.99652
1.99652
1.99652
1.99652
1.99652
1.99652
1.99652
1.99652
1.99652
1.99652
1.99652
1.99652
1.99652
1.99652
0.27612
0.207405
0.227084
0.241715
0.249966
0.254323
0.256518
0.257582
0.258082
0.258313
0.258421
0.25848
0.258534
0.258627
0.25884
0.259373
0.260753
0.264463
0.274885
0.306962
0.441563
1.5838
)
;
    }
    rightWall
    {
        type            epsilonWallFunction;
        blending        stepwise;
        value           nonuniform List<scalar> 
50
(
0.097614
0.118179
0.151884
0.175931
0.193934
0.207662
0.218177
0.226302
0.23639
0.243455
0.246918
0.248603
0.24941
0.24979
0.249966
0.250046
0.250083
0.250099
0.250106
0.250109
0.25011
0.250111
0.250111
0.250111
0.250111
0.250112
0.250112
0.250112
0.250112
0.250112
0.250112
0.250112
0.250112
0.250112
0.250112
0.250112
0.250112
0.250112
0.250112
0.250113
0.250115
0.25012
0.250132
0.250163
0.250244
0.250465
0.251095
0.253002
0.259195
0.279613
)
;
    }
    lowerWall
    {
        type            epsilonWallFunction;
        blending        stepwise;
        value           nonuniform List<scalar> 
62
(
3.11056
4.22461
4.22461
4.22461
4.22461
4.22461
4.22461
4.22461
4.22461
4.22461
4.22461
4.22461
4.22461
0.207807
0.234177
0.289427
0.319337
0.331046
0.327568
0.307265
0.264008
0.187987
0.0769714
0.0769714
0.112592
0.152625
0.182089
0.207293
0.234407
0.279906
0.412418
0.446518
0.3416
0.341099
0.443453
0.0831689
0.113267
0.152372
0.180422
0.204251
0.230403
0.275167
0.399514
0.0831689
0.200624
0.277723
0.32033
0.341746
0.351616
0.35583
0.357505
0.358087
0.358139
0.357754
0.356667
0.354113
0.348471
0.336667
0.313477
0.270825
0.197669
0.097614
)
;
    }
    atmosphere
    {
        type            inletOutlet;
        inletValue      uniform 0.1;
        value           uniform 0.1;
    }
    defaultFaces
    {
        type            empty;
    }
}


// ************************************************************************* //
