/*--------------------------------*- C++ -*----------------------------------*\
| =========                 |                                                 |
| \\      /  F ield         | OpenFOAM: The Open Source CFD Toolbox           |
|  \\    /   O peration     | Version:  2406                                  |
|   \\  /    A nd           | Website:  www.openfoam.com                      |
|    \\/     M anipulation  |                                                 |
\*---------------------------------------------------------------------------*/
FoamFile
{
    version     2.0;
    format      ascii;
    arch        "LSB;label=32;scalar=64";
    class       volScalarField;
    location    "0.2";
    object      epsilon;
}
// * * * * * * * * * * * * * * * * * * * * * * * * * * * * * * * * * * * * * //

dimensions      [0 2 -3 0 0 0 0];

internalField   nonuniform List<scalar> 
2268
(
0.0901128
0.186784
0.260298
0.305143
0.33131
0.346043
0.354018
0.358169
0.360253
0.361263
0.361728
0.361908
0.361903
0.361693
0.361118
0.359775
0.356799
0.350467
0.337588
0.312677
0.267108
0.18923
0.0769983
0.116737
0.129748
0.151793
0.16519
0.17263
0.176595
0.17863
0.179639
0.180123
0.180347
0.180447
0.180484
0.180481
0.180432
0.180298
0.179973
0.179229
0.177583
0.174103
0.167096
0.153774
0.130825
0.112808
0.152203
0.129499
0.1356
0.139879
0.142051
0.143018
0.143397
0.143518
0.143541
0.143534
0.143524
0.143517
0.143513
0.143512
0.143505
0.143473
0.143359
0.143031
0.142196
0.140305
0.136507
0.130903
0.153354
0.178286
0.133281
0.13013
0.129293
0.12854
0.127835
0.127268
0.126865
0.126604
0.126448
0.126363
0.126324
0.126319
0.126347
0.12642
0.126562
0.126814
0.127226
0.127862
0.128833
0.130536
0.13552
0.183431
0.198049
0.136768
0.127301
0.122996
0.120242
0.118366
0.117114
0.116315
0.115829
0.11555
0.1154
0.115332
0.115324
0.115374
0.115507
0.11578
0.116292
0.117213
0.118841
0.121752
0.127341
0.140466
0.20924
0.213133
0.139414
0.125372
0.118549
0.114312
0.111544
0.109752
0.108627
0.107947
0.107556
0.107345
0.107249
0.107235
0.107303
0.107485
0.107858
0.108563
0.109848
0.112165
0.116436
0.124957
0.145464
0.236935
0.224617
0.141294
0.123841
0.115128
0.10975
0.106275
0.104039
0.102636
0.101785
0.101291
0.101022
0.100897
0.100876
0.100957
0.101177
0.101626
0.10247
0.104005
0.106775
0.11193
0.12255
0.15054
0.283052
0.233316
0.142582
0.122546
0.112385
0.106111
0.102062
0.0994539
0.0978093
0.0968043
0.0962149
0.0958902
0.0957363
0.0957066
0.0957959
0.0960438
0.0965465
0.0974833
0.0991705
0.102189
0.10777
0.119365
0.153523
0.416858
0.0831845
0.201586
0.2798
0.322621
0.344214
0.354397
0.358918
0.360801
0.361481
0.361541
0.361077
0.359802
0.356931
0.350859
0.338638
0.315229
0.272459
0.198571
0.0976201
0.113397
0.134879
0.157685
0.169971
0.175922
0.178614
0.179763
0.180224
0.180388
0.180406
0.180307
0.180021
0.179345
0.177841
0.174645
0.168158
0.155645
0.133717
0.118284
0.152849
0.132417
0.137847
0.141172
0.142669
0.143252
0.143448
0.143504
0.143519
0.143528
0.143538
0.143541
0.143494
0.143276
0.142598
0.14086
0.137067
0.131107
0.152275
0.181288
0.135452
0.130378
0.128576
0.127589
0.126994
0.126647
0.126465
0.126392
0.126397
0.126481
0.126668
0.127003
0.127533
0.128275
0.129179
0.130263
0.133498
0.176627
0.205422
0.139119
0.126096
0.120724
0.118064
0.11667
0.115945
0.115591
0.115452
0.11546
0.115609
0.115947
0.116578
0.117662
0.119413
0.12214
0.126535
0.136022
0.19486
0.231754
0.142852
0.12285
0.114858
0.111037
0.109084
0.108084
0.107601
0.107415
0.10743
0.107638
0.108111
0.108994
0.110525
0.113058
0.117148
0.123959
0.137966
0.208725
0.27655
0.146448
0.119772
0.109981
0.105413
0.103089
0.101898
0.101321
0.101101
0.101127
0.101395
0.10199
0.103093
0.105
0.108163
0.113313
0.121949
0.139327
0.219273
0.400908
0.147857
0.116216
0.10563
0.100696
0.0981628
0.0968515
0.0962124
0.0959717
0.096014
0.0963388
0.0970466
0.0983454
0.100574
0.104255
0.110248
0.120292
0.140227
0.227261
0.24362
0.143921
0.120799
0.108881
0.101491
0.0967066
0.0936071
0.091634
0.0904131
0.0896862
0.0892786
0.08908
0.0890332
0.0891283
0.0894042
0.0899595
0.0909771
0.0927726
0.0959051
0.101465
0.111955
0.134445
0.193908
0.251146
0.144652
0.119125
0.105766
0.0974074
0.0919479
0.0883714
0.0860625
0.0846094
0.0837272
0.0832204
0.0829631
0.0828856
0.0829684
0.0832409
0.0837879
0.0847645
0.0864245
0.0891743
0.093682
0.101098
0.113449
0.133959
0.255103
0.144909
0.118005
0.103759
0.0947653
0.088838
0.084915
0.0823514
0.0807152
0.0797055
0.0791133
0.0788008
0.0786874
0.0787424
0.0789812
0.0794662
0.0803128
0.0816986
0.0838751
0.0871796
0.0920193
0.0987357
0.107039
0.257123
0.14498
0.117297
0.102506
0.0930941
0.0868428
0.0826695
0.0799153
0.0781375
0.0770257
0.0763622
0.0759999
0.0758487
0.0758666
0.0760535
0.0764484
0.0771277
0.0782028
0.0798123
0.0820993
0.0851539
0.0888783
0.0927219
0.258125
0.144986
0.116872
0.101751
0.0920691
0.0855972
0.0812467
0.0783533
0.0764691
0.0752783
0.0745572
0.0741519
0.0739642
0.0739418
0.0740701
0.0743672
0.0748776
0.0756644
0.0767959
0.0783196
0.0802164
0.0823301
0.084284
0.25861
0.144976
0.11663
0.101314
0.0914619
0.0848442
0.0803721
0.0773804
0.0754189
0.0741693
0.0734036
0.072963
0.0727427
0.0726816
0.0727534
0.0729592
0.0733199
0.073867
0.0746296
0.0756142
0.0767778
0.0779963
0.0790487
0.25884
0.144966
0.116498
0.10107
0.0911148
0.0844043
0.079852
0.0767935
0.0747784
0.0734866
0.0726879
0.0722197
0.0719722
0.0718776
0.0719003
0.0720289
0.0722683
0.0726307
0.073125
0.0737435
0.0744471
0.0751532
0.0757374
0.258947
0.144959
0.116428
0.10094
0.0909233
0.084156
0.079553
0.0764511
0.0744002
0.0730796
0.0722575
0.0717688
0.0715
0.0713784
0.0713619
0.0714303
0.0715783
0.0718066
0.0721148
0.0724922
0.07291
0.0733172
0.073645
0.258996
0.144955
0.116393
0.100872
0.0908211
0.0840204
0.0793867
0.0762578
0.074184
0.0728445
0.0720066
0.0715033
0.0712189
0.0710771
0.0710313
0.0710558
0.0711388
0.0712749
0.0714595
0.0716827
0.0719254
0.0721573
0.0723407
0.259018
0.144953
0.116376
0.100837
0.0907682
0.0839487
0.0792971
0.076152
0.0740642
0.0727128
0.0718646
0.0713516
0.0710563
0.0709002
0.0708338
0.0708281
0.0708673
0.0709428
0.0710485
0.0711763
0.0713137
0.0714435
0.071545
0.259028
0.144952
0.116368
0.10082
0.0907415
0.0839118
0.0792501
0.0760958
0.0739998
0.0726412
0.0717865
0.0712671
0.0709646
0.0707989
0.0707189
0.0706934
0.0707045
0.0707421
0.0707993
0.0708697
0.0709455
0.0710167
0.0710721
0.259033
0.144951
0.116364
0.100812
0.0907285
0.0838933
0.0792262
0.0760667
0.073966
0.0726032
0.0717447
0.0712214
0.0709142
0.0707424
0.0706537
0.0706159
0.0706098
0.0706244
0.0706529
0.0706901
0.0707307
0.070769
0.0707989
0.259034
0.144951
0.116362
0.100808
0.0907222
0.0838843
0.0792143
0.076052
0.0739487
0.0725836
0.0717228
0.0711971
0.0708871
0.0707116
0.0706177
0.0705724
0.0705561
0.0705575
0.0705696
0.070588
0.0706091
0.0706293
0.0706455
0.259035
0.144951
0.116361
0.100807
0.0907193
0.08388
0.0792085
0.0760448
0.0739401
0.0725737
0.0717116
0.0711845
0.0708728
0.0706951
0.0705981
0.0705486
0.0705265
0.0705204
0.0705234
0.0705316
0.0705422
0.0705528
0.0705617
0.259036
0.144951
0.116361
0.100806
0.0907179
0.0838779
0.0792058
0.0760413
0.0739359
0.0725687
0.0717059
0.0711781
0.0708655
0.0706865
0.0705878
0.0705359
0.0705106
0.0705004
0.0704986
0.0705014
0.0705064
0.070512
0.0705171
0.259036
0.144951
0.116361
0.100806
0.0907173
0.083877
0.0792045
0.0760396
0.0739339
0.0725663
0.0717032
0.0711749
0.0708618
0.0706821
0.0705824
0.0705292
0.0705023
0.0704899
0.0704855
0.0704855
0.0704877
0.0704908
0.0704939
0.259036
0.144951
0.116361
0.100805
0.090717
0.0838766
0.0792039
0.0760388
0.0739329
0.0725652
0.0717018
0.0711733
0.0708599
0.0706799
0.0705797
0.0705258
0.0704979
0.0704845
0.0704788
0.0704774
0.0704782
0.07048
0.0704822
0.259036
0.144951
0.116361
0.100805
0.0907169
0.0838764
0.0792036
0.0760385
0.0739324
0.0725646
0.0717012
0.0711726
0.070859
0.0706788
0.0705783
0.070524
0.0704958
0.0704818
0.0704755
0.0704733
0.0704734
0.0704747
0.0704764
0.259036
0.144951
0.116361
0.100805
0.0907169
0.0838763
0.0792035
0.0760383
0.0739322
0.0725644
0.0717009
0.0711722
0.0708586
0.0706782
0.0705776
0.0705232
0.0704947
0.0704804
0.0704738
0.0704713
0.0704711
0.070472
0.0704735
0.259036
0.144951
0.116361
0.100805
0.0907168
0.0838763
0.0792034
0.0760382
0.0739321
0.0725643
0.0717007
0.071172
0.0708583
0.0706779
0.0705773
0.0705228
0.0704942
0.0704798
0.070473
0.0704703
0.07047
0.0704708
0.0704722
0.259036
0.144951
0.116361
0.100805
0.0907168
0.0838763
0.0792034
0.0760382
0.0739321
0.0725642
0.0717007
0.0711719
0.0708582
0.0706778
0.0705771
0.0705226
0.0704939
0.0704794
0.0704726
0.0704699
0.0704694
0.0704702
0.0704715
0.259036
0.144951
0.116361
0.100805
0.0907168
0.0838762
0.0792034
0.0760382
0.0739321
0.0725642
0.0717006
0.0711719
0.0708582
0.0706778
0.0705771
0.0705225
0.0704938
0.0704793
0.0704724
0.0704697
0.0704692
0.0704699
0.0704713
0.259036
0.144951
0.116361
0.100805
0.0907168
0.0838762
0.0792034
0.0760382
0.0739321
0.0725642
0.0717006
0.0711719
0.0708582
0.0706777
0.070577
0.0705224
0.0704937
0.0704792
0.0704723
0.0704696
0.0704691
0.0704698
0.0704711
0.259036
0.144951
0.116361
0.100805
0.0907168
0.0838762
0.0792034
0.0760382
0.0739321
0.0725642
0.0717006
0.0711719
0.0708582
0.0706777
0.070577
0.0705224
0.0704937
0.0704792
0.0704723
0.0704695
0.070469
0.0704697
0.0704711
0.259036
0.144951
0.116361
0.100805
0.0907168
0.0838762
0.0792034
0.0760382
0.0739321
0.0725642
0.0717006
0.0711719
0.0708582
0.0706777
0.070577
0.0705224
0.0704937
0.0704792
0.0704723
0.0704695
0.070469
0.0704697
0.070471
0.259036
0.144951
0.116361
0.100805
0.0907168
0.0838762
0.0792034
0.0760382
0.0739321
0.0725642
0.0717006
0.0711719
0.0708582
0.0706777
0.070577
0.0705224
0.0704937
0.0704792
0.0704723
0.0704695
0.070469
0.0704697
0.070471
0.259036
0.144951
0.116361
0.100805
0.0907168
0.0838762
0.0792034
0.0760382
0.0739321
0.0725642
0.0717006
0.0711719
0.0708582
0.0706777
0.070577
0.0705224
0.0704937
0.0704792
0.0704723
0.0704695
0.070469
0.0704697
0.070471
0.259036
0.144951
0.116361
0.100805
0.0907168
0.0838762
0.0792034
0.0760382
0.0739321
0.0725642
0.0717006
0.0711719
0.0708582
0.0706777
0.070577
0.0705224
0.0704937
0.0704792
0.0704723
0.0704695
0.070469
0.0704697
0.070471
0.259036
0.144951
0.116361
0.100805
0.0907168
0.0838762
0.0792034
0.0760382
0.0739321
0.0725642
0.0717006
0.0711719
0.0708582
0.0706777
0.070577
0.0705224
0.0704937
0.0704792
0.0704723
0.0704695
0.070469
0.0704697
0.070471
0.259036
0.144951
0.116361
0.100805
0.0907168
0.0838762
0.0792034
0.0760382
0.0739321
0.0725642
0.0717006
0.0711719
0.0708582
0.0706777
0.070577
0.0705224
0.0704937
0.0704792
0.0704723
0.0704695
0.070469
0.0704697
0.070471
0.259036
0.144951
0.116361
0.100805
0.0907168
0.0838762
0.0792034
0.0760382
0.0739321
0.0725642
0.0717006
0.0711719
0.0708582
0.0706777
0.070577
0.0705224
0.0704937
0.0704792
0.0704723
0.0704695
0.070469
0.0704697
0.070471
0.259036
0.144951
0.116361
0.100805
0.0907168
0.0838762
0.0792034
0.0760382
0.0739321
0.0725642
0.0717006
0.0711719
0.0708582
0.0706777
0.070577
0.0705224
0.0704937
0.0704792
0.0704723
0.0704695
0.070469
0.0704697
0.070471
0.259036
0.144951
0.116361
0.100805
0.0907168
0.0838762
0.0792034
0.0760382
0.0739321
0.0725642
0.0717006
0.0711719
0.0708582
0.0706777
0.070577
0.0705224
0.0704937
0.0704792
0.0704723
0.0704695
0.070469
0.0704697
0.070471
0.259036
0.144951
0.116361
0.100805
0.0907168
0.0838762
0.0792034
0.0760382
0.0739321
0.0725642
0.0717006
0.0711719
0.0708582
0.0706777
0.070577
0.0705224
0.0704937
0.0704792
0.0704723
0.0704695
0.0704689
0.0704697
0.070471
0.259036
0.144951
0.116361
0.100805
0.0907168
0.0838762
0.0792034
0.0760382
0.0739321
0.0725642
0.0717006
0.0711719
0.0708582
0.0706777
0.070577
0.0705224
0.0704937
0.0704792
0.0704723
0.0704695
0.0704689
0.0704696
0.0704709
0.259036
0.144951
0.116361
0.100805
0.0907168
0.0838762
0.0792034
0.0760382
0.0739321
0.0725642
0.0717006
0.0711719
0.0708581
0.0706777
0.070577
0.0705224
0.0704937
0.0704791
0.0704722
0.0704694
0.0704689
0.0704696
0.0704709
0.259036
0.144951
0.116361
0.100805
0.0907168
0.0838762
0.0792034
0.0760382
0.0739321
0.0725642
0.0717006
0.0711719
0.0708581
0.0706777
0.070577
0.0705224
0.0704937
0.0704791
0.0704722
0.0704694
0.0704689
0.0704695
0.0704708
0.259036
0.144951
0.116361
0.100805
0.0907168
0.0838762
0.0792034
0.0760382
0.0739321
0.0725642
0.0717006
0.0711719
0.0708581
0.0706777
0.070577
0.0705224
0.0704937
0.0704791
0.0704722
0.0704694
0.0704688
0.0704695
0.0704707
0.259036
0.144951
0.116361
0.100805
0.0907168
0.0838762
0.0792034
0.0760382
0.0739321
0.0725642
0.0717006
0.0711718
0.0708581
0.0706777
0.070577
0.0705224
0.0704936
0.0704791
0.0704722
0.0704693
0.0704688
0.0704694
0.0704706
0.259036
0.144951
0.116361
0.100805
0.0907168
0.0838762
0.0792034
0.0760382
0.0739321
0.0725642
0.0717006
0.0711718
0.0708581
0.0706777
0.070577
0.0705224
0.0704936
0.0704791
0.0704721
0.0704693
0.0704687
0.0704693
0.0704705
0.259036
0.144951
0.116361
0.100805
0.0907168
0.0838762
0.0792034
0.0760382
0.0739321
0.0725642
0.0717006
0.0711718
0.0708581
0.0706777
0.070577
0.0705223
0.0704936
0.0704791
0.0704721
0.0704693
0.0704686
0.0704692
0.0704703
0.259036
0.144951
0.116361
0.100805
0.0907168
0.0838762
0.0792034
0.0760382
0.0739321
0.0725642
0.0717006
0.0711718
0.0708581
0.0706777
0.070577
0.0705223
0.0704936
0.0704791
0.0704721
0.0704692
0.0704686
0.0704691
0.0704702
0.451049
0.345633
0.344891
0.446591
0.157337
0.158473
0.15842
0.157238
0.112353
0.113869
0.113871
0.112367
0.0946512
0.0953003
0.095305
0.0946661
0.0851594
0.0854569
0.0854605
0.0851705
0.0794932
0.0796432
0.0796457
0.0795007
0.0759764
0.0760565
0.0760581
0.0759812
0.0737766
0.0738207
0.0738217
0.0737798
0.0724136
0.0724381
0.0724387
0.0724157
0.0715853
0.0715988
0.0715993
0.0715868
0.0710942
0.0711017
0.0711021
0.0710953
0.070811
0.0708152
0.0708155
0.0708119
0.0706522
0.0706546
0.0706549
0.070653
0.0705656
0.070567
0.0705673
0.0705663
0.0705195
0.0705205
0.0705207
0.0705202
0.0704957
0.0704964
0.0704966
0.0704963
0.0704836
0.0704842
0.0704844
0.0704842
0.0704776
0.0704781
0.0704784
0.0704782
0.0704747
0.0704752
0.0704754
0.0704753
0.0704733
0.0704738
0.070474
0.0704739
0.0704726
0.0704731
0.0704733
0.0704733
0.0704723
0.0704728
0.070473
0.070473
0.0704722
0.0704727
0.0704729
0.0704728
0.0704721
0.0704726
0.0704728
0.0704728
0.0704721
0.0704726
0.0704728
0.0704727
0.0704721
0.0704726
0.0704728
0.0704727
0.0704721
0.0704726
0.0704728
0.0704727
0.0704721
0.0704726
0.0704728
0.0704727
0.070472
0.0704726
0.0704728
0.0704727
0.070472
0.0704726
0.0704728
0.0704727
0.070472
0.0704726
0.0704728
0.0704727
0.070472
0.0704726
0.0704728
0.0704727
0.070472
0.0704726
0.0704728
0.0704727
0.070472
0.0704725
0.0704727
0.0704727
0.070472
0.0704725
0.0704727
0.0704726
0.0704719
0.0704724
0.0704726
0.0704726
0.0704719
0.0704724
0.0704726
0.0704725
0.0704717
0.0704722
0.0704724
0.0704724
0.0704716
0.0704721
0.0704723
0.0704722
0.0704714
0.0704719
0.0704721
0.070472
0.0704712
0.0704717
0.0704719
0.0704718
0.0704711
0.0704715
0.0704717
0.0704717
0.18968
0.130696
0.109055
0.099308
0.0943477
0.0917008
0.0902977
0.0896055
0.0893521
0.0894262
0.089838
0.0907084
0.0922785
0.0949382
0.0992941
0.106348
0.118113
0.14111
0.236715
0.132778
0.111442
0.0990568
0.0919317
0.0878076
0.08544
0.0841283
0.0834706
0.08325
0.0833844
0.0839064
0.084961
0.086819
0.0899107
0.094903
0.102898
0.116097
0.141503
0.243619
0.106702
0.0977051
0.0907108
0.0859056
0.0827999
0.0808877
0.0797831
0.079227
0.0790731
0.0792785
0.0799019
0.0811096
0.0831932
0.0866071
0.0920509
0.100677
0.114776
0.141579
0.247249
0.0926115
0.0883397
0.0843465
0.0812281
0.0790266
0.0775883
0.0767303
0.076307
0.0762373
0.0765172
0.0772307
0.0785628
0.0808204
0.0844727
0.0902361
0.099286
0.113948
0.141553
0.249104
0.0842426
0.0820395
0.0797264
0.0777481
0.0762539
0.0752321
0.0746121
0.074326
0.0743436
0.0746945
0.0754849
0.0769153
0.079304
0.0831289
0.0891144
0.0984442
0.113454
0.141509
0.250027
0.0790313
0.0778356
0.0764842
0.0752525
0.0742752
0.0735862
0.0731706
0.0730088
0.0731069
0.0735203
0.0743732
0.0758784
0.0783625
0.0823085
0.0884439
0.0979534
0.113172
0.141474
0.250474
0.0757297
0.0750635
0.0742742
0.0735229
0.0729068
0.0724666
0.0722129
0.0721537
0.0723195
0.0727842
0.0736856
0.0752455
0.0777962
0.081824
0.0880567
0.0976777
0.113018
0.141451
0.250686
0.0736417
0.0732676
0.072811
0.072364
0.0719909
0.0717272
0.0715935
0.0716132
0.0718318
0.072336
0.073273
0.0748712
0.0774667
0.0815473
0.0878408
0.0975282
0.112937
0.141438
0.250786
0.0723396
0.0721307
0.0718711
0.0716133
0.071398
0.0712538
0.0712042
0.0712807
0.071538
0.0720709
0.0730329
0.0746567
0.0772809
0.0813944
0.0877243
0.0974498
0.112896
0.141431
0.250831
0.071545
0.0714301
0.0712862
0.0711431
0.0710269
0.07096
0.0709665
0.0710817
0.0713657
0.0719183
0.072897
0.0745373
0.0771794
0.0813125
0.0876634
0.0974099
0.112876
0.141427
0.250852
0.0710728
0.0710108
0.0709335
0.0708582
0.0708021
0.0707833
0.0708254
0.0709657
0.0712673
0.0718329
0.0728223
0.0744727
0.0771254
0.0812698
0.0876323
0.0973902
0.112866
0.141426
0.250861
0.0707999
0.0707673
0.0707275
0.0706912
0.0706703
0.0706802
0.0707439
0.0708999
0.0712125
0.0717861
0.0727821
0.0744387
0.0770975
0.0812481
0.0876169
0.0973806
0.112861
0.141425
0.250865
0.0706466
0.07063
0.0706108
0.0705961
0.0705952
0.0706216
0.0706981
0.0708634
0.0711826
0.0717611
0.0727611
0.0744211
0.0770833
0.0812374
0.0876094
0.0973761
0.112859
0.141425
0.250867
0.0705629
0.0705547
0.0705466
0.0705436
0.0705536
0.0705893
0.070673
0.0708436
0.0711667
0.0717481
0.0727502
0.0744122
0.0770763
0.0812321
0.0876058
0.097374
0.112858
0.141424
0.250868
0.0705183
0.0705145
0.0705122
0.0705154
0.0705312
0.0705719
0.0706596
0.0708331
0.0711583
0.0717413
0.0727448
0.0744078
0.0770729
0.0812296
0.0876042
0.097373
0.112858
0.141424
0.250868
0.0704952
0.0704936
0.0704942
0.0705006
0.0705195
0.0705628
0.0706525
0.0708276
0.0711541
0.0717379
0.0727421
0.0744057
0.0770712
0.0812285
0.0876034
0.0973726
0.112857
0.141424
0.250868
0.0704835
0.070483
0.070485
0.070493
0.0705134
0.0705581
0.0706489
0.0708249
0.0711519
0.0717363
0.0727407
0.0744047
0.0770705
0.0812279
0.0876031
0.0973724
0.112857
0.141424
0.250868
0.0704777
0.0704777
0.0704804
0.0704892
0.0705104
0.0705557
0.0706471
0.0708235
0.0711508
0.0717354
0.0727401
0.0744042
0.0770701
0.0812277
0.0876029
0.0973723
0.112857
0.141424
0.250868
0.0704749
0.0704751
0.0704781
0.0704873
0.0705089
0.0705545
0.0706462
0.0708228
0.0711503
0.071735
0.0727398
0.0744039
0.0770699
0.0812276
0.0876028
0.0973722
0.112857
0.141424
0.250868
0.0704735
0.0704738
0.0704771
0.0704864
0.0705081
0.0705539
0.0706457
0.0708225
0.0711501
0.0717348
0.0727396
0.0744038
0.0770699
0.0812275
0.0876028
0.0973722
0.112857
0.141424
0.250868
0.0704729
0.0704733
0.0704766
0.070486
0.0705078
0.0705537
0.0706455
0.0708223
0.0711499
0.0717347
0.0727396
0.0744038
0.0770698
0.0812275
0.0876028
0.0973722
0.112857
0.141424
0.250868
0.0704726
0.070473
0.0704763
0.0704858
0.0705076
0.0705535
0.0706454
0.0708222
0.0711499
0.0717347
0.0727395
0.0744038
0.0770698
0.0812275
0.0876028
0.0973722
0.112857
0.141424
0.250868
0.0704724
0.0704729
0.0704762
0.0704857
0.0705075
0.0705535
0.0706454
0.0708222
0.0711499
0.0717347
0.0727395
0.0744038
0.0770698
0.0812275
0.0876028
0.0973722
0.112857
0.141424
0.250868
0.0704724
0.0704728
0.0704762
0.0704857
0.0705075
0.0705534
0.0706454
0.0708222
0.0711499
0.0717347
0.0727395
0.0744038
0.0770698
0.0812275
0.0876028
0.0973722
0.112857
0.141424
0.250868
0.0704723
0.0704728
0.0704761
0.0704857
0.0705075
0.0705534
0.0706453
0.0708222
0.0711498
0.0717347
0.0727395
0.0744037
0.0770698
0.0812275
0.0876028
0.0973722
0.112857
0.141424
0.250868
0.0704723
0.0704728
0.0704761
0.0704856
0.0705075
0.0705534
0.0706453
0.0708222
0.0711498
0.0717347
0.0727395
0.0744037
0.0770698
0.0812275
0.0876028
0.0973722
0.112857
0.141424
0.250868
0.0704723
0.0704728
0.0704761
0.0704856
0.0705075
0.0705534
0.0706453
0.0708222
0.0711498
0.0717347
0.0727395
0.0744037
0.0770698
0.0812275
0.0876028
0.0973722
0.112857
0.141424
0.250868
0.0704723
0.0704728
0.0704761
0.0704856
0.0705075
0.0705534
0.0706453
0.0708222
0.0711498
0.0717347
0.0727395
0.0744037
0.0770698
0.0812275
0.0876028
0.0973722
0.112857
0.141424
0.250868
0.0704723
0.0704728
0.0704761
0.0704856
0.0705075
0.0705534
0.0706453
0.0708222
0.0711498
0.0717347
0.0727395
0.0744037
0.0770698
0.0812275
0.0876028
0.0973722
0.112857
0.141424
0.250868
0.0704723
0.0704728
0.0704761
0.0704856
0.0705075
0.0705534
0.0706453
0.0708222
0.0711498
0.0717347
0.0727395
0.0744037
0.0770698
0.0812275
0.0876028
0.0973722
0.112857
0.141424
0.250868
0.0704723
0.0704728
0.0704761
0.0704856
0.0705075
0.0705534
0.0706453
0.0708222
0.0711498
0.0717347
0.0727395
0.0744037
0.0770698
0.0812275
0.0876028
0.0973722
0.112857
0.141424
0.250868
0.0704723
0.0704728
0.0704761
0.0704856
0.0705075
0.0705534
0.0706453
0.0708222
0.0711498
0.0717347
0.0727395
0.0744037
0.0770698
0.0812275
0.0876028
0.0973722
0.112857
0.141424
0.250868
0.0704723
0.0704727
0.0704761
0.0704856
0.0705075
0.0705534
0.0706453
0.0708222
0.0711498
0.0717347
0.0727395
0.0744037
0.0770698
0.0812275
0.0876028
0.0973722
0.112857
0.141424
0.250868
0.0704723
0.0704727
0.0704761
0.0704856
0.0705075
0.0705534
0.0706453
0.0708222
0.0711498
0.0717347
0.0727395
0.0744037
0.0770698
0.0812275
0.0876028
0.0973722
0.112857
0.141424
0.250868
0.0704722
0.0704727
0.0704761
0.0704856
0.0705075
0.0705534
0.0706453
0.0708222
0.0711498
0.0717347
0.0727395
0.0744037
0.0770698
0.0812275
0.0876028
0.0973722
0.112857
0.141424
0.250868
0.0704722
0.0704727
0.070476
0.0704856
0.0705074
0.0705534
0.0706453
0.0708221
0.0711498
0.0717347
0.0727395
0.0744037
0.0770698
0.0812275
0.0876028
0.0973722
0.112857
0.141424
0.250868
0.0704721
0.0704726
0.070476
0.0704856
0.0705074
0.0705534
0.0706453
0.0708221
0.0711498
0.0717347
0.0727395
0.0744037
0.0770698
0.0812275
0.0876028
0.0973722
0.112857
0.141424
0.250868
0.070472
0.0704725
0.0704759
0.0704855
0.0705074
0.0705534
0.0706453
0.0708221
0.0711498
0.0717347
0.0727395
0.0744037
0.0770698
0.0812275
0.0876028
0.0973722
0.112857
0.141424
0.250868
0.0704719
0.0704724
0.0704759
0.0704855
0.0705074
0.0705534
0.0706453
0.0708221
0.0711498
0.0717347
0.0727395
0.0744037
0.0770698
0.0812275
0.0876028
0.0973722
0.112857
0.141424
0.250868
0.0704717
0.0704723
0.0704758
0.0704854
0.0705073
0.0705533
0.0706453
0.0708221
0.0711498
0.0717346
0.0727395
0.0744037
0.0770698
0.0812275
0.0876028
0.0973722
0.112857
0.141424
0.250868
0.0704716
0.0704722
0.0704757
0.0704854
0.0705073
0.0705533
0.0706453
0.0708221
0.0711498
0.0717346
0.0727395
0.0744037
0.0770698
0.0812275
0.0876028
0.0973722
0.112857
0.141424
0.250868
0.0704714
0.0704721
0.0704757
0.0704853
0.0705073
0.0705533
0.0706453
0.0708221
0.0711498
0.0717346
0.0727395
0.0744037
0.0770698
0.0812275
0.0876028
0.0973722
0.112857
0.141424
0.250868
)
;

boundaryField
{
    leftWall
    {
        type            epsilonWallFunction;
        blending        stepwise;
        value           nonuniform List<scalar> 
50
(
0.0901128
0.116737
0.152203
0.178286
0.198049
0.213133
0.224617
0.233316
0.24362
0.251146
0.255103
0.257123
0.258125
0.25861
0.25884
0.258947
0.258996
0.259018
0.259028
0.259033
0.259034
0.259035
0.259036
0.259036
0.259036
0.259036
0.259036
0.259036
0.259036
0.259036
0.259036
0.259036
0.259036
0.259036
0.259036
0.259036
0.259036
0.259036
0.259036
0.259036
0.259036
0.259036
0.259036
0.259036
0.259036
0.259036
0.259036
0.259036
0.259036
0.259036
)
;
    }
    rightWall
    {
        type            epsilonWallFunction;
        blending        stepwise;
        value           nonuniform List<scalar> 
50
(
0.0976201
0.118284
0.152275
0.176627
0.19486
0.208725
0.219273
0.227261
0.236715
0.243619
0.247249
0.249104
0.250027
0.250474
0.250686
0.250786
0.250831
0.250852
0.250861
0.250865
0.250867
0.250868
0.250868
0.250868
0.250868
0.250868
0.250868
0.250868
0.250868
0.250868
0.250868
0.250868
0.250868
0.250868
0.250868
0.250868
0.250868
0.250868
0.250868
0.250868
0.250868
0.250868
0.250868
0.250868
0.250868
0.250868
0.250868
0.250868
0.250868
0.250868
)
;
    }
    lowerWall
    {
        type            epsilonWallFunction;
        blending        stepwise;
        value           nonuniform List<scalar> 
62
(
0.0901128
0.186784
0.260298
0.305143
0.33131
0.346043
0.354018
0.358169
0.360253
0.361263
0.361728
0.361908
0.361903
0.361693
0.361118
0.359775
0.356799
0.350467
0.337588
0.312677
0.267108
0.18923
0.0769983
0.0769983
0.112808
0.153354
0.183431
0.20924
0.236935
0.283052
0.416858
0.451049
0.345633
0.344891
0.446591
0.0831845
0.113397
0.152849
0.181288
0.205422
0.231754
0.27655
0.400908
0.0831845
0.201586
0.2798
0.322621
0.344214
0.354397
0.358918
0.360801
0.361481
0.361541
0.361077
0.359802
0.356931
0.350859
0.338638
0.315229
0.272459
0.198571
0.0976201
)
;
    }
    atmosphere
    {
        type            inletOutlet;
        inletValue      uniform 0.1;
        value           nonuniform List<scalar> 
46
(
0.259036
0.144951
0.116361
0.100805
0.0907168
0.0838762
0.0792034
0.0760382
0.0739321
0.0725642
0.0717006
0.0711718
0.0708581
0.0706777
0.070577
0.0705223
0.0704936
0.0704791
0.0704721
0.0704692
0.0704686
0.0704691
0.0704702
0.0704711
0.0704715
0.0704717
0.0704717
0.0704714
0.0704721
0.0704757
0.0704853
0.0705073
0.0705533
0.0706453
0.0708221
0.0711498
0.0717346
0.0727395
0.0744037
0.0770698
0.0812275
0.0876028
0.0973722
0.112857
0.141424
0.250868
)
;
    }
    defaultFaces
    {
        type            empty;
    }
}


// ************************************************************************* //
