/*--------------------------------*- C++ -*----------------------------------*\
| =========                 |                                                 |
| \\      /  F ield         | OpenFOAM: The Open Source CFD Toolbox           |
|  \\    /   O peration     | Version:  2406                                  |
|   \\  /    A nd           | Website:  www.openfoam.com                      |
|    \\/     M anipulation  |                                                 |
\*---------------------------------------------------------------------------*/
FoamFile
{
    version     2.0;
    format      ascii;
    arch        "LSB;label=32;scalar=64";
    class       volScalarField;
    location    "0.2";
    object      k;
}
// * * * * * * * * * * * * * * * * * * * * * * * * * * * * * * * * * * * * * //

dimensions      [0 2 -2 0 0 0 0];

internalField   nonuniform List<scalar> 
2268
(
0.1
0.1
0.1
0.1
0.1
0.1
0.1
0.1
0.1
0.1
0.1
0.1
0.1
0.012261
0.013038
0.0152221
0.0163823
0.0168462
0.0167317
0.0159799
0.014342
0.0112784
0.00585468
0.1
0.1
0.1
0.1
0.1
0.1
0.1
0.1
0.1
0.1
0.1
0.1
0.1
0.0249857
0.0300724
0.0342394
0.0365328
0.0374694
0.0372516
0.0357495
0.0324364
0.0261072
0.0127761
0.1
0.1
0.1
0.1
0.1
0.1
0.1
0.1
0.1
0.1
0.1
0.1
0.1
0.0318922
0.0383953
0.0432187
0.0459136
0.0470421
0.0468114
0.0450594
0.041145
0.0334907
0.0158834
0.1
0.1
0.1
0.1
0.1
0.1
0.1
0.1
0.1
0.1
0.1
0.1
0.1
0.0365924
0.0439856
0.0491196
0.0519954
0.0532283
0.053025
0.0512067
0.0470586
0.038676
0.018072
0.1
0.1
0.1
0.1
0.1
0.1
0.1
0.1
0.1
0.1
0.1
0.1
0.1
0.0400068
0.0480848
0.0534332
0.0564153
0.0577232
0.057577
0.0557971
0.0516242
0.0428611
0.0199003
0.1
0.1
0.1
0.1
0.1
0.1
0.1
0.1
0.1
0.1
0.1
0.1
0.1
0.0425832
0.0511986
0.0567254
0.0597882
0.0611645
0.0611017
0.0594395
0.05542
0.0466477
0.0218198
0.1
0.1
0.1
0.1
0.1
0.1
0.1
0.1
0.1
0.1
0.1
0.1
0.1
0.0445834
0.0536151
0.0592987
0.0624352
0.0638829
0.0639269
0.0624476
0.0587569
0.0504934
0.0248622
0.1
0.1
0.1
0.1
0.1
0.1
0.1
0.1
0.1
0.1
0.1
0.1
0.1
0.0461787
0.055522
0.0613424
0.0645521
0.066078
0.0662474
0.0649996
0.0617904
0.0547311
0.0327096
0.00618476
0.0118235
0.0149041
0.016536
0.0173703
0.0177736
0.0179569
0.0180346
0.0180629
0.0180647
0.0180439
0.0179888
0.0178677
0.0176181
0.0171285
0.0162136
0.0145666
0.0116365
0.00862796
0.0137719
0.0272822
0.0336492
0.0369775
0.0386912
0.0395396
0.039939
0.0401149
0.0401805
0.0401837
0.040132
0.0399998
0.0397213
0.0391697
0.0381244
0.036217
0.0328171
0.0266938
0.0141263
0.0170192
0.0349597
0.0426818
0.0466618
0.0487329
0.0497844
0.0502963
0.0505295
0.0506182
0.0506203
0.0505442
0.0503569
0.049976
0.0492491
0.0479172
0.045551
0.0414022
0.03391
0.0169108
0.0192653
0.0403526
0.0488175
0.0530816
0.0553122
0.0564688
0.0570484
0.0573203
0.0574249
0.0574238
0.0573249
0.0570897
0.0566264
0.0557699
0.0542452
0.051596
0.0470053
0.0386654
0.0188208
0.0211405
0.0447053
0.0535505
0.0578881
0.0601648
0.0613675
0.061986
0.0622833
0.0623983
0.062392
0.0622706
0.0619914
0.0614568
0.0604952
0.0588245
0.0559727
0.0510693
0.0420996
0.0202223
0.0231545
0.0486152
0.0574616
0.0617
0.0639389
0.0651444
0.0657792
0.0660908
0.0662109
0.0661975
0.0660539
0.0657341
0.0651366
0.064087
0.0623
0.0592922
0.0541473
0.0446774
0.0212851
0.0264084
0.0525045
0.0608533
0.0648326
0.0669682
0.0681429
0.0687756
0.0690917
0.0692123
0.0691899
0.0690246
0.0686674
0.0680144
0.06689
0.0650073
0.0618739
0.0565344
0.0466579
0.0221057
0.0344274
0.0566433
0.0638773
0.0674668
0.0694512
0.0705704
0.0711865
0.0714989
0.0716156
0.0715827
0.0713963
0.0710048
0.0703027
0.0691138
0.0671504
0.063912
0.0584117
0.0482052
0.0227527
0.1
0.1
0.1
0.1
0.1
0.1
0.1
0.1
0.1
0.1
0.1
0.1
0.1
0.048224
0.0579024
0.0639048
0.0672315
0.0688896
0.0692726
0.0684241
0.066071
0.0614395
0.0525736
0.1
0.1
0.1
0.1
0.1
0.1
0.1
0.1
0.1
0.1
0.1
0.1
0.1
0.050072
0.0599192
0.0661222
0.069623
0.0714839
0.072173
0.0718552
0.0705146
0.0680234
0.0642971
0.1
0.1
0.1
0.1
0.1
0.1
0.1
0.1
0.1
0.1
0.1
0.1
0.1
0.0514212
0.0612385
0.0675863
0.0712529
0.073314
0.0742869
0.0744163
0.0738238
0.0726166
0.0710416
0.1
0.1
0.1
0.1
0.1
0.1
0.1
0.1
0.1
0.1
0.1
0.1
0.1
0.0524899
0.0621504
0.0685832
0.072388
0.0746253
0.0758368
0.0763098
0.0762242
0.0757461
0.0751102
0.1
0.1
0.1
0.1
0.1
0.1
0.1
0.1
0.1
0.1
0.1
0.1
0.1
0.0533822
0.0628132
0.0692791
0.0731869
0.0755661
0.0769644
0.077687
0.0779323
0.0778682
0.0776777
0.1
0.1
0.1
0.1
0.1
0.1
0.1
0.1
0.1
0.1
0.1
0.1
0.1
0.0541505
0.0633165
0.0697751
0.0737512
0.0762358
0.0777722
0.0786696
0.0791282
0.0793045
0.079343
0.1
0.1
0.1
0.1
0.1
0.1
0.1
0.1
0.1
0.1
0.1
0.1
0.1
0.0548227
0.0637128
0.0701355
0.0741497
0.0767066
0.0783399
0.079356
0.0799511
0.0802702
0.0804344
0.1
0.1
0.1
0.1
0.1
0.1
0.1
0.1
0.1
0.1
0.1
0.1
0.1
0.0554149
0.0640341
0.0704026
0.0744314
0.0770335
0.0787308
0.0798247
0.0805062
0.0809112
0.081147
0.1
0.1
0.1
0.1
0.1
0.1
0.1
0.1
0.1
0.1
0.1
0.1
0.1
0.055937
0.0643005
0.0706053
0.0746319
0.0772584
0.0789953
0.080138
0.0808727
0.081329
0.0816063
0.1
0.1
0.1
0.1
0.1
0.1
0.1
0.1
0.1
0.1
0.1
0.1
0.1
0.0563963
0.0645255
0.0707635
0.0747775
0.077414
0.0791727
0.0803441
0.0811102
0.0815964
0.081897
0.1
0.1
0.1
0.1
0.1
0.1
0.1
0.1
0.1
0.1
0.1
0.1
0.1
0.0567983
0.0647188
0.0708922
0.0748878
0.0775248
0.0792934
0.0804796
0.0812627
0.0817649
0.082078
0.1
0.1
0.1
0.1
0.1
0.1
0.1
0.1
0.1
0.1
0.1
0.1
0.1
0.0571489
0.0648889
0.0710038
0.0749789
0.0776101
0.0793802
0.0805718
0.081362
0.0818714
0.0821899
0.1
0.1
0.1
0.1
0.1
0.1
0.1
0.1
0.1
0.1
0.1
0.1
0.1
0.0574557
0.0650468
0.0711116
0.0750658
0.0776866
0.0794515
0.0806411
0.0814312
0.0819412
0.0822603
0.1
0.1
0.1
0.1
0.1
0.1
0.1
0.1
0.1
0.1
0.1
0.1
0.1
0.0577323
0.0652111
0.0712352
0.0751667
0.077771
0.0795233
0.0807034
0.0814867
0.081992
0.0823076
0.1
0.1
0.1
0.1
0.1
0.1
0.1
0.1
0.1
0.1
0.1
0.1
0.1
0.0580093
0.0654197
0.0714077
0.0753073
0.0778829
0.0796111
0.0807722
0.0815411
0.082036
0.082344
0.1
0.1
0.1
0.1
0.1
0.1
0.1
0.1
0.1
0.1
0.1
0.1
0.1
0.0583646
0.0657523
0.0716868
0.0755254
0.0780466
0.0797313
0.0808594
0.081604
0.0820815
0.0823774
0.1
0.1
0.1
0.1
0.1
0.1
0.1
0.1
0.1
0.1
0.1
0.1
0.1
0.0590072
0.0663705
0.0721654
0.0758709
0.0782897
0.0799
0.0809752
0.0816827
0.0821345
0.082413
0.1
0.1
0.1
0.1
0.1
0.1
0.1
0.1
0.1
0.1
0.1
0.1
0.1
0.0604819
0.0675557
0.0729618
0.0763946
0.0786354
0.080129
0.0811263
0.0817815
0.0821982
0.0824535
0.1
0.1
0.1
0.1
0.1
0.1
0.1
0.1
0.1
0.1
0.1
0.1
0.1
0.063775
0.0695766
0.0741391
0.0771127
0.0790888
0.0804201
0.0813136
0.0819009
0.0822733
0.0824997
0.1
0.1
0.1
0.1
0.1
0.1
0.1
0.1
0.1
0.1
0.1
0.1
0.0621542
0.0667364
0.0719662
0.0755505
0.0779707
0.079626
0.0807612
0.0815304
0.0820374
0.0823578
0.0825509
0.0251641
0.0432015
0.050686
0.0545233
0.056556
0.0576148
0.0581471
0.0584305
0.0586875
0.0592108
0.0605911
0.0638253
0.066764
0.0709991
0.0744773
0.0770438
0.0788904
0.0802056
0.0811296
0.0817638
0.0821836
0.0824477
0.0826049
0.019873
0.0431914
0.0529123
0.0582553
0.0613714
0.0632184
0.0643277
0.0650403
0.0656238
0.0663558
0.0675851
0.0696128
0.0719931
0.0744885
0.0766781
0.0784346
0.0797795
0.0807779
0.0814975
0.081998
0.0823304
0.0825378
0.0826588
0.0212692
0.046161
0.0565743
0.0624159
0.0659604
0.0681708
0.0695761
0.0705145
0.0712377
0.0719635
0.0728893
0.074126
0.0755583
0.0770534
0.0784398
0.0796213
0.0805713
0.0813014
0.0818393
0.0822177
0.0824687
0.0826229
0.0827098
0.0223536
0.0483695
0.059187
0.0652683
0.0690187
0.071417
0.072985
0.0740467
0.0748305
0.0755127
0.0762278
0.0770475
0.077954
0.0788928
0.0797867
0.0805766
0.081233
0.0817504
0.0821377
0.0824116
0.0825918
0.0826991
0.0827556
0.0229893
0.0497789
0.0609063
0.0671568
0.0710365
0.0735486
0.0752144
0.0763479
0.0771603
0.0778042
0.0783888
0.0789776
0.0795867
0.0802009
0.0807872
0.0813136
0.0817591
0.0821154
0.0823842
0.0825737
0.0826956
0.0827638
0.0827949
0.0233424
0.0506279
0.061996
0.0683863
0.0723657
0.0749589
0.0766908
0.0778703
0.0786987
0.0793161
0.0798206
0.0802741
0.0807064
0.0811226
0.0815129
0.0818626
0.0821599
0.0823987
0.0825784
0.082703
0.0827794
0.0828167
0.0828274
0.0235309
0.0511189
0.0626643
0.0691692
0.0732309
0.0758877
0.0776687
0.0788811
0.0797208
0.0803216
0.0807765
0.0811475
0.0814709
0.0817631
0.082027
0.0822591
0.0824546
0.0826102
0.0827255
0.0828024
0.0828449
0.0828588
0.082854
0.0236281
0.0513928
0.063061
0.0696544
0.0737825
0.0764905
0.0783099
0.0795475
0.0803966
0.0809878
0.0814121
0.081732
0.0819873
0.082201
0.0823835
0.0825382
0.0826652
0.0827639
0.0828344
0.0828775
0.0828956
0.0828926
0.0828764
0.0236767
0.051541
0.0632897
0.0699474
0.0741267
0.0768748
0.0787244
0.0799818
0.0808392
0.0814257
0.0818316
0.0821197
0.0823325
0.0824967
0.0826273
0.082732
0.0828142
0.0828751
0.0829153
0.0829355
0.0829367
0.0829218
0.0828974
0.0237007
0.0516199
0.0634194
0.0701219
0.0743392
0.0771181
0.0789912
0.0802643
0.0811291
0.0817141
0.0821092
0.082378
0.0825647
0.0826981
0.0827962
0.0828694
0.0829229
0.0829594
0.0829799
0.0829848
0.0829746
0.0829515
0.0829214
0.0237128
0.0516629
0.0634951
0.0702292
0.0744749
0.0772776
0.0791693
0.0804552
0.0813266
0.0819119
0.0823011
0.0825587
0.0827295
0.0828442
0.0829224
0.0829761
0.0830118
0.0830329
0.0830407
0.0830356
0.0830179
0.0829892
0.0829549
0.0237199
0.0516906
0.0635472
0.0703065
0.0745756
0.0773984
0.0793057
0.0806024
0.0814798
0.0820665
0.0824528
0.0827038
0.0828653
0.0829688
0.083035
0.0830768
0.0831016
0.0831131
0.0831129
0.0831014
0.0830786
0.0830458
0.0830083
0.0237267
0.0517181
0.0636
0.0703853
0.0746782
0.0775206
0.0794424
0.0807489
0.0816318
0.0822201
0.082605
0.0828521
0.0830079
0.0831046
0.0831636
0.0831982
0.0832162
0.0832218
0.0832165
0.0832007
0.0831742
0.0831383
0.083098
0.0237378
0.0517622
0.0636815
0.0705023
0.0748246
0.0776888
0.0796253
0.0809405
0.0818275
0.0824167
0.0828002
0.0830443
0.0831962
0.0832885
0.0833428
0.0833729
0.0833867
0.0833884
0.0833797
0.0833609
0.0833316
0.0832932
0.0832503
0.0237618
0.0518522
0.0638379
0.0707135
0.0750751
0.077964
0.0799139
0.0812347
0.0821224
0.0827096
0.0830899
0.0833303
0.0834784
0.083567
0.0836179
0.0836447
0.0836557
0.0836548
0.0836438
0.0836227
0.0835914
0.0835507
0.0835054
0.0238181
0.0520512
0.0641591
0.0711186
0.0755283
0.0784387
0.0803936
0.0817105
0.0825906
0.0831693
0.0835418
0.0837757
0.0839186
0.084003
0.0840506
0.0840749
0.0840836
0.0840809
0.0840683
0.0840458
0.084013
0.0839708
0.0839236
0.0239548
0.0525037
0.0648283
0.0718992
0.0763469
0.0792545
0.081188
0.0824782
0.083333
0.0838907
0.084247
0.0844691
0.0846037
0.0846825
0.0847262
0.0847478
0.0847547
0.0847508
0.0847373
0.0847143
0.0846813
0.0846389
0.0845912
0.0242966
0.0535467
0.0662132
0.0733732
0.0777868
0.0806166
0.0824674
0.0836855
0.0844835
0.0849991
0.0853259
0.0855281
0.0856497
0.0857203
0.0857589
0.0857775
0.0857828
0.0857782
0.0857649
0.0857428
0.0857114
0.0856712
0.0856257
0.0251784
0.0559527
0.0690012
0.0760421
0.0802041
0.0827902
0.0844443
0.0855156
0.0862089
0.0866528
0.0869319
0.0871035
0.0872061
0.0872652
0.0872973
0.0873123
0.0873161
0.0873116
0.0872997
0.0872803
0.0872531
0.0872183
0.0871789
0.0275958
0.0613694
0.0742759
0.0805335
0.0839884
0.086054
0.0873469
0.0881737
0.0887043
0.089042
0.0892534
0.0893828
0.08946
0.0895042
0.0895281
0.0895391
0.0895416
0.0895379
0.0895286
0.0895139
0.0894934
0.0894677
0.0894388
0.0360393
0.0728669
0.0831491
0.087258
0.0893666
0.0906017
0.0913728
0.091867
0.0921852
0.0923883
0.0925159
0.0925941
0.0926408
0.0926676
0.092682
0.0926886
0.09269
0.0926876
0.092682
0.0926732
0.0926614
0.0926471
0.0926317
0.0856749
0.0938881
0.0950746
0.0957156
0.0961544
0.0964555
0.0966605
0.0967988
0.0968911
0.0969516
0.0969903
0.0970144
0.097029
0.0970374
0.097042
0.097044
0.0970445
0.0970437
0.097042
0.0970396
0.0970365
0.0970333
0.0970306
0.0349488
0.0291722
0.0291528
0.0348307
0.0610098
0.0597088
0.0597501
0.0611455
0.0700854
0.0697471
0.0698068
0.0702699
0.0747935
0.0747072
0.0747713
0.0749897
0.0775999
0.077601
0.0776675
0.0778028
0.0793732
0.0794126
0.0794809
0.0795816
0.0805198
0.0805785
0.0806484
0.0807327
0.0812627
0.0813321
0.0814031
0.081479
0.0817389
0.0818144
0.0818861
0.0819575
0.082039
0.0821177
0.0821899
0.0822587
0.0822248
0.0823051
0.0823773
0.0824446
0.0823385
0.0824192
0.082491
0.0825572
0.0824086
0.0824888
0.0825599
0.0826249
0.0824537
0.0825327
0.0826024
0.0826662
0.0824861
0.0825628
0.0826307
0.0826928
0.0825135
0.0825869
0.0826521
0.082712
0.0825405
0.0826095
0.082671
0.0827281
0.0825699
0.0826331
0.0826901
0.0827436
0.0826026
0.0826589
0.0827103
0.0827595
0.0826383
0.0826866
0.0827319
0.0827762
0.0826756
0.0827155
0.0827541
0.0827933
0.0827128
0.0827442
0.0827762
0.0828102
0.082748
0.0827713
0.082797
0.0828262
0.0827797
0.0827958
0.0828159
0.0828407
0.082807
0.0828171
0.0828323
0.0828534
0.0828299
0.0828351
0.0828464
0.0828644
0.0828491
0.0828504
0.0828587
0.0828744
0.0828659
0.0828644
0.0828704
0.0828843
0.0828829
0.0828793
0.0828836
0.0828961
0.082904
0.0828987
0.0829018
0.0829133
0.0829352
0.0829288
0.0829308
0.0829415
0.0829867
0.0829792
0.0829803
0.0829901
0.0830747
0.0830661
0.0830662
0.0830752
0.083225
0.0832152
0.0832142
0.0832221
0.0834781
0.083467
0.0834647
0.0834712
0.0838945
0.0838821
0.0838782
0.0838831
0.0845611
0.0845476
0.0845423
0.0845453
0.0855963
0.0855826
0.0855761
0.0855771
0.087153
0.0871405
0.0871337
0.0871328
0.0894196
0.0894099
0.0894038
0.0894014
0.0926217
0.0926162
0.0926119
0.0926088
0.0970293
0.0970283
0.0970268
0.0970247
0.0535579
0.0630205
0.0680731
0.0709642
0.0726714
0.0736779
0.0742512
0.074547
0.0746519
0.0746007
0.0743828
0.0739427
0.073173
0.0718969
0.0698241
0.0664433
0.06073
0.0501096
0.0235774
0.0649018
0.0692842
0.0723595
0.0743978
0.0757115
0.0765323
0.0770179
0.0772701
0.0773467
0.0772665
0.0770097
0.0765154
0.0756731
0.0743037
0.0721118
0.0685719
0.062625
0.0515984
0.0241826
0.071533
0.0736918
0.0755399
0.0769262
0.0778945
0.0785326
0.0789213
0.0791199
0.0791618
0.0790509
0.0787585
0.078218
0.0773158
0.0758694
0.0735779
0.0699045
0.0637667
0.05244
0.0244949
0.0755704
0.0767294
0.0778556
0.0787832
0.0794756
0.079952
0.0802471
0.0803903
0.0803956
0.0802544
0.0799298
0.0793503
0.0783983
0.0768882
0.0745146
0.0707326
0.0644466
0.0529094
0.0246555
0.0781332
0.0788099
0.0795138
0.0801312
0.0806149
0.0809578
0.0811696
0.0812607
0.0812308
0.0810615
0.0807091
0.080097
0.0791046
0.0775432
0.0751041
0.071238
0.0648434
0.0531664
0.0247371
0.079802
0.0802289
0.0806821
0.0810932
0.0814246
0.0816625
0.0818049
0.0818504
0.0817892
0.0815954
0.0812195
0.0805813
0.0795571
0.077956
0.0754672
0.0715394
0.0650697
0.0533043
0.0247779
0.0808986
0.0811884
0.0814901
0.0817653
0.0819888
0.0821477
0.0822351
0.0822432
0.0821559
0.0819416
0.081547
0.0808886
0.0798404
0.07821
0.0756854
0.0717147
0.0651957
0.0533767
0.024798
0.0816159
0.0818277
0.0820369
0.0822236
0.0823727
0.0824744
0.0825204
0.0824995
0.0823915
0.0821613
0.0817524
0.0810789
0.0800134
0.0783623
0.0758132
0.0718142
0.0652642
0.053414
0.0248077
0.0820784
0.0822449
0.0823978
0.0825278
0.0826273
0.0826892
0.0827055
0.0826632
0.0825397
0.0822975
0.0818781
0.081194
0.0801165
0.0784514
0.0758862
0.0718693
0.0653007
0.0534329
0.0248123
0.0823707
0.0825109
0.0826297
0.0827243
0.0827915
0.0828268
0.0828227
0.0827653
0.0826308
0.0823801
0.0819533
0.0812619
0.0801764
0.0785023
0.0759269
0.0718992
0.0653197
0.0534423
0.0248145
0.0825513
0.0826763
0.0827749
0.0828477
0.0828947
0.0829128
0.0828952
0.0828277
0.0826857
0.0824292
0.0819974
0.0813011
0.0802105
0.0785307
0.0759492
0.071915
0.0653295
0.0534469
0.0248155
0.0826607
0.0827767
0.0828634
0.0829233
0.0829578
0.0829653
0.0829391
0.082865
0.0827181
0.0824577
0.0820227
0.0813233
0.0802295
0.0785463
0.0759611
0.0719233
0.0653344
0.0534492
0.024816
0.0827261
0.0828366
0.0829163
0.0829685
0.0829956
0.0829966
0.0829651
0.0828869
0.0827368
0.082474
0.0820369
0.0813356
0.0802399
0.0785547
0.0759674
0.0719276
0.0653369
0.0534503
0.0248162
0.0827651
0.082872
0.0829473
0.082995
0.0830178
0.0830149
0.0829802
0.0828995
0.0827475
0.0824832
0.0820448
0.0813424
0.0802455
0.0785591
0.0759707
0.0719297
0.0653381
0.0534508
0.0248163
0.0827893
0.0828931
0.0829655
0.0830104
0.0830306
0.0830254
0.0829888
0.0829067
0.0827535
0.0824883
0.0820491
0.081346
0.0802485
0.0785614
0.0759723
0.0719308
0.0653387
0.053451
0.0248164
0.0828054
0.0829063
0.0829764
0.0830194
0.0830379
0.0830314
0.0829937
0.0829107
0.0827568
0.082491
0.0820514
0.0813479
0.08025
0.0785626
0.0759732
0.0719314
0.065339
0.0534512
0.0248164
0.0828176
0.0829153
0.0829833
0.0830248
0.0830422
0.0830348
0.0829964
0.0829129
0.0827586
0.0824925
0.0820527
0.0813489
0.0802508
0.0785632
0.0759736
0.0719316
0.0653392
0.0534512
0.0248164
0.0828284
0.0829223
0.0829881
0.0830282
0.0830448
0.0830368
0.082998
0.0829141
0.0827596
0.0824933
0.0820533
0.0813495
0.0802512
0.0785635
0.0759738
0.0719318
0.0653392
0.0534512
0.0248164
0.0828388
0.0829284
0.0829919
0.0830307
0.0830465
0.083038
0.0829989
0.0829148
0.0827601
0.0824938
0.0820537
0.0813497
0.0802514
0.0785637
0.0759739
0.0719318
0.0653393
0.0534512
0.0248164
0.0828493
0.0829342
0.0829952
0.0830326
0.0830477
0.0830388
0.0829994
0.0829152
0.0827604
0.082494
0.0820539
0.0813499
0.0802516
0.0785638
0.075974
0.0719319
0.0653393
0.0534513
0.0248164
0.0828598
0.0829398
0.0829982
0.0830343
0.0830486
0.0830394
0.0829998
0.0829154
0.0827606
0.0824941
0.082054
0.08135
0.0802516
0.0785638
0.075974
0.0719319
0.0653393
0.0534513
0.0248164
0.0828701
0.0829453
0.0830011
0.0830358
0.0830494
0.0830398
0.0830001
0.0829156
0.0827608
0.0824942
0.082054
0.08135
0.0802517
0.0785638
0.075974
0.0719319
0.0653393
0.0534513
0.0248164
0.0828799
0.0829504
0.0830037
0.0830373
0.0830502
0.0830403
0.0830004
0.0829158
0.0827609
0.0824943
0.0820541
0.0813501
0.0802517
0.0785639
0.075974
0.0719319
0.0653393
0.0534513
0.0248164
0.0828888
0.0829551
0.0830063
0.0830386
0.083051
0.0830408
0.0830007
0.0829161
0.0827611
0.0824945
0.0820542
0.0813502
0.0802518
0.0785639
0.0759741
0.0719319
0.0653393
0.0534513
0.0248164
0.0828967
0.0829594
0.0830087
0.0830401
0.0830519
0.0830414
0.0830012
0.0829165
0.0827614
0.0824947
0.0820545
0.0813503
0.0802519
0.078564
0.0759741
0.0719319
0.0653393
0.0534513
0.0248164
0.0829039
0.0829636
0.0830113
0.0830418
0.0830532
0.0830424
0.083002
0.0829172
0.082762
0.0824953
0.0820549
0.0813507
0.0802522
0.0785642
0.0759743
0.071932
0.0653393
0.0534513
0.0248164
0.0829107
0.0829681
0.0830145
0.0830442
0.0830552
0.0830441
0.0830035
0.0829185
0.0827632
0.0824963
0.0820558
0.0813514
0.0802528
0.0785646
0.0759745
0.0719322
0.0653394
0.0534513
0.0248164
0.0829182
0.0829738
0.0830191
0.0830482
0.0830587
0.0830473
0.0830065
0.0829212
0.0827656
0.0824985
0.0820576
0.081353
0.080254
0.0785655
0.0759751
0.0719325
0.0653396
0.0534514
0.0248164
0.0829283
0.0829824
0.0830268
0.0830552
0.0830653
0.0830534
0.0830121
0.0829264
0.0827704
0.0825027
0.0820613
0.081356
0.0802564
0.0785673
0.0759764
0.0719332
0.0653399
0.0534515
0.0248165
0.0829441
0.0829969
0.0830404
0.0830681
0.0830775
0.0830649
0.0830229
0.0829364
0.0827796
0.082511
0.0820686
0.0813623
0.0802615
0.0785712
0.075979
0.0719348
0.0653407
0.0534517
0.0248165
0.0829711
0.0830227
0.0830651
0.0830919
0.0831002
0.0830865
0.0830433
0.0829556
0.0827973
0.0825272
0.082083
0.0813747
0.0802717
0.0785791
0.0759845
0.0719382
0.0653424
0.0534523
0.0248166
0.0830186
0.0830688
0.0831099
0.0831352
0.0831419
0.0831265
0.0830814
0.0829915
0.0828309
0.0825581
0.082111
0.0813992
0.0802923
0.0785953
0.0759962
0.0719455
0.0653462
0.0534537
0.0248168
0.0831023
0.0831507
0.0831898
0.0832129
0.0832172
0.0831991
0.083151
0.0830579
0.0828935
0.0826166
0.0821646
0.081447
0.0803333
0.0786285
0.0760207
0.0719615
0.0653546
0.0534569
0.0248173
0.0832475
0.0832934
0.0833297
0.0833496
0.0833504
0.0833283
0.0832759
0.0831778
0.0830079
0.0827246
0.0822652
0.0815387
0.0804139
0.0786956
0.0760721
0.0719961
0.0653736
0.0534642
0.0248185
0.0834943
0.0835367
0.083569
0.0835845
0.0835804
0.0835529
0.0834944
0.0833896
0.0832122
0.0829203
0.0824505
0.0817112
0.0805698
0.0788299
0.0761793
0.0720716
0.065417
0.0534815
0.0248213
0.0839033
0.0839408
0.0839678
0.0839776
0.0839672
0.083933
0.0838671
0.0837541
0.0835678
0.0832656
0.0827837
0.0820287
0.0808659
0.0790953
0.0764015
0.0722372
0.0655178
0.0535237
0.0248284
0.0845617
0.0845928
0.0846131
0.0846161
0.0845987
0.0845572
0.0844836
0.0843627
0.084168
0.0838571
0.0833653
0.0825973
0.0814142
0.0796092
0.0768572
0.0726013
0.0657567
0.0536297
0.0248465
0.0855889
0.0856121
0.0856246
0.0856204
0.0855965
0.085549
0.0854699
0.0853444
0.0851466
0.0848348
0.0843448
0.08358
0.0823967
0.0805773
0.0777752
0.0734011
0.0663361
0.05391
0.0248953
0.0871392
0.0871531
0.0871575
0.0871472
0.0871192
0.0870696
0.0869908
0.0868689
0.0866802
0.086386
0.0859254
0.0852048
0.0840805
0.0823256
0.0795636
0.0751324
0.0677697
0.0547009
0.0250361
0.0894023
0.0894066
0.0894041
0.0893905
0.089363
0.0893179
0.0892487
0.089144
0.0889842
0.0887372
0.0883521
0.0877486
0.0867984
0.0852885
0.0828381
0.0787088
0.0713069
0.0571194
0.0254854
0.0926054
0.0926021
0.0925957
0.0925832
0.0925621
0.0925298
0.0924817
0.0924101
0.0923025
0.0921381
0.0918841
0.0914884
0.0908656
0.0898691
0.0882163
0.0852872
0.079362
0.0649634
0.0271844
0.0970205
0.0970154
0.0970106
0.0970045
0.0969961
0.096984
0.0969666
0.0969414
0.0969043
0.096849
0.0967661
0.0966411
0.0964514
0.0961599
0.095694
0.094885
0.0931606
0.0873209
0.0366771
)
;

boundaryField
{
    leftWall
    {
        type            kqRWallFunction;
        value           nonuniform List<scalar> 
50
(
0.1
0.1
0.1
0.1
0.1
0.1
0.1
0.1
0.1
0.1
0.1
0.1
0.1
0.1
0.1
0.1
0.1
0.1
0.1
0.1
0.1
0.1
0.1
0.1
0.1
0.1
0.1
0.1
0.0251641
0.019873
0.0212692
0.0223536
0.0229893
0.0233424
0.0235309
0.0236281
0.0236767
0.0237007
0.0237128
0.0237199
0.0237267
0.0237378
0.0237618
0.0238181
0.0239548
0.0242966
0.0251784
0.0275958
0.0360393
0.0856749
)
;
    }
    rightWall
    {
        type            kqRWallFunction;
        value           nonuniform List<scalar> 
50
(
0.00862796
0.0141263
0.0169108
0.0188208
0.0202223
0.0212851
0.0221057
0.0227527
0.0235774
0.0241826
0.0244949
0.0246555
0.0247371
0.0247779
0.024798
0.0248077
0.0248123
0.0248145
0.0248155
0.024816
0.0248162
0.0248163
0.0248164
0.0248164
0.0248164
0.0248164
0.0248164
0.0248164
0.0248164
0.0248164
0.0248164
0.0248164
0.0248164
0.0248164
0.0248164
0.0248164
0.0248165
0.0248165
0.0248166
0.0248168
0.0248173
0.0248185
0.0248213
0.0248284
0.0248465
0.0248953
0.0250361
0.0254854
0.0271844
0.0366771
)
;
    }
    lowerWall
    {
        type            kqRWallFunction;
        value           nonuniform List<scalar> 
62
(
0.1
0.1
0.1
0.1
0.1
0.1
0.1
0.1
0.1
0.1
0.1
0.1
0.1
0.012261
0.013038
0.0152221
0.0163823
0.0168462
0.0167317
0.0159799
0.014342
0.0112784
0.00585468
0.00585468
0.0127761
0.0158834
0.018072
0.0199003
0.0218198
0.0248622
0.0327096
0.0349488
0.0291722
0.0291528
0.0348307
0.00618476
0.0137719
0.0170192
0.0192653
0.0211405
0.0231545
0.0264084
0.0344274
0.00618476
0.0118235
0.0149041
0.016536
0.0173703
0.0177736
0.0179569
0.0180346
0.0180629
0.0180647
0.0180439
0.0179888
0.0178677
0.0176181
0.0171285
0.0162136
0.0145666
0.0116365
0.00862796
)
;
    }
    atmosphere
    {
        type            inletOutlet;
        inletValue      uniform 0.1;
        value           uniform 0.1;
    }
    defaultFaces
    {
        type            empty;
    }
}


// ************************************************************************* //
