/*--------------------------------*- C++ -*----------------------------------*\
| =========                 |                                                 |
| \\      /  F ield         | OpenFOAM: The Open Source CFD Toolbox           |
|  \\    /   O peration     | Version:  2406                                  |
|   \\  /    A nd           | Website:  www.openfoam.com                      |
|    \\/     M anipulation  |                                                 |
\*---------------------------------------------------------------------------*/
FoamFile
{
    version     2.0;
    format      ascii;
    arch        "LSB;label=32;scalar=64";
    class       volScalarField;
    location    "0.2";
    object      k;
}
// * * * * * * * * * * * * * * * * * * * * * * * * * * * * * * * * * * * * * //

dimensions      [0 2 -2 0 0 0 0];

internalField   nonuniform List<scalar> 
2268
(
0.00798118
0.0112159
0.0142241
0.0159744
0.0170038
0.0176046
0.0179472
0.0181369
0.0182386
0.0182912
0.0183171
0.0183277
0.0183279
0.018317
0.0182879
0.0182235
0.0180897
0.0178216
0.0173033
0.0163336
0.0145651
0.01138
0.00585926
0.0130677
0.025834
0.0321197
0.0357191
0.0378444
0.0391014
0.0398346
0.0402528
0.0404848
0.0406094
0.0406727
0.0406998
0.0407011
0.0406754
0.0406077
0.0404629
0.0401714
0.0396051
0.0385358
0.036562
0.032968
0.026391
0.0128147
0.015831
0.0329034
0.04055
0.0449035
0.0475061
0.0490758
0.0500144
0.0505652
0.0508805
0.0510551
0.0511465
0.0511869
0.0511901
0.051155
0.0510631
0.0508712
0.0504966
0.04979
0.0484887
0.0461294
0.0418609
0.0339186
0.0159867
0.0177756
0.0375661
0.0460259
0.0508051
0.0536875
0.0554543
0.0565332
0.0571819
0.057563
0.0577798
0.0578962
0.0579491
0.0579551
0.0579134
0.0578039
0.0575802
0.0571543
0.0563715
0.0549614
0.0524422
0.0478917
0.0392116
0.0182465
0.0192145
0.0409258
0.0499778
0.0550531
0.0581317
0.0600429
0.0612303
0.0619588
0.0623963
0.0626509
0.0627907
0.0628561
0.0628657
0.0628196
0.0626975
0.062452
0.0619952
0.0611742
0.0597248
0.0571697
0.0525524
0.0434861
0.0201409
0.0203027
0.0434342
0.0529553
0.0582625
0.0614939
0.0635199
0.0647961
0.0655925
0.0660798
0.0663689
0.0665309
0.0666086
0.0666228
0.0665744
0.066444
0.066185
0.0657127
0.0648814
0.0634419
0.0609407
0.0564339
0.0473466
0.0221182
0.0211328
0.0453424
0.0552498
0.0607508
0.0641094
0.0662313
0.0675832
0.0684386
0.0689703
0.069291
0.069474
0.0695641
0.0695836
0.069535
0.0694001
0.0691349
0.0686596
0.0678397
0.0664474
0.0640723
0.0598486
0.0512506
0.0252115
0.021768
0.0468102
0.0570414
0.0627105
0.0661795
0.0683844
0.0698022
0.0707098
0.0712815
0.0716314
0.0718342
0.0719365
0.0719621
0.0719152
0.0717794
0.0715141
0.0710461
0.070254
0.0689371
0.0667426
0.0629531
0.055535
0.0331449
0.00618794
0.0119033
0.0150635
0.0167212
0.0175692
0.0179872
0.0181842
0.0182714
0.0183043
0.0183062
0.018281
0.0182161
0.0180796
0.0178102
0.0173009
0.0163703
0.0147023
0.0117123
0.00863073
0.0137985
0.0274989
0.0339935
0.037355
0.0390849
0.0399544
0.040376
0.0405687
0.0406427
0.0406454
0.0405841
0.0404328
0.0401258
0.0395409
0.0384662
0.0365394
0.0331124
0.0268893
0.0141492
0.0170933
0.0352655
0.0430877
0.0470802
0.049157
0.0502248
0.0507578
0.0510084
0.0511058
0.0511066
0.0510187
0.0508089
0.0503971
0.0496372
0.0482814
0.0459076
0.0417516
0.0341799
0.0169745
0.0193892
0.0406955
0.0492104
0.0534612
0.0556859
0.0568522
0.057449
0.0577362
0.0578485
0.0578452
0.0577335
0.0574755
0.056983
0.0560986
0.054559
0.0519164
0.0473444
0.0389666
0.0189258
0.0213035
0.0450543
0.0539023
0.0582071
0.0604699
0.061677
0.0623085
0.0626183
0.0627394
0.06273
0.0625957
0.0622949
0.0617344
0.0607508
0.0590732
0.056239
0.0513759
0.0424098
0.0203588
0.0233407
0.0489465
0.0577629
0.0619595
0.064182
0.0653889
0.0660332
0.0663546
0.066479
0.0664618
0.0663055
0.0659659
0.0653463
0.0642797
0.0624908
0.0595059
0.0544141
0.044979
0.021441
0.0265989
0.0527987
0.0611025
0.0650417
0.0671628
0.0683381
0.0689781
0.0693016
0.0694248
0.0693979
0.0692204
0.0688452
0.0681731
0.0670351
0.0651523
0.0620415
0.0567576
0.0469337
0.0222667
0.0346212
0.0568917
0.0640806
0.0676383
0.0696126
0.070733
0.071355
0.0716728
0.0717907
0.0717526
0.0715544
0.0711464
0.0704273
0.0692263
0.0672618
0.0640416
0.0585905
0.0484378
0.0228987
0.0225308
0.0485868
0.0592463
0.0651465
0.0687682
0.0710876
0.0725962
0.0735763
0.0742043
0.074596
0.074828
0.074949
0.0749852
0.0749435
0.0748112
0.0745539
0.0741102
0.0733812
0.0722114
0.0703482
0.0673463
0.0623134
0.0531796
0.0231137
0.0500008
0.0610698
0.0672127
0.0710003
0.0734444
0.0750517
0.0761108
0.0768012
0.0772404
0.077507
0.0776521
0.0777051
0.0776769
0.0775606
0.0773317
0.0769457
0.076334
0.0753983
0.074
0.0719494
0.0690115
0.0650256
0.0234369
0.0508264
0.062183
0.0685138
0.0724359
0.0749826
0.0766711
0.0777954
0.0785375
0.0790169
0.0793139
0.0794817
0.0795527
0.0795419
0.0794486
0.0792576
0.0789395
0.0784513
0.0777374
0.0767344
0.0753871
0.0736952
0.0718346
0.0236121
0.0513014
0.0628559
0.0693282
0.073357
0.075987
0.077742
0.0789197
0.0797047
0.0802177
0.0805408
0.0807294
0.0808186
0.0808271
0.0807599
0.08061
0.0803603
0.0799865
0.0794612
0.0787625
0.0778908
0.0769011
0.0759516
0.0237046
0.051569
0.0632553
0.0698303
0.0739407
0.0766362
0.0784443
0.0796652
0.0804848
0.0810255
0.0813708
0.0815778
0.0816842
0.081712
0.0816712
0.0815611
0.0813742
0.0810988
0.0807238
0.080247
0.0796861
0.0790942
0.0785737
0.0237523
0.0517164
0.0634873
0.0701335
0.0743036
0.0770488
0.0788979
0.0801525
0.0809995
0.0815624
0.0819258
0.0821485
0.0822703
0.0823162
0.0822997
0.0822256
0.0820926
0.0818971
0.081637
0.0813176
0.0809581
0.0805979
0.0802984
0.0237764
0.0517957
0.0636188
0.0703124
0.0745243
0.0773054
0.0791849
0.0804648
0.0813327
0.0819127
0.0822906
0.0825262
0.0826612
0.0827228
0.0827275
0.0826837
0.0825947
0.0824616
0.0822864
0.0820765
0.0818477
0.0816267
0.0814494
0.0237884
0.0518375
0.0636917
0.0704155
0.0746552
0.0774612
0.0793623
0.0806605
0.0815438
0.0821366
0.0825255
0.0827713
0.082917
0.0829915
0.0830136
0.0829942
0.0829394
0.0828529
0.0827388
0.082604
0.0824602
0.0823247
0.0822185
0.0237942
0.0518591
0.0637312
0.0704735
0.0747311
0.0775536
0.0794694
0.0807803
0.0816744
0.0822765
0.0826735
0.082927
0.083081
0.0831656
0.0832012
0.0832003
0.083171
0.0831183
0.0830469
0.0829626
0.0828739
0.0827916
0.0827281
0.023797
0.0518701
0.0637521
0.0705054
0.0747741
0.0776071
0.0795325
0.0808519
0.0817534
0.0823619
0.0827646
0.0830238
0.0831839
0.0832761
0.0833216
0.0833343
0.0833232
0.083294
0.0832515
0.0832007
0.0831472
0.0830981
0.0830605
0.0237984
0.0518756
0.0637631
0.0705226
0.0747979
0.0776374
0.0795688
0.0808937
0.0818
0.0824128
0.0828195
0.0830826
0.0832471
0.0833447
0.0833973
0.0834195
0.0834208
0.0834075
0.0833842
0.0833549
0.0833237
0.083295
0.0832732
0.023799
0.0518783
0.0637687
0.0705317
0.0748109
0.0776542
0.0795893
0.0809176
0.081827
0.0824426
0.0828519
0.0831177
0.0832851
0.0833865
0.0834439
0.0834725
0.0834821
0.0834791
0.083468
0.0834523
0.0834348
0.0834186
0.0834062
0.0237993
0.0518796
0.0637716
0.0705365
0.0748178
0.0776633
0.0796007
0.080931
0.0818423
0.0824596
0.0828706
0.0831381
0.0833076
0.0834114
0.0834721
0.0835048
0.0835197
0.0835232
0.0835197
0.0835123
0.0835032
0.0834944
0.0834876
0.0237994
0.0518802
0.063773
0.0705389
0.0748214
0.0776682
0.0796068
0.0809384
0.0818508
0.0824692
0.0828813
0.0831499
0.0833206
0.083426
0.0834887
0.0835241
0.0835422
0.0835498
0.0835509
0.0835484
0.0835442
0.0835398
0.0835363
0.0237995
0.0518805
0.0637737
0.0705402
0.0748233
0.0776708
0.0796101
0.0809424
0.0818555
0.0824745
0.0828872
0.0831565
0.0833281
0.0834344
0.0834984
0.0835353
0.0835555
0.0835654
0.0835693
0.0835697
0.0835683
0.0835664
0.0835648
0.0237995
0.0518807
0.063774
0.0705408
0.0748242
0.0776721
0.0796118
0.0809445
0.081858
0.0824774
0.0828905
0.0831602
0.0833323
0.0834392
0.0835039
0.0835418
0.0835631
0.0835745
0.0835799
0.0835819
0.0835822
0.0835817
0.0835811
0.0237995
0.0518807
0.0637742
0.0705411
0.0748247
0.0776728
0.0796127
0.0809457
0.0818593
0.082479
0.0828923
0.0831623
0.0833346
0.0834419
0.083507
0.0835455
0.0835675
0.0835796
0.0835859
0.0835888
0.08359
0.0835903
0.0835903
0.0237995
0.0518808
0.0637743
0.0705412
0.0748249
0.0776732
0.0796132
0.0809462
0.08186
0.0824798
0.0828932
0.0831633
0.0833358
0.0834433
0.0835087
0.0835475
0.0835699
0.0835824
0.0835892
0.0835927
0.0835944
0.0835951
0.0835953
0.0237995
0.0518808
0.0637743
0.0705413
0.0748251
0.0776733
0.0796134
0.0809465
0.0818604
0.0824802
0.0828937
0.0831639
0.0833365
0.0834441
0.0835097
0.0835486
0.0835712
0.083584
0.083591
0.0835948
0.0835967
0.0835976
0.0835981
0.0237995
0.0518808
0.0637743
0.0705413
0.0748251
0.0776734
0.0796136
0.0809467
0.0818606
0.0824805
0.082894
0.0831642
0.0833369
0.0834446
0.0835102
0.0835492
0.0835719
0.0835849
0.083592
0.0835959
0.083598
0.083599
0.0835995
0.0237995
0.0518808
0.0637743
0.0705414
0.0748252
0.0776735
0.0796136
0.0809468
0.0818607
0.0824806
0.0828941
0.0831644
0.0833371
0.0834448
0.0835104
0.0835495
0.0835723
0.0835853
0.0835926
0.0835965
0.0835987
0.0835998
0.0836003
0.0237995
0.0518808
0.0637743
0.0705414
0.0748252
0.0776735
0.0796136
0.0809468
0.0818607
0.0824806
0.0828942
0.0831645
0.0833372
0.0834449
0.0835106
0.0835497
0.0835725
0.0835855
0.0835928
0.0835968
0.083599
0.0836001
0.0836007
0.0237995
0.0518808
0.0637743
0.0705414
0.0748252
0.0776735
0.0796137
0.0809468
0.0818608
0.0824807
0.0828942
0.0831645
0.0833372
0.083445
0.0835107
0.0835498
0.0835726
0.0835857
0.083593
0.083597
0.0835992
0.0836003
0.0836009
0.0237995
0.0518808
0.0637743
0.0705414
0.0748252
0.0776735
0.0796137
0.0809468
0.0818608
0.0824807
0.0828943
0.0831646
0.0833372
0.083445
0.0835107
0.0835498
0.0835727
0.0835857
0.083593
0.0835971
0.0835993
0.0836004
0.083601
0.0237995
0.0518808
0.0637743
0.0705414
0.0748252
0.0776735
0.0796137
0.0809468
0.0818608
0.0824807
0.0828943
0.0831646
0.0833373
0.083445
0.0835107
0.0835499
0.0835727
0.0835858
0.0835931
0.0835971
0.0835993
0.0836005
0.0836011
0.0237995
0.0518808
0.0637743
0.0705414
0.0748252
0.0776735
0.0796137
0.0809468
0.0818608
0.0824807
0.0828943
0.0831646
0.0833373
0.083445
0.0835107
0.0835499
0.0835727
0.0835858
0.0835931
0.0835971
0.0835993
0.0836005
0.0836011
0.0237995
0.0518808
0.0637743
0.0705414
0.0748252
0.0776735
0.0796137
0.0809468
0.0818608
0.0824807
0.0828943
0.0831646
0.0833373
0.083445
0.0835107
0.0835499
0.0835727
0.0835858
0.0835931
0.0835972
0.0835994
0.0836005
0.0836011
0.0237995
0.0518808
0.0637743
0.0705414
0.0748252
0.0776735
0.0796137
0.0809468
0.0818608
0.0824807
0.0828943
0.0831646
0.0833373
0.083445
0.0835107
0.0835499
0.0835727
0.0835858
0.0835931
0.0835972
0.0835994
0.0836005
0.0836011
0.0237995
0.0518808
0.0637743
0.0705414
0.0748252
0.0776735
0.0796137
0.0809468
0.0818608
0.0824807
0.0828943
0.0831646
0.0833373
0.083445
0.0835107
0.0835499
0.0835727
0.0835858
0.0835931
0.0835972
0.0835994
0.0836005
0.0836011
0.0237995
0.0518808
0.0637743
0.0705414
0.0748252
0.0776735
0.0796137
0.0809468
0.0818608
0.0824807
0.0828943
0.0831646
0.0833373
0.083445
0.0835107
0.0835499
0.0835727
0.0835858
0.0835931
0.0835972
0.0835994
0.0836005
0.0836011
0.0237995
0.0518808
0.0637743
0.0705414
0.0748252
0.0776735
0.0796137
0.0809468
0.0818608
0.0824807
0.0828943
0.0831646
0.0833373
0.083445
0.0835107
0.0835499
0.0835727
0.0835858
0.0835931
0.0835972
0.0835994
0.0836005
0.0836011
0.0237995
0.0518808
0.0637743
0.0705414
0.0748252
0.0776735
0.0796137
0.0809468
0.0818608
0.0824807
0.0828943
0.0831646
0.0833373
0.083445
0.0835107
0.0835499
0.0835727
0.0835858
0.0835931
0.0835972
0.0835994
0.0836005
0.0836011
0.0237995
0.0518808
0.0637743
0.0705414
0.0748252
0.0776735
0.0796137
0.0809468
0.0818608
0.0824807
0.0828943
0.0831646
0.0833373
0.083445
0.0835107
0.0835499
0.0835727
0.0835858
0.0835931
0.0835972
0.0835994
0.0836005
0.0836011
0.0237995
0.0518808
0.0637743
0.0705414
0.0748252
0.0776735
0.0796137
0.0809468
0.0818608
0.0824807
0.0828943
0.0831646
0.0833373
0.083445
0.0835107
0.0835499
0.0835727
0.0835858
0.0835931
0.0835972
0.0835994
0.0836005
0.0836011
0.0237995
0.0518808
0.0637743
0.0705414
0.0748252
0.0776735
0.0796137
0.0809468
0.0818608
0.0824807
0.0828943
0.0831646
0.0833373
0.083445
0.0835107
0.0835499
0.0835727
0.0835858
0.0835931
0.0835972
0.0835994
0.0836005
0.0836011
0.0237995
0.0518808
0.0637743
0.0705414
0.0748252
0.0776735
0.0796137
0.0809468
0.0818608
0.0824807
0.0828943
0.0831646
0.0833373
0.083445
0.0835107
0.0835499
0.0835727
0.0835858
0.0835931
0.0835972
0.0835994
0.0836005
0.0836011
0.0237995
0.0518808
0.0637743
0.0705414
0.0748252
0.0776735
0.0796137
0.0809468
0.0818608
0.0824807
0.0828943
0.0831646
0.0833373
0.083445
0.0835107
0.0835499
0.0835727
0.0835858
0.0835931
0.0835972
0.0835994
0.0836005
0.0836011
0.0237995
0.0518808
0.0637743
0.0705414
0.0748252
0.0776735
0.0796137
0.0809468
0.0818608
0.0824807
0.0828943
0.0831646
0.0833373
0.083445
0.0835107
0.0835499
0.0835727
0.0835858
0.0835931
0.0835972
0.0835994
0.0836005
0.0836011
0.0237995
0.0518808
0.0637743
0.0705414
0.0748252
0.0776735
0.0796137
0.0809468
0.0818608
0.0824807
0.0828943
0.0831646
0.0833373
0.083445
0.0835107
0.0835499
0.0835727
0.0835858
0.0835931
0.0835972
0.0835994
0.0836005
0.0836011
0.0237995
0.0518808
0.0637743
0.0705414
0.0748252
0.0776735
0.0796137
0.0809468
0.0818608
0.0824807
0.0828943
0.0831646
0.0833373
0.083445
0.0835107
0.0835499
0.0835727
0.0835858
0.0835931
0.0835972
0.0835993
0.0836005
0.0836011
0.0237995
0.0518808
0.0637743
0.0705414
0.0748252
0.0776735
0.0796137
0.0809468
0.0818608
0.0824807
0.0828943
0.0831646
0.0833373
0.083445
0.0835107
0.0835499
0.0835727
0.0835858
0.0835931
0.0835972
0.0835993
0.0836005
0.0836011
0.0237995
0.0518808
0.0637743
0.0705414
0.0748252
0.0776735
0.0796137
0.0809468
0.0818608
0.0824807
0.0828943
0.0831646
0.0833373
0.083445
0.0835107
0.0835499
0.0835727
0.0835858
0.0835931
0.0835972
0.0835993
0.0836005
0.083601
0.0353752
0.0295617
0.0295176
0.0351355
0.0616559
0.0603188
0.0603063
0.0616191
0.0707696
0.0703728
0.0703698
0.0707617
0.0754997
0.0753416
0.0753403
0.0754961
0.0783481
0.0782714
0.0782706
0.0783456
0.0801748
0.0801334
0.0801327
0.0801728
0.0813783
0.0813545
0.081354
0.0813767
0.0821766
0.0821626
0.0821622
0.0821753
0.0827032
0.0826949
0.0826945
0.0827021
0.0830458
0.0830409
0.0830406
0.0830449
0.0832646
0.0832617
0.0832615
0.0832638
0.0834014
0.0833997
0.0833994
0.0834006
0.0834849
0.083484
0.0834837
0.0834842
0.0835349
0.0835343
0.0835341
0.0835341
0.083564
0.0835637
0.0835635
0.0835633
0.0835807
0.0835805
0.0835803
0.08358
0.0835901
0.08359
0.0835898
0.0835894
0.0835953
0.0835952
0.083595
0.0835946
0.0835981
0.083598
0.0835978
0.0835974
0.0835996
0.0835995
0.0835993
0.0835989
0.0836004
0.0836003
0.0836001
0.0835997
0.0836008
0.0836008
0.0836005
0.0836001
0.083601
0.083601
0.0836007
0.0836003
0.0836011
0.0836011
0.0836008
0.0836004
0.0836012
0.0836011
0.0836009
0.0836005
0.0836012
0.0836012
0.0836009
0.0836005
0.0836012
0.0836012
0.0836009
0.0836005
0.0836012
0.0836012
0.0836009
0.0836005
0.0836012
0.0836012
0.0836009
0.0836005
0.0836012
0.0836012
0.0836009
0.0836005
0.0836012
0.0836012
0.0836009
0.0836005
0.0836012
0.0836012
0.0836009
0.0836005
0.0836012
0.0836012
0.0836009
0.0836005
0.0836012
0.0836012
0.0836009
0.0836005
0.0836012
0.0836012
0.0836009
0.0836005
0.0836012
0.0836012
0.0836009
0.0836005
0.0836012
0.0836012
0.0836009
0.0836005
0.0836012
0.0836011
0.0836009
0.0836005
0.0836012
0.0836011
0.0836009
0.0836005
0.0836012
0.0836011
0.0836009
0.0836005
0.0836011
0.0836011
0.0836008
0.0836004
0.0836011
0.0836011
0.0836008
0.0836004
0.0538032
0.0632228
0.0682346
0.071106
0.0728083
0.073817
0.0743946
0.0746936
0.0747978
0.0747402
0.0745106
0.0740552
0.0732701
0.0719819
0.0699047
0.0665327
0.0608503
0.0502595
0.0236575
0.0652297
0.069513
0.0725416
0.0745606
0.0758692
0.0766909
0.0771789
0.0774321
0.0775058
0.0774175
0.0771478
0.0766374
0.0757787
0.0743953
0.0721949
0.0686571
0.0627286
0.0517127
0.0242371
0.0719048
0.0739641
0.0757632
0.0771278
0.0780886
0.0787255
0.0791147
0.0793122
0.0793491
0.0792282
0.078921
0.0783629
0.0774424
0.0759799
0.0736776
0.0700041
0.0638826
0.052564
0.0245585
0.0759789
0.0770479
0.078125
0.0790287
0.0797111
0.0801844
0.080478
0.0806181
0.0806162
0.0804628
0.0801215
0.0795222
0.0785501
0.0770222
0.0746365
0.0708542
0.0645852
0.0530559
0.0247327
0.0785853
0.0791765
0.0798307
0.080422
0.0808936
0.0812313
0.0814398
0.0815258
0.0814866
0.0813028
0.0809312
0.0802972
0.0792826
0.0777018
0.0752498
0.0713832
0.0650057
0.0533344
0.0248248
0.0803034
0.0806448
0.0810464
0.081429
0.081746
0.0819767
0.0821138
0.0821521
0.0820794
0.0818686
0.0814712
0.0808087
0.0797602
0.078138
0.075635
0.0717059
0.0652519
0.0534886
0.0248724
0.0814514
0.0816533
0.0819004
0.0821442
0.0823508
0.0825001
0.0825799
0.0825786
0.0824774
0.0822439
0.0818253
0.0811403
0.0800657
0.0784122
0.0758718
0.0718982
0.0653928
0.053572
0.0248965
0.0822189
0.0823393
0.0824902
0.0826421
0.0827713
0.0828607
0.0828968
0.082864
0.0827399
0.0824882
0.082053
0.0813508
0.0802568
0.0785807
0.0760139
0.0720102
0.0654715
0.0536162
0.0249085
0.0827276
0.0827989
0.0828894
0.082981
0.0830572
0.083104
0.0831077
0.0830513
0.0829096
0.0826439
0.0821963
0.0814814
0.0803736
0.0786818
0.0760972
0.0720739
0.0655146
0.0536391
0.0249143
0.0830595
0.0831009
0.0831536
0.0832061
0.0832469
0.0832643
0.0832452
0.0831717
0.083017
0.0827411
0.0822844
0.0815607
0.0804434
0.0787411
0.076145
0.0721093
0.0655376
0.0536509
0.0249171
0.0832719
0.0832951
0.0833243
0.083352
0.0833696
0.0833675
0.0833329
0.0832474
0.0830836
0.0828005
0.0823376
0.0816078
0.0804842
0.0787752
0.0761718
0.0721286
0.0655498
0.0536568
0.0249185
0.0834048
0.0834171
0.0834319
0.0834441
0.0834472
0.0834324
0.0833875
0.083294
0.0831241
0.0828361
0.082369
0.0816352
0.0805076
0.0787943
0.0761865
0.072139
0.065556
0.0536597
0.0249191
0.0834861
0.0834919
0.0834981
0.083501
0.083495
0.0834722
0.0834208
0.0833222
0.0831483
0.082857
0.0823871
0.0816509
0.0805207
0.0788049
0.0761945
0.0721444
0.0655593
0.0536611
0.0249194
0.0835347
0.0835367
0.0835379
0.0835352
0.0835238
0.0834962
0.0834407
0.0833388
0.0831624
0.0828691
0.0823975
0.0816596
0.080528
0.0788106
0.0761987
0.0721472
0.0655609
0.0536618
0.0249196
0.0835632
0.083563
0.0835613
0.0835553
0.0835407
0.0835102
0.0834523
0.0833485
0.0831705
0.0828759
0.0824033
0.0816645
0.0805319
0.0788137
0.0762009
0.0721487
0.0655617
0.0536622
0.0249196
0.0835795
0.0835781
0.0835747
0.083567
0.0835505
0.0835184
0.083459
0.0833541
0.0831751
0.0828798
0.0824065
0.0816671
0.0805341
0.0788153
0.0762021
0.0721494
0.0655621
0.0536623
0.0249197
0.0835886
0.0835866
0.0835823
0.0835735
0.0835561
0.083523
0.0834628
0.0833572
0.0831777
0.0828819
0.0824083
0.0816686
0.0805352
0.0788161
0.0762026
0.0721498
0.0655623
0.0536624
0.0249197
0.0835937
0.0835913
0.0835865
0.0835772
0.0835592
0.0835255
0.0834649
0.0833589
0.0831791
0.0828831
0.0824092
0.0816693
0.0805358
0.0788166
0.0762029
0.07215
0.0655624
0.0536624
0.0249197
0.0835964
0.0835938
0.0835888
0.0835792
0.0835608
0.0835269
0.0834661
0.0833598
0.0831798
0.0828837
0.0824097
0.0816697
0.0805361
0.0788168
0.0762031
0.0721501
0.0655624
0.0536625
0.0249197
0.0835979
0.0835952
0.0835901
0.0835803
0.0835618
0.0835277
0.0834667
0.0833603
0.0831803
0.082884
0.08241
0.0816699
0.0805362
0.0788169
0.0762032
0.0721501
0.0655624
0.0536625
0.0249197
0.0835986
0.0835959
0.0835907
0.0835808
0.0835622
0.0835281
0.083467
0.0833606
0.0831805
0.0828842
0.0824101
0.08167
0.0805363
0.078817
0.0762032
0.0721501
0.0655624
0.0536625
0.0249197
0.083599
0.0835963
0.0835911
0.0835811
0.0835625
0.0835283
0.0834672
0.0833607
0.0831806
0.0828843
0.0824102
0.0816701
0.0805363
0.078817
0.0762032
0.0721501
0.0655625
0.0536625
0.0249197
0.0835993
0.0835965
0.0835912
0.0835813
0.0835626
0.0835284
0.0834673
0.0833608
0.0831806
0.0828843
0.0824102
0.0816701
0.0805364
0.078817
0.0762032
0.0721501
0.0655625
0.0536625
0.0249197
0.0835994
0.0835966
0.0835913
0.0835814
0.0835627
0.0835285
0.0834673
0.0833609
0.0831807
0.0828843
0.0824102
0.0816701
0.0805364
0.078817
0.0762032
0.0721501
0.0655625
0.0536625
0.0249197
0.0835994
0.0835966
0.0835914
0.0835814
0.0835627
0.0835285
0.0834674
0.0833609
0.0831807
0.0828844
0.0824103
0.0816701
0.0805364
0.078817
0.0762032
0.0721501
0.0655625
0.0536625
0.0249197
0.0835994
0.0835967
0.0835914
0.0835814
0.0835628
0.0835285
0.0834674
0.0833609
0.0831807
0.0828844
0.0824103
0.0816701
0.0805364
0.078817
0.0762032
0.0721501
0.0655625
0.0536625
0.0249197
0.0835994
0.0835967
0.0835914
0.0835814
0.0835628
0.0835285
0.0834674
0.0833609
0.0831807
0.0828844
0.0824103
0.0816701
0.0805364
0.078817
0.0762032
0.0721501
0.0655625
0.0536625
0.0249197
0.0835995
0.0835967
0.0835914
0.0835814
0.0835628
0.0835285
0.0834674
0.0833609
0.0831807
0.0828844
0.0824103
0.0816701
0.0805364
0.078817
0.0762032
0.0721501
0.0655625
0.0536625
0.0249197
0.0835995
0.0835967
0.0835914
0.0835814
0.0835628
0.0835285
0.0834674
0.0833609
0.0831807
0.0828844
0.0824103
0.0816701
0.0805364
0.078817
0.0762032
0.0721501
0.0655625
0.0536625
0.0249197
0.0835995
0.0835967
0.0835914
0.0835814
0.0835628
0.0835285
0.0834674
0.0833609
0.0831807
0.0828844
0.0824103
0.0816701
0.0805364
0.078817
0.0762032
0.0721501
0.0655625
0.0536625
0.0249197
0.0835995
0.0835967
0.0835914
0.0835814
0.0835628
0.0835285
0.0834674
0.0833609
0.0831807
0.0828844
0.0824103
0.0816701
0.0805364
0.078817
0.0762032
0.0721501
0.0655625
0.0536625
0.0249197
0.0835995
0.0835967
0.0835914
0.0835814
0.0835628
0.0835286
0.0834674
0.0833609
0.0831807
0.0828844
0.0824103
0.0816701
0.0805364
0.078817
0.0762032
0.0721501
0.0655625
0.0536625
0.0249197
0.0835995
0.0835967
0.0835914
0.0835814
0.0835628
0.0835286
0.0834674
0.0833609
0.0831807
0.0828844
0.0824103
0.0816701
0.0805364
0.078817
0.0762032
0.0721501
0.0655625
0.0536625
0.0249197
0.0835995
0.0835967
0.0835914
0.0835814
0.0835628
0.0835286
0.0834674
0.0833609
0.0831807
0.0828844
0.0824103
0.0816701
0.0805364
0.078817
0.0762032
0.0721501
0.0655625
0.0536625
0.0249197
0.0835995
0.0835967
0.0835914
0.0835814
0.0835628
0.0835286
0.0834674
0.0833609
0.0831807
0.0828844
0.0824103
0.0816701
0.0805364
0.078817
0.0762032
0.0721501
0.0655625
0.0536625
0.0249197
0.0835994
0.0835967
0.0835914
0.0835814
0.0835628
0.0835285
0.0834674
0.0833609
0.0831807
0.0828844
0.0824103
0.0816701
0.0805364
0.078817
0.0762032
0.0721501
0.0655625
0.0536625
0.0249197
0.0835994
0.0835967
0.0835914
0.0835814
0.0835628
0.0835285
0.0834674
0.0833609
0.0831807
0.0828844
0.0824103
0.0816701
0.0805364
0.078817
0.0762032
0.0721501
0.0655625
0.0536625
0.0249197
0.0835994
0.0835967
0.0835914
0.0835814
0.0835628
0.0835285
0.0834674
0.0833609
0.0831807
0.0828844
0.0824103
0.0816701
0.0805364
0.078817
0.0762032
0.0721501
0.0655625
0.0536625
0.0249197
0.0835994
0.0835967
0.0835914
0.0835814
0.0835628
0.0835285
0.0834674
0.0833609
0.0831807
0.0828844
0.0824103
0.0816701
0.0805364
0.078817
0.0762032
0.0721501
0.0655625
0.0536625
0.0249197
0.0835994
0.0835966
0.0835914
0.0835814
0.0835628
0.0835285
0.0834674
0.0833609
0.0831807
0.0828844
0.0824103
0.0816701
0.0805364
0.078817
0.0762032
0.0721501
0.0655625
0.0536625
0.0249197
0.0835994
0.0835966
0.0835914
0.0835814
0.0835628
0.0835285
0.0834674
0.0833609
0.0831807
0.0828844
0.0824103
0.0816701
0.0805364
0.078817
0.0762032
0.0721501
0.0655625
0.0536625
0.0249197
0.0835994
0.0835966
0.0835914
0.0835814
0.0835628
0.0835285
0.0834674
0.0833609
0.0831807
0.0828844
0.0824103
0.0816701
0.0805364
0.078817
0.0762032
0.0721501
0.0655625
0.0536625
0.0249197
)
;

boundaryField
{
    leftWall
    {
        type            kqRWallFunction;
        value           nonuniform List<scalar> 
50
(
0.00798118
0.0130677
0.015831
0.0177756
0.0192145
0.0203027
0.0211328
0.021768
0.0225308
0.0231137
0.0234369
0.0236121
0.0237046
0.0237523
0.0237764
0.0237884
0.0237942
0.023797
0.0237984
0.023799
0.0237993
0.0237994
0.0237995
0.0237995
0.0237995
0.0237995
0.0237995
0.0237995
0.0237995
0.0237995
0.0237995
0.0237995
0.0237995
0.0237995
0.0237995
0.0237995
0.0237995
0.0237995
0.0237995
0.0237995
0.0237995
0.0237995
0.0237995
0.0237995
0.0237995
0.0237995
0.0237995
0.0237995
0.0237995
0.0237995
)
;
    }
    rightWall
    {
        type            kqRWallFunction;
        value           nonuniform List<scalar> 
50
(
0.00863073
0.0141492
0.0169745
0.0189258
0.0203588
0.021441
0.0222667
0.0228987
0.0236575
0.0242371
0.0245585
0.0247327
0.0248248
0.0248724
0.0248965
0.0249085
0.0249143
0.0249171
0.0249185
0.0249191
0.0249194
0.0249196
0.0249196
0.0249197
0.0249197
0.0249197
0.0249197
0.0249197
0.0249197
0.0249197
0.0249197
0.0249197
0.0249197
0.0249197
0.0249197
0.0249197
0.0249197
0.0249197
0.0249197
0.0249197
0.0249197
0.0249197
0.0249197
0.0249197
0.0249197
0.0249197
0.0249197
0.0249197
0.0249197
0.0249197
)
;
    }
    lowerWall
    {
        type            kqRWallFunction;
        value           nonuniform List<scalar> 
62
(
0.00798118
0.0112159
0.0142241
0.0159744
0.0170038
0.0176046
0.0179472
0.0181369
0.0182386
0.0182912
0.0183171
0.0183277
0.0183279
0.018317
0.0182879
0.0182235
0.0180897
0.0178216
0.0173033
0.0163336
0.0145651
0.01138
0.00585926
0.00585926
0.0128147
0.0159867
0.0182465
0.0201409
0.0221182
0.0252115
0.0331449
0.0353752
0.0295617
0.0295176
0.0351355
0.00618794
0.0137985
0.0170933
0.0193892
0.0213035
0.0233407
0.0265989
0.0346212
0.00618794
0.0119033
0.0150635
0.0167212
0.0175692
0.0179872
0.0181842
0.0182714
0.0183043
0.0183062
0.018281
0.0182161
0.0180796
0.0178102
0.0173009
0.0163703
0.0147023
0.0117123
0.00863073
)
;
    }
    atmosphere
    {
        type            inletOutlet;
        inletValue      uniform 0.1;
        value           nonuniform List<scalar> 
46
(
0.0237995
0.0518808
0.0637743
0.0705414
0.0748252
0.0776735
0.0796137
0.0809468
0.0818608
0.0824807
0.0828943
0.0831646
0.0833373
0.083445
0.0835107
0.0835499
0.0835727
0.0835858
0.0835931
0.0835972
0.0835993
0.0836005
0.083601
0.0836011
0.0836011
0.0836008
0.0836004
0.0835994
0.0835966
0.0835914
0.0835814
0.0835628
0.0835285
0.0834674
0.0833609
0.0831807
0.0828844
0.0824103
0.0816701
0.0805364
0.078817
0.0762032
0.0721501
0.0655625
0.0536625
0.0249197
)
;
    }
    defaultFaces
    {
        type            empty;
    }
}


// ************************************************************************* //
