/*--------------------------------*- C++ -*----------------------------------*\
| =========                 |                                                 |
| \\      /  F ield         | OpenFOAM: The Open Source CFD Toolbox           |
|  \\    /   O peration     | Version:  2406                                  |
|   \\  /    A nd           | Website:  www.openfoam.com                      |
|    \\/     M anipulation  |                                                 |
\*---------------------------------------------------------------------------*/
FoamFile
{
    version     2.0;
    format      ascii;
    arch        "LSB;label=32;scalar=64";
    class       volScalarField;
    location    "0.2";
    object      nut;
}
// * * * * * * * * * * * * * * * * * * * * * * * * * * * * * * * * * * * * * //

dimensions      [0 2 -1 0 0 0 0];

internalField   nonuniform List<scalar> 
2268
(
0.000289337
0.000213038
0.000213038
0.000213038
0.000213038
0.000213038
0.000213038
0.000213038
0.000213038
0.000213038
0.000213038
0.000213038
0.000213038
6.51082e-05
6.53312e-05
7.20528e-05
7.56382e-05
7.71543e-05
7.69172e-05
7.47962e-05
7.01201e-05
6.08987e-05
4.00792e-05
0.000450785
0.000254306
0.000232321
0.000225511
0.000222385
0.000220635
0.000219545
0.000218827
0.000218345
0.000218026
0.00021783
0.000217737
0.000217737
0.000208079
0.00050051
0.000628431
0.000689118
0.000714436
0.000711509
0.000678923
0.000606707
0.000464023
0.000130476
0.000450785
0.000288167
0.000251962
0.000238672
0.000232268
0.000228639
0.000226375
0.000224886
0.000223885
0.000223224
0.000222819
0.000222627
0.000222627
0.000288436
0.000797339
0.0010983
0.00125437
0.0013219
0.00131657
0.00123643
0.00106349
0.000747031
0.000148765
0.000450785
0.000314823
0.000270613
0.00025196
0.00024245
0.000236938
0.000233468
0.000231177
0.000229636
0.000228616
0.000227993
0.000227696
0.000227696
0.000346378
0.000998622
0.00145315
0.00171031
0.00182693
0.00182248
0.00169507
0.00142326
0.000950211
0.000161425
0.000450785
0.000335499
0.000287639
0.000264954
0.00025271
0.000245414
0.000240758
0.000237661
0.00023557
0.000234185
0.000233336
0.000232933
0.000232933
0.0003915
0.00115101
0.00173897
0.00209675
0.00226727
0.00226859
0.00209863
0.00173484
0.00111892
0.000171941
0.000450785
0.000351572
0.000302834
0.000277373
0.000262866
0.000253958
0.000248177
0.000244295
0.000241659
0.000239908
0.000238833
0.000238321
0.000238321
0.000428113
0.00127403
0.00197967
0.00243556
0.00266398
0.00267754
0.00247333
0.00202777
0.00127778
0.000182799
0.000450785
0.000364209
0.000316232
0.000289058
0.00027278
0.000262476
0.000255663
0.000251036
0.000247874
0.000245763
0.000244465
0.000243845
0.000243845
0.00045874
0.0013776
0.00218855
0.00273871
0.00302818
0.00306214
0.00283645
0.00232564
0.00144961
0.000198752
0.000450785
0.000374291
0.00032798
0.000299934
0.000282354
0.000270887
0.000263159
0.000257844
0.000254183
0.000251727
0.000250211
0.000249487
0.000249487
0.000485191
0.00146874
0.0023756
0.00301499
0.00336769
0.00343172
0.00320269
0.00265548
0.00167844
0.000233483
4.13931e-05
6.27119e-05
7.1985e-05
7.68257e-05
7.94605e-05
8.0858e-05
8.15573e-05
8.18794e-05
8.20026e-05
8.20075e-05
8.19068e-05
8.16549e-05
8.11402e-05
8.01664e-05
7.84296e-05
7.54741e-05
7.05135e-05
6.16523e-05
6.86352e-05
0.000150705
0.000492403
0.000636009
0.00071116
0.000752117
0.000773781
0.000784595
0.000789574
0.000791473
0.000791528
0.000789923
0.00078595
0.000777881
0.000762669
0.000735572
0.000689533
0.000612616
0.000474326
0.000151971
0.000171087
0.000805621
0.00113386
0.00131877
0.00142314
0.00147919
0.00150735
0.00152035
0.00152529
0.00152535
0.00152099
0.00151033
0.00148886
0.00144876
0.00137823
0.00126109
0.00107369
0.000764097
0.000169456
0.000185142
0.00103482
0.00153629
0.00183404
0.00200695
0.00210143
0.00214945
0.00217181
0.0021803
0.00218022
0.00217226
0.00215315
0.00211518
0.00204522
0.00192429
0.00172836
0.0014272
0.000962678
0.000181209
0.000196928
0.00122804
0.00189174
0.00229917
0.00254076
0.00267492
0.00274405
0.00277657
0.00278887
0.00278839
0.00277594
0.00274664
0.00268925
0.00258519
0.00240865
0.00212961
0.00171571
0.001112
0.00018978
0.000209423
0.00141175
0.00223007
0.00273986
0.00304652
0.00321945
0.00330989
0.0033529
0.0033691
0.00336783
0.00334989
0.00330853
0.00322882
0.00308672
0.00285038
0.00248566
0.00196149
0.00123107
0.000196353
0.000228102
0.00161002
0.00257455
0.00317259
0.00353608
0.00374434
0.00385505
0.00390837
0.00392831
0.00392573
0.00390117
0.00384585
0.00374103
0.00355762
0.0032588
0.00280819
0.00217786
0.00133061
0.000201576
0.000267004
0.00186697
0.00295048
0.00361079
0.00401752
0.00425496
0.0043836
0.00444644
0.00446968
0.00446514
0.00443276
0.00436157
0.0042292
0.00400224
0.0036404
0.00310669
0.00237638
0.00141932
0.000205883
0.000450785
0.000387195
0.000344346
0.000315957
0.00029696
0.000284002
0.000275004
0.000268694
0.000264291
0.000261312
0.000259465
0.00025858
0.00025858
0.000522949
0.00160304
0.00265089
0.00342466
0.00388244
0.00401386
0.00381805
0.00329339
0.00243176
0.0012703
0.000450785
0.000399213
0.000361271
0.000333995
0.000314485
0.00030048
0.00029038
0.000283102
0.000277924
0.000274375
0.000272155
0.000271086
0.000271086
0.000560581
0.00171669
0.00289149
0.00380655
0.00439617
0.00464188
0.00455165
0.00415456
0.00350189
0.00268625
0.000450785
0.00040801
0.000374623
0.000349178
0.000330023
0.000315685
0.000304998
0.000297101
0.000291378
0.000287403
0.000284894
0.00028368
0.00028368
0.000590849
0.00179164
0.00305121
0.00407558
0.00478446
0.00515438
0.00519996
0.00496842
0.00453695
0.0040165
0.000450785
0.000414732
0.000385377
0.000362021
0.000343729
0.00032956
0.0003187
0.000310494
0.000304444
0.000300189
0.000297481
0.000296164
0.000296164
0.000616864
0.00184499
0.00316165
0.00426826
0.00507786
0.00556496
0.00574741
0.00567875
0.00543975
0.00513047
0.000450785
0.000420036
0.000394197
0.000372956
0.000355795
0.000342129
0.000331403
0.000323141
0.000316956
0.000312556
0.000309733
0.000308354
0.000308354
0.000639993
0.00188479
0.00323948
0.00440587
0.00529486
0.00588061
0.00618169
0.00625096
0.00616267
0.00599876
0.000450785
0.000424322
0.000401534
0.00038232
0.000366409
0.000353449
0.000343075
0.000334949
0.000328785
0.000324356
0.000321493
0.000320089
0.000320089
0.0006609
0.0019156
0.00329497
0.00450299
0.0054504
0.00611156
0.00650443
0.00667819
0.00669788
0.00662882
0.000450785
0.000427845
0.000407703
0.000390374
0.000375738
0.000363595
0.000353713
0.000345862
0.000339838
0.000335471
0.000332631
0.000331232
0.000331232
0.000679915
0.00194022
0.00333496
0.00457059
0.00555818
0.00627231
0.00672979
0.00697562
0.00706637
0.0070546
0.000450785
0.000430773
0.000412925
0.000397319
0.000383924
0.000372641
0.000363333
0.00035585
0.000350051
0.000345814
0.000343043
0.000341675
0.000341675
0.000697202
0.00196042
0.00336426
0.00461728
0.00563074
0.00637934
0.0068787
0.00717031
0.00730426
0.00732434
0.000450785
0.000433226
0.000417364
0.000403309
0.000391087
0.000380662
0.000371964
0.000364901
0.000359382
0.000355322
0.000352655
0.000351334
0.000351334
0.000712854
0.00197737
0.00338625
0.00464963
0.00567876
0.00644826
0.00697283
0.00729143
0.00744983
0.00748627
0.000450785
0.000435287
0.000421139
0.000408466
0.000397327
0.000387728
0.000379641
0.000373021
0.00036781
0.000363956
0.000361414
0.000360152
0.000360152
0.000726928
0.00199185
0.00340331
0.00467258
0.00571062
0.00649194
0.00703063
0.00736406
0.00753539
0.00757963
0.000450785
0.000437021
0.000424345
0.000412889
0.000402729
0.0003939
0.000386404
0.000380223
0.00037533
0.000371694
0.000369288
0.00036809
0.00036809
0.000739479
0.0020044
0.00341716
0.00468971
0.00573256
0.00652008
0.00706602
0.00740693
0.00758452
0.00763212
0.000450785
0.000438472
0.000427052
0.000416654
0.000407365
0.000399237
0.00039229
0.00038653
0.000381948
0.000378529
0.00037626
0.000375128
0.000375128
0.000750577
0.00201554
0.00342921
0.00470381
0.00574921
0.00653961
0.0070887
0.00743276
0.00761288
0.00766152
0.000450785
0.000439679
0.000429317
0.000419826
0.000411297
0.00040379
0.000397341
0.000391968
0.000387676
0.000384464
0.000382326
0.000381259
0.000381259
0.00076035
0.00202588
0.00344098
0.00471753
0.00576442
0.00655571
0.00710537
0.00744987
0.00763021
0.00767856
0.000450785
0.00044067
0.000431186
0.000422458
0.000414576
0.000407606
0.000401593
0.000396564
0.000392534
0.000389509
0.000387493
0.000386485
0.000386485
0.000769066
0.00203657
0.00345483
0.00473425
0.00578228
0.00657294
0.00712103
0.00746378
0.00764255
0.00768949
0.000450785
0.000441465
0.000432694
0.00042459
0.000417244
0.000410724
0.00040508
0.000400345
0.000396541
0.00039368
0.000391769
0.000390814
0.000390814
0.000777362
0.00204997
0.00347514
0.0047595
0.00580833
0.00659633
0.00714013
0.00747857
0.00765378
0.00769803
0.000450785
0.000442083
0.000433869
0.000426257
0.000419337
0.000413178
0.000407832
0.000403337
0.000399718
0.000396992
0.000395169
0.000394257
0.000394257
0.000786882
0.00207148
0.00351074
0.00480299
0.00585104
0.00663232
0.00716735
0.0074977
0.00766666
0.0077065
0.000450785
0.000442536
0.000434733
0.000427486
0.000420883
0.000414994
0.000409874
0.00040556
0.000402083
0.00039946
0.000397705
0.000396826
0.000396826
0.000802314
0.00211438
0.00358005
0.00488185
0.00592313
0.00668922
0.00720779
0.00752433
0.00768324
0.00771637
0.000450785
0.000442833
0.0004353
0.000428294
0.000421902
0.000416194
0.000411224
0.000407033
0.00040365
0.000401098
0.000399389
0.000398532
0.000398533
0.000839414
0.00221451
0.00372139
0.00502428
0.00604171
0.00677633
0.00726625
0.00756093
0.0077049
0.00772854
0.000450785
0.00044298
0.000435581
0.000428695
0.000422408
0.00041679
0.000411896
0.000407766
0.000404432
0.000401914
0.000400228
0.000399383
0.000399384
0.000969509
0.00247901
0.00400964
0.00526893
0.00622395
0.00690059
0.00734531
0.00760844
0.00773206
0.00774324
0.000450785
0.00044298
0.000435582
0.000428695
0.000422408
0.000416791
0.000411896
0.000407767
0.000404432
0.000401914
0.000400229
0.000399384
0.000716205
0.00181528
0.00321767
0.00454461
0.00564141
0.00647363
0.00706043
0.00744287
0.00766534
0.00776382
0.00776006
0.000206398
0.000523237
0.000655484
0.000725701
0.000763845
0.000783589
0.000792944
0.000797356
0.000801485
0.000811885
0.000845485
0.000974468
0.00181922
0.00293944
0.00411608
0.00519353
0.00608484
0.00676319
0.00724132
0.00755109
0.00772747
0.00779806
0.007778
0.000171376
0.000963877
0.00139351
0.00165128
0.00181599
0.00192147
0.00198842
0.00203287
0.00207012
0.0021204
0.00222415
0.00249085
0.00322706
0.00412108
0.00502937
0.00585391
0.00653639
0.00705686
0.00742366
0.00765954
0.00778945
0.00783211
0.00779579
0.000179291
0.00125172
0.00200325
0.00250896
0.00285962
0.00310084
0.00326414
0.00337698
0.00346696
0.00356675
0.00372457
0.00402076
0.00455612
0.00520205
0.00585818
0.00645396
0.0069478
0.00732496
0.00759036
0.00775885
0.00784633
0.00786346
0.00781224
0.000186052
0.00141483
0.00240679
0.00313969
0.003683
0.00407646
0.00435325
0.00454738
0.00469484
0.00483456
0.00501081
0.00527254
0.00565112
0.00609485
0.00654402
0.006952
0.00729061
0.00754937
0.00773062
0.00784292
0.00789482
0.0078904
0.00782649
0.000190289
0.00151085
0.00266269
0.00356972
0.0042771
0.00481016
0.005196
0.00546889
0.00566809
0.00583427
0.0060065
0.00621726
0.00648018
0.00677443
0.00706838
0.00733451
0.00755533
0.0077238
0.00784052
0.00790939
0.00793357
0.00791218
0.00783818
0.000192818
0.00156746
0.0028202
0.00384801
0.00467867
0.00532325
0.00579973
0.00613875
0.00637925
0.00656163
0.00672186
0.00688643
0.00706686
0.00725709
0.00744264
0.00760913
0.00774673
0.00785103
0.00792151
0.00795898
0.00796289
0.00792892
0.00784734
0.000194268
0.00159999
0.00291369
0.00401948
0.00493469
0.0056595
0.0062034
0.00659218
0.00686288
0.00705504
0.00720343
0.0073333
0.00745809
0.00757992
0.00769433
0.00779516
0.00787758
0.00793897
0.00797824
0.00799427
0.00798415
0.00794135
0.00785435
0.000195067
0.00161805
0.00296703
0.00412034
0.00508951
0.00586751
0.00645733
0.00688046
0.00717178
0.00736999
0.0075096
0.00761631
0.00770584
0.00778511
0.00785537
0.00791529
0.00796307
0.00799728
0.00801653
0.00801863
0.00799924
0.00795051
0.0078598
0.000195492
0.00162773
0.00299639
0.00417733
0.00517905
0.00599013
0.00660919
0.00705449
0.00735916
0.00756126
0.00769534
0.0077879
0.00785637
0.00791049
0.00795467
0.0079903
0.00801735
0.00803509
0.00804206
0.00803547
0.0080102
0.00795763
0.00786446
0.000195713
0.00163282
0.00301219
0.00420871
0.00522934
0.00606014
0.00669697
0.00715595
0.00746896
0.00767363
0.00780467
0.00788916
0.00794571
0.00798563
0.00801505
0.00803683
0.00805194
0.00806008
0.00805978
0.00804794
0.00801905
0.00796405
0.00786928
0.00019583
0.00163555
0.00302084
0.00422622
0.00525785
0.00610029
0.00674777
0.00721507
0.00753326
0.00773971
0.00786926
0.00794945
0.00799953
0.00803173
0.00805308
0.00806722
0.00807566
0.00807836
0.00807387
0.00805895
0.00802787
0.00797135
0.00787554
0.000195903
0.00163725
0.0030263
0.00423731
0.0052759
0.00612569
0.00677987
0.0072524
0.00757391
0.00778167
0.00791062
0.00798861
0.00803532
0.00806343
0.00808047
0.0080905
0.00809529
0.00809497
0.00808811
0.0080714
0.00803901
0.00798156
0.00788507
0.000195974
0.00163886
0.00303132
0.00424717
0.00529138
0.00614676
0.00680579
0.00728196
0.00760576
0.00781447
0.00794324
0.00802012
0.00806507
0.00809103
0.00810579
0.00811363
0.00811646
0.00811449
0.0081063
0.00808857
0.00805543
0.00799744
0.00790058
0.000196088
0.00164135
0.00303864
0.00426063
0.00531118
0.00617214
0.00683542
0.00731441
0.00763976
0.00784904
0.00797763
0.00805383
0.00809776
0.00812253
0.00813605
0.0081427
0.00814447
0.00814161
0.00813271
0.00811446
0.00808098
0.00802281
0.00792596
0.000196323
0.00164631
0.00305237
0.00428427
0.00534375
0.00621133
0.00687867
0.00735961
0.0076855
0.00789453
0.00802249
0.00809789
0.00814097
0.00816492
0.00817767
0.00818363
0.00818483
0.00818152
0.00817232
0.00815395
0.00812056
0.00806275
0.00796659
0.000196849
0.001657
0.00308024
0.00432935
0.00540207
0.00627741
0.0069477
0.00742845
0.00775268
0.00795967
0.00808577
0.00815968
0.00820162
0.00822471
0.00823682
0.00824232
0.00824322
0.00823976
0.00823062
0.00821257
0.00817988
0.00812333
0.0080292
0.00019806
0.00168055
0.00313771
0.00441638
0.00550756
0.00638974
0.00705854
0.0075337
0.00785144
0.00805278
0.00817463
0.00824558
0.0082856
0.00830747
0.00831884
0.00832393
0.00832468
0.00832134
0.00831264
0.00829551
0.00826446
0.00821065
0.00812086
0.000200895
0.00173239
0.00325554
0.00458243
0.00569497
0.00657613
0.00723134
0.00768916
0.00799114
0.00818038
0.00829386
0.00835944
0.00839618
0.00841614
0.00842648
0.00843109
0.00843179
0.00842881
0.008421
0.00840557
0.00837749
0.00832861
0.00824672
0.000207562
0.0018441
0.00349208
0.00489091
0.0060164
0.00687235
0.00748757
0.00790624
0.00817693
0.00834404
0.00844312
0.00849989
0.00853148
0.00854856
0.00855738
0.00856136
0.00856203
0.00855962
0.00855318
0.00854034
0.0085168
0.00847561
0.00840623
0.000223276
0.00207229
0.00395237
0.00544219
0.00653985
0.00731462
0.00784181
0.00818715
0.00840468
0.00853659
0.00861383
0.00865771
0.00868197
0.00869505
0.00870182
0.0087049
0.0087055
0.00870382
0.00869914
0.00868968
0.00867221
0.00864144
0.00858934
0.00026473
0.00251996
0.00484049
0.00638627
0.00733333
0.00791937
0.00828684
0.00851608
0.00865632
0.00873986
0.00878824
0.00881553
0.00883057
0.00883867
0.00884287
0.0088448
0.00884524
0.0088443
0.00884157
0.00883598
0.00882556
0.0088071
0.00877564
0.00041711
0.00368122
0.00674772
0.00793928
0.00841357
0.00864561
0.00877628
0.00885401
0.00890052
0.00892792
0.00894371
0.0089526
0.00895749
0.00896013
0.00896151
0.00896215
0.00896231
0.00896204
0.0089612
0.00895947
0.00895621
0.00895036
0.00894019
0.000246189
0.000224214
0.000224244
0.000246217
0.00205772
0.00194209
0.00194425
0.00205755
0.00368404
0.00357341
0.00358114
0.00369958
0.00493449
0.0048631
0.00487566
0.00496565
0.00588016
0.00583679
0.0058524
0.00592167
0.00655359
0.00652565
0.00654316
0.00660109
0.00700071
0.00697953
0.00699831
0.0070516
0.00727908
0.00725993
0.00727962
0.00733199
0.00744352
0.00742443
0.00744475
0.00749771
0.00753702
0.00751743
0.00753815
0.00759195
0.00758897
0.00756887
0.00758977
0.00764423
0.0076177
0.00759716
0.00761809
0.00767289
0.00763396
0.007613
0.00763379
0.00768867
0.00764387
0.0076224
0.00764289
0.00769765
0.00765094
0.00762873
0.00764875
0.00770319
0.00765721
0.00763395
0.00765322
0.00770715
0.00766392
0.00763915
0.00765738
0.00771058
0.00767176
0.00764497
0.0076618
0.00771402
0.00768097
0.00765162
0.00766671
0.00771773
0.00769133
0.00765901
0.00767207
0.0077217
0.0077023
0.00766677
0.00767768
0.00772582
0.00771316
0.00767445
0.0076832
0.00772988
0.00772322
0.00768159
0.00768835
0.00773366
0.00773201
0.00768785
0.0076929
0.00773702
0.00773929
0.00769309
0.00769674
0.00773989
0.0077451
0.00769733
0.0076999
0.00774229
0.00774968
0.00770077
0.00770253
0.00774436
0.00775343
0.00770372
0.00770491
0.00774633
0.00775694
0.00770666
0.00770745
0.00774858
0.00776098
0.00771032
0.00771083
0.00775174
0.00776672
0.00771578
0.00771607
0.00775682
0.00777591
0.00772476
0.00772487
0.00776546
0.00779125
0.00773996
0.00773989
0.00778028
0.0078168
0.00776547
0.00776521
0.0078053
0.00785827
0.00780719
0.00780673
0.0078463
0.00792311
0.00787286
0.00787223
0.00791087
0.00801954
0.00797129
0.00797058
0.00800755
0.00815419
0.00810985
0.00810924
0.00814332
0.00832786
0.00829008
0.00828974
0.00831915
0.00853077
0.00850237
0.00850235
0.00852495
0.00874082
0.00872381
0.00872395
0.00873789
0.00892922
0.00892404
0.00892416
0.00892882
0.0013503
0.00264782
0.00365317
0.00434438
0.0047924
0.0050642
0.00521668
0.00529301
0.00532053
0.00531138
0.00526396
0.00516357
0.00498265
0.00468277
0.00422137
0.00356279
0.00268452
0.00155593
0.000211643
0.00276806
0.00374909
0.00458306
0.00521189
0.00564585
0.00592177
0.00608234
0.00616404
0.00619095
0.00617273
0.00610434
0.00596619
0.00572498
0.00533791
0.00476208
0.00396702
0.00293921
0.00166063
0.000216188
0.00411534
0.00480837
0.00544937
0.0059662
0.00634108
0.00658865
0.00673656
0.00681166
0.00683188
0.00680235
0.00671377
0.00654183
0.00624867
0.00578881
0.00512091
0.00422145
0.00308813
0.00171693
0.000218695
0.00524688
0.00573088
0.00619881
0.00659289
0.00688919
0.00709044
0.00721253
0.00727282
0.00728222
0.00724062
0.00713428
0.00693479
0.0066009
0.0060858
0.00535044
0.00437785
0.00317512
0.00174802
0.000220072
0.00612908
0.00646959
0.00679986
0.00708388
0.00730217
0.00745304
0.00754469
0.00758678
0.00758385
0.00753086
0.00741009
0.00718982
0.00682643
0.00627253
0.00549126
0.00447077
0.0032248
0.00176503
0.000220815
0.00676965
0.00701785
0.0072486
0.007446
0.00759857
0.00770445
0.00776752
0.00779197
0.00777738
0.00771466
0.00758292
0.00734795
0.00696453
0.00638504
0.00557436
0.00452416
0.00325244
0.00177416
0.000221207
0.00720365
0.00739743
0.00756226
0.00769807
0.00780137
0.00787197
0.00791174
0.00792141
0.00789708
0.0078267
0.00768707
0.00744223
0.0070459
0.00645038
0.00562174
0.00455392
0.00326741
0.00177895
0.000221409
0.0074798
0.00764444
0.00776894
0.00786451
0.00793407
0.00797957
0.00800218
0.00800067
0.00796892
0.00789291
0.00774786
0.00749664
0.00709232
0.00648717
0.00564799
0.00457007
0.00327534
0.00178141
0.000221511
0.00764641
0.00779684
0.00789834
0.00796939
0.00801748
0.00804642
0.00805735
0.00804803
0.00801101
0.00793108
0.00778244
0.00752724
0.00711812
0.00650735
0.00566217
0.00457864
0.00327945
0.00178265
0.000221561
0.00774279
0.00788682
0.00797592
0.00803289
0.00806809
0.00808676
0.00809022
0.00807575
0.00803521
0.00795267
0.00780173
0.00754411
0.00713217
0.00651821
0.00566969
0.0045831
0.00328154
0.00178326
0.000221586
0.00779684
0.00793816
0.00802084
0.00807005
0.00809789
0.00811048
0.00810939
0.0080917
0.00804892
0.00796471
0.00781233
0.00755325
0.0071397
0.00652395
0.00567362
0.00458539
0.00328259
0.00178356
0.000221598
0.00782657
0.00796671
0.00804614
0.00809123
0.00811501
0.00812414
0.00812037
0.00810075
0.00805659
0.00797134
0.00781809
0.00755816
0.00714369
0.00652695
0.00567563
0.00458655
0.00328311
0.00178371
0.000221604
0.00784282
0.00798237
0.00806013
0.00810305
0.00812463
0.00813185
0.00812657
0.00810582
0.00806083
0.00797496
0.00782119
0.00756076
0.00714578
0.0065285
0.00567666
0.00458713
0.00328337
0.00178378
0.000221607
0.00785181
0.00799093
0.00806779
0.00810956
0.00812997
0.00813614
0.00813002
0.00810862
0.00806316
0.00797692
0.00782285
0.00756213
0.00714686
0.0065293
0.00567718
0.00458742
0.00328349
0.00178381
0.000221608
0.00785705
0.00799572
0.00807201
0.00811313
0.0081329
0.00813851
0.00813191
0.00811016
0.00806442
0.00797798
0.00782373
0.00756285
0.00714742
0.0065297
0.00567744
0.00458756
0.00328355
0.00178383
0.000221608
0.00786043
0.00799856
0.0080744
0.00811512
0.00813452
0.0081398
0.00813295
0.008111
0.0080651
0.00797854
0.00782419
0.00756322
0.00714771
0.00652991
0.00567757
0.00458763
0.00328358
0.00178384
0.000221609
0.00786301
0.00800046
0.00807586
0.00811626
0.00813542
0.00814052
0.00813352
0.00811145
0.00806547
0.00797883
0.00782443
0.00756341
0.00714785
0.00653001
0.00567764
0.00458766
0.00328359
0.00178384
0.000221609
0.00786533
0.00800193
0.00807685
0.00811698
0.00813595
0.00814092
0.00813383
0.0081117
0.00806566
0.00797899
0.00782456
0.00756351
0.00714793
0.00653006
0.00567767
0.00458768
0.0032836
0.00178384
0.000221609
0.00786764
0.00800324
0.00807764
0.00811748
0.00813629
0.00814117
0.00813401
0.00811183
0.00806577
0.00797908
0.00782462
0.00756356
0.00714797
0.00653009
0.00567769
0.00458769
0.0032836
0.00178384
0.000221609
0.00787003
0.0080045
0.00807833
0.00811787
0.00813654
0.00814132
0.00813412
0.00811191
0.00806583
0.00797912
0.00782466
0.00756359
0.00714798
0.0065301
0.00567769
0.00458769
0.00328361
0.00178384
0.000221609
0.00787246
0.00800574
0.00807897
0.00811822
0.00813673
0.00814144
0.00813419
0.00811196
0.00806586
0.00797915
0.00782468
0.0075636
0.007148
0.00653011
0.0056777
0.00458769
0.00328361
0.00178384
0.000221609
0.00787483
0.00800694
0.00807958
0.00811853
0.0081369
0.00814153
0.00813425
0.008112
0.00806589
0.00797917
0.00782469
0.00756361
0.007148
0.00653011
0.0056777
0.00458769
0.00328361
0.00178384
0.000221609
0.00787706
0.00800806
0.00808015
0.00811882
0.00813705
0.00814162
0.0081343
0.00811203
0.00806592
0.00797919
0.0078247
0.00756362
0.00714801
0.00653012
0.0056777
0.00458769
0.00328361
0.00178384
0.000221609
0.00787905
0.00800908
0.00808068
0.00811911
0.00813721
0.00814172
0.00813437
0.00811208
0.00806595
0.00797921
0.00782473
0.00756364
0.00714802
0.00653012
0.00567771
0.0045877
0.00328361
0.00178384
0.000221609
0.00788079
0.00801
0.00808118
0.0081194
0.00813739
0.00814184
0.00813446
0.00811216
0.00806601
0.00797927
0.00782477
0.00756367
0.00714805
0.00653014
0.00567772
0.0045877
0.00328361
0.00178384
0.000221609
0.0078823
0.00801086
0.0080817
0.00811973
0.00813764
0.00814203
0.00813462
0.00811229
0.00806613
0.00797937
0.00782485
0.00756374
0.00714809
0.00653017
0.00567773
0.00458771
0.00328361
0.00178385
0.000221609
0.00788369
0.00801175
0.00808231
0.0081202
0.00813802
0.00814236
0.00813491
0.00811255
0.00806636
0.00797957
0.00782502
0.00756387
0.00714819
0.00653024
0.00567777
0.00458773
0.00328362
0.00178385
0.000221609
0.00788516
0.00801284
0.00808319
0.00812095
0.00813869
0.00814297
0.00813547
0.00811306
0.00806681
0.00797996
0.00782536
0.00756415
0.0071484
0.00653038
0.00567786
0.00458777
0.00328364
0.00178385
0.000221609
0.00788706
0.00801445
0.00808462
0.00812226
0.00813991
0.00814411
0.00813652
0.00811403
0.0080677
0.00798075
0.00782604
0.00756471
0.00714883
0.00653068
0.00567804
0.00458786
0.00328367
0.00178386
0.000221609
0.00788995
0.00801711
0.00808712
0.00812463
0.00814216
0.00814624
0.00813853
0.0081159
0.00806941
0.00798229
0.00782738
0.00756582
0.0071497
0.0065313
0.00567842
0.00458806
0.00328375
0.00178388
0.00022161
0.0078948
0.00802174
0.00809157
0.00812892
0.00814627
0.00815017
0.00814226
0.0081194
0.00807267
0.00798525
0.00782999
0.00756804
0.00715146
0.00653257
0.00567923
0.00458848
0.00328392
0.00178392
0.000221611
0.00790317
0.00802984
0.00809944
0.00813656
0.00815366
0.00815728
0.00814907
0.00812586
0.00807872
0.00799083
0.007835
0.00757235
0.00715496
0.00653517
0.00568093
0.0045894
0.00328429
0.001784
0.000221614
0.00791758
0.00804381
0.00811306
0.00814984
0.00816659
0.00816982
0.00816116
0.00813745
0.00808972
0.00800111
0.00784439
0.00758062
0.00716184
0.00654043
0.00568448
0.00459139
0.00328512
0.00178421
0.000221622
0.00794181
0.00806724
0.00813592
0.00817219
0.00818846
0.00819118
0.00818196
0.00815759
0.00810908
0.00801951
0.00786154
0.0075961
0.00717513
0.00655095
0.00569185
0.00459568
0.00328699
0.00178468
0.000221638
0.00798124
0.00810511
0.0081728
0.00820835
0.008224
0.00822614
0.00821631
0.00819127
0.00814194
0.0080513
0.00789186
0.00762429
0.00720019
0.00657167
0.00570709
0.00460503
0.00329127
0.0017858
0.000221678
0.00804268
0.00816357
0.00822953
0.00826401
0.00827896
0.00828059
0.00827033
0.00824487
0.00819508
0.00810381
0.00794331
0.0076738
0.00724616
0.00661169
0.00573836
0.00462549
0.0033012
0.00178852
0.000221777
0.0081334
0.00824876
0.00831172
0.0083446
0.00835881
0.00836022
0.00835009
0.00832505
0.00827596
0.00818562
0.00802604
0.00775677
0.00732737
0.0066871
0.00580185
0.00467057
0.00332491
0.00179538
0.000222029
0.00825863
0.00836438
0.00842229
0.00845273
0.00846613
0.0084678
0.00845879
0.00843575
0.00838972
0.00830377
0.00815002
0.00788751
0.00746389
0.00682437
0.00592874
0.00477063
0.00338343
0.00181369
0.000222705
0.00841753
0.008508
0.00855792
0.00858457
0.00859684
0.00859922
0.00859249
0.00857353
0.00853405
0.0084582
0.00831936
0.00807734
0.0076785
0.00706223
0.00617552
0.0049931
0.00353384
0.00186681
0.000224667
0.00859924
0.00866802
0.00870642
0.00872739
0.00873767
0.00874063
0.00873682
0.00872367
0.00869436
0.00863559
0.00852446
0.00832504
0.00798658
0.00744528
0.00663126
0.00547842
0.00393521
0.00204051
0.000231048
0.00878255
0.00882444
0.00884816
0.00886142
0.00886831
0.00887091
0.00886953
0.00886252
0.00884543
0.00880941
0.00873878
0.00860797
0.00837871
0.0079975
0.00739281
0.00646087
0.00500604
0.00270824
0.0002566
0.0089429
0.00895619
0.00896382
0.00896815
0.0089705
0.00897152
0.00897133
0.00896938
0.00896419
0.00895276
0.00892966
0.00888579
0.00880715
0.00867308
0.00845354
0.00809455
0.00744176
0.00572685
0.000432987
)
;

boundaryField
{
    leftWall
    {
        type            nutkWallFunction;
        blending        stepwise;
        value           nonuniform List<scalar> 
50
(
0
0
0
0
0
0
0
0
0
0
0
0
0
0
0
0
0
0
0
0
0
0
0
0
0
0
0
5.36008e-05
2.35242e-05
1.99528e-05
2.09431e-05
2.16869e-05
2.21135e-05
2.23475e-05
2.24717e-05
2.25355e-05
2.25673e-05
2.2583e-05
2.25909e-05
2.25956e-05
2.26e-05
2.26073e-05
2.2623e-05
2.26597e-05
2.27488e-05
2.29702e-05
2.35333e-05
2.5022e-05
2.97092e-05
4.92638e-05
)
;
    }
    rightWall
    {
        type            nutkWallFunction;
        blending        stepwise;
        value           nonuniform List<scalar> 
50
(
1.20918e-05
1.81259e-05
2.0667e-05
2.22748e-05
2.33963e-05
2.42177e-05
2.48361e-05
2.53146e-05
2.59134e-05
2.63454e-05
2.65658e-05
2.66786e-05
2.67358e-05
2.67643e-05
2.67783e-05
2.67851e-05
2.67884e-05
2.67899e-05
2.67906e-05
2.67909e-05
2.67911e-05
2.67912e-05
2.67912e-05
2.67912e-05
2.67912e-05
2.67912e-05
2.67912e-05
2.67912e-05
2.67912e-05
2.67912e-05
2.67912e-05
2.67912e-05
2.67912e-05
2.67912e-05
2.67912e-05
2.67912e-05
2.67912e-05
2.67913e-05
2.67913e-05
2.67915e-05
2.67918e-05
2.67926e-05
2.67946e-05
2.67996e-05
2.68122e-05
2.68462e-05
2.69442e-05
2.72548e-05
2.84022e-05
3.41682e-05
)
;
    }
    lowerWall
    {
        type            nutkWallFunction;
        blending        stepwise;
        value           nonuniform List<scalar> 
62
(
0
0
0
0
0
0
0
0
0
0
0
0
2.16739e-05
7.6871e-07
1.15215e-06
2.16413e-06
2.66782e-06
2.86348e-06
2.81548e-06
2.49555e-06
1.7671e-06
2.63129e-07
0
0
1.41716e-05
1.68831e-05
1.86152e-05
1.99726e-05
2.13234e-05
2.33327e-05
2.7944e-05
2.93331e-05
2.61303e-05
2.6119e-05
2.92708e-05
0
1.77826e-05
2.0761e-05
2.26355e-05
2.41073e-05
2.56079e-05
2.78833e-05
3.28863e-05
0
5.46584e-07
2.02226e-06
2.73301e-06
3.08077e-06
3.24546e-06
3.31961e-06
3.35091e-06
3.36226e-06
3.36301e-06
3.35466e-06
3.33244e-06
3.28357e-06
3.18222e-06
2.98099e-06
2.59591e-06
1.86977e-06
4.50237e-07
0
)
;
    }
    atmosphere
    {
        type            calculated;
        value           uniform 0.009;
    }
    defaultFaces
    {
        type            empty;
    }
}


// ************************************************************************* //
