/*--------------------------------*- C++ -*----------------------------------*\
| =========                 |                                                 |
| \\      /  F ield         | OpenFOAM: The Open Source CFD Toolbox           |
|  \\    /   O peration     | Version:  2406                                  |
|   \\  /    A nd           | Website:  www.openfoam.com                      |
|    \\/     M anipulation  |                                                 |
\*---------------------------------------------------------------------------*/
FoamFile
{
    version     2.0;
    format      ascii;
    arch        "LSB;label=32;scalar=64";
    class       volScalarField;
    location    "0.2";
    object      nut;
}
// * * * * * * * * * * * * * * * * * * * * * * * * * * * * * * * * * * * * * //

dimensions      [0 2 -1 0 0 0 0];

internalField   nonuniform List<scalar> 
2268
(
6.36195e-05
6.06141e-05
6.99552e-05
7.52642e-05
7.85417e-05
8.06051e-05
8.18861e-05
8.26569e-05
8.3103e-05
8.33499e-05
8.3478e-05
8.35335e-05
8.35367e-05
8.34854e-05
8.33525e-05
8.30762e-05
8.25431e-05
8.15619e-05
7.98205e-05
7.67912e-05
7.14794e-05
6.1594e-05
4.01279e-05
0.000131654
0.00046294
0.000611695
0.000695122
0.000746671
0.000779202
0.000799483
0.000811771
0.000818952
0.000822973
0.000825085
0.000826014
0.000826083
0.000825262
0.000823133
0.000818745
0.000810344
0.000794957
0.000767654
0.000720008
0.000636128
0.000479141
0.000131014
0.000148196
0.000752417
0.00109135
0.00129733
0.00142987
0.0015156
0.00156998
0.0016034
0.00162319
0.00163442
0.0016404
0.00164307
0.00164332
0.00164109
0.00163527
0.00162337
0.00160081
0.0015599
0.00148811
0.00136498
0.00115532
0.000790982
0.000149992
0.000159506
0.000952942
0.00146511
0.00179673
0.00201813
0.00216502
0.00226011
0.00231964
0.0023555
0.00237619
0.00238738
0.00239248
0.00239307
0.00238911
0.00237872
0.00235768
0.00231832
0.00224794
0.00212626
0.00192122
0.00158136
0.0010211
0.000163353
0.000167775
0.00110218
0.00176589
0.00221776
0.00252938
0.0027412
0.00288114
0.00297039
0.00302512
0.00305723
0.00307488
0.00308309
0.00308427
0.0030784
0.00306291
0.00303182
0.00297447
0.00287344
0.00270139
0.00241602
0.00195191
0.00121164
0.000174483
0.000174061
0.00121787
0.00201308
0.00257704
0.00297725
0.00325549
0.00344293
0.00356464
0.00364056
0.00368584
0.00371113
0.00372314
0.0037252
0.00371744
0.00369661
0.00365518
0.0035798
0.00344897
0.0032295
0.00287058
0.00229384
0.00138697
0.000185829
0.000178943
0.00130957
0.00221839
0.00288513
0.00337039
0.00371482
0.00395114
0.0041072
0.00420614
0.00426606
0.00430004
0.00431654
0.00431984
0.00431036
0.00428431
0.00423286
0.00414046
0.00398251
0.0037216
0.00330093
0.00263049
0.00157032
0.000202104
0.000182783
0.00138312
0.0023896
0.00314932
0.00371476
0.00412376
0.00440919
0.00460067
0.00472391
0.00479962
0.00484319
0.00486479
0.00486977
0.00485889
0.00482806
0.00476748
0.00466007
0.00447923
0.00418546
0.00372007
0.00298812
0.00180802
0.000237186
4.14278e-05
6.3258e-05
7.29871e-05
7.79985e-05
8.0708e-05
8.21636e-05
8.29154e-05
8.32761e-05
8.34186e-05
8.34224e-05
8.32992e-05
8.30021e-05
8.24207e-05
8.13673e-05
7.95511e-05
7.65122e-05
7.14019e-05
6.21745e-05
6.86749e-05
0.000151113
0.000504576
0.000659542
0.000738866
0.00078152
0.000804367
0.000816186
0.000821885
0.000824137
0.000824163
0.000822134
0.000817312
0.000807983
0.000791231
0.000762509
0.000714576
0.000633998
0.000486649
0.000152329
0.000172041
0.000845276
0.00121214
0.00141309
0.00152434
0.00158482
0.00161642
0.00163178
0.00163785
0.0016378
0.00163205
0.00161863
0.00159302
0.00154769
0.00147126
0.00134655
0.00114461
0.000801969
0.000170298
0.000186636
0.0011004
0.00167168
0.0020006
0.00218735
0.00229062
0.00234537
0.00237229
0.00238292
0.00238254
0.00237176
0.00234715
0.00230101
0.00222087
0.00208849
0.00187784
0.00154867
0.00102366
0.000182513
0.000198837
0.00131319
0.00207374
0.00252581
0.00278742
0.00293446
0.0030136
0.00305297
0.00306846
0.00306733
0.00305029
0.00301224
0.00294225
0.002823
0.0026301
0.00233056
0.00187737
0.00119005
0.000191437
0.000211564
0.00150938
0.00244436
0.00300813
0.00333888
0.00352768
0.00363083
0.00368271
0.00370295
0.00370052
0.00367599
0.00362254
0.003526
0.00336456
0.00310865
0.00272037
0.00214974
0.00131974
0.000198224
0.000230247
0.0017132
0.00280547
0.00346184
0.00385129
0.00407715
0.00420243
0.00426608
0.00429059
0.00428615
0.004253
0.00418249
0.00405733
0.00385173
0.00353202
0.00305722
0.00237745
0.00142291
0.000203502
0.00026908
0.00197015
0.00318003
0.00389799
0.00433116
0.00458711
0.00473135
0.0048053
0.00483321
0.00482596
0.00478315
0.00469427
0.00453911
0.00428846
0.00390556
0.00334809
0.00256839
0.00150585
0.000207654
0.000187535
0.00147624
0.00261518
0.00350811
0.00419364
0.00470299
0.00506713
0.00531694
0.00548113
0.00558403
0.00564448
0.00567536
0.00568384
0.00567146
0.00563402
0.00556079
0.00543333
0.00522386
0.00489342
0.00438967
0.00364609
0.00259934
0.00131261
0.000191449
0.00155551
0.00281767
0.00384413
0.0046577
0.00527981
0.00573656
0.00605789
0.00627421
0.00641305
0.00649672
0.0065413
0.00655636
0.00654505
0.00650411
0.00642357
0.00628633
0.00606795
0.00573754
0.00526077
0.00460844
0.00377821
0.00284078
0.000193788
0.00160445
0.00294907
0.00407166
0.00498312
0.00569594
0.00623048
0.00661423
0.00687767
0.00705009
0.00715635
0.00721517
0.00723848
0.00723146
0.00719269
0.00711446
0.00698307
0.00677998
0.00648439
0.00607866
0.0055585
0.00495048
0.00433879
0.00019515
0.00163378
0.00303143
0.00422002
0.0052024
0.00598394
0.00657973
0.00701429
0.00731729
0.00751877
0.00764533
0.0077178
0.00775027
0.00775007
0.00771818
0.00764983
0.00753556
0.00736298
0.00712005
0.00680051
0.00641225
0.00598842
0.0055993
0.000195919
0.0016508
0.00308124
0.00431312
0.00534435
0.0061752
0.00681648
0.00728992
0.00762404
0.00784905
0.00799264
0.00807727
0.00811888
0.0081269
0.0081047
0.00805059
0.00795912
0.00782311
0.00763673
0.00739998
0.00712434
0.0068387
0.00659253
0.00019634
0.00166036
0.00311032
0.00436942
0.00543278
0.00629726
0.00697056
0.00747215
0.00782936
0.00807231
0.00822936
0.00832413
0.00837411
0.00839051
0.00837887
0.0083402
0.00827236
0.00817202
0.00803723
0.00787061
0.00768294
0.00749577
0.00734111
0.000196564
0.00166557
0.00312677
0.00440233
0.00548591
0.00637232
0.0070671
0.00758804
0.00796153
0.00821745
0.00838456
0.00848732
0.00854438
0.00856839
0.00856666
0.00854232
0.0084957
0.00842608
0.00833361
0.00822161
0.00809856
0.00797921
0.0078833
0.000196681
0.00166834
0.0031358
0.00442097
0.00551681
0.00641691
0.00712548
0.00765915
0.00804359
0.00830846
0.00848274
0.00859146
0.00865413
0.00868446
0.0086911
0.0086787
0.00864934
0.00860386
0.00854351
0.00847136
0.00839352
0.0083195
0.00826112
0.00019674
0.00166978
0.00314064
0.00443124
0.00553426
0.00644261
0.00715969
0.0077014
0.0080929
0.00836368
0.00854285
0.00865583
0.00872268
0.00875791
0.00877105
0.00876785
0.00875144
0.00872367
0.00868619
0.00864157
0.008594
0.00854938
0.00851463
0.000196769
0.00167051
0.00314318
0.00443676
0.00554385
0.00645701
0.00717917
0.00772577
0.00812167
0.00839622
0.00857861
0.00869449
0.00876432
0.0088031
0.00882099
0.0088244
0.00881715
0.00880159
0.00877955
0.00875309
0.00872499
0.00869885
0.00867865
0.000196784
0.00167088
0.00314448
0.00443967
0.00554901
0.0064649
0.00718999
0.00773948
0.00813802
0.0084149
0.00859933
0.00871713
0.00878899
0.00883023
0.00885139
0.0088593
0.00885818
0.00885065
0.00883855
0.00882356
0.00880754
0.00879266
0.00878118
0.000196791
0.00167106
0.00314514
0.00444118
0.00555173
0.00646912
0.00719587
0.00774702
0.00814711
0.00842538
0.00861108
0.00873009
0.00880328
0.00884614
0.00886946
0.0088803
0.0088831
0.00888062
0.00887468
0.00886666
0.00885787
0.00884964
0.00884327
0.000196794
0.00167115
0.00314547
0.00444194
0.00555314
0.00647134
0.007199
0.00775108
0.00815206
0.00843115
0.0086176
0.00873737
0.0088114
0.00885529
0.00887997
0.00889264
0.00889786
0.00889845
0.00889617
0.00889226
0.00888767
0.00888326
0.00887979
0.000196796
0.00167119
0.00314563
0.00444233
0.00555385
0.00647249
0.00720064
0.00775323
0.00815471
0.00843427
0.00862117
0.00874139
0.00881593
0.00886046
0.00888597
0.00889974
0.0089064
0.00890878
0.00890864
0.00890707
0.00890485
0.00890256
0.0089007
0.000196797
0.00167121
0.00314571
0.00444252
0.00555422
0.00647307
0.00720148
0.00775435
0.0081561
0.00843592
0.00862308
0.00874357
0.00881841
0.00886332
0.00888933
0.00890375
0.00891124
0.00891465
0.0089157
0.00891543
0.00891451
0.00891339
0.0089124
0.000196797
0.00167122
0.00314575
0.00444261
0.0055544
0.00647337
0.00720192
0.00775493
0.00815683
0.0084368
0.0086241
0.00874474
0.00881976
0.00886489
0.00889118
0.00890597
0.00891393
0.0089179
0.00891961
0.00892005
0.00891983
0.00891934
0.00891881
0.000196797
0.00167122
0.00314576
0.00444266
0.00555448
0.00647351
0.00720213
0.00775522
0.0081572
0.00843725
0.00862463
0.00874536
0.00882048
0.00886574
0.00889219
0.00890718
0.0089154
0.00891968
0.00892174
0.00892256
0.00892271
0.00892254
0.00892225
0.000196797
0.00167123
0.00314577
0.00444268
0.00555453
0.00647359
0.00720224
0.00775537
0.00815739
0.00843748
0.00862491
0.00874569
0.00882086
0.00886619
0.00889273
0.00890784
0.00891619
0.00892064
0.00892288
0.0089239
0.00892424
0.00892423
0.00892407
0.000196797
0.00167123
0.00314578
0.00444269
0.00555455
0.00647362
0.00720229
0.00775544
0.00815749
0.0084376
0.00862505
0.00874585
0.00882106
0.00886643
0.00889301
0.00890818
0.00891661
0.00892114
0.00892348
0.0089246
0.00892504
0.00892511
0.00892501
0.000196797
0.00167123
0.00314578
0.00444269
0.00555456
0.00647364
0.00720232
0.00775548
0.00815753
0.00843766
0.00862512
0.00874594
0.00882117
0.00886655
0.00889316
0.00890836
0.00891682
0.00892141
0.0089238
0.00892496
0.00892545
0.00892557
0.0089255
0.000196797
0.00167123
0.00314578
0.0044427
0.00555456
0.00647365
0.00720233
0.0077555
0.00815756
0.00843769
0.00862516
0.00874599
0.00882122
0.00886661
0.00889324
0.00890846
0.00891694
0.00892154
0.00892396
0.00892515
0.00892566
0.0089258
0.00892574
0.000196797
0.00167123
0.00314578
0.0044427
0.00555457
0.00647365
0.00720234
0.0077555
0.00815757
0.0084377
0.00862517
0.00874601
0.00882125
0.00886665
0.00889328
0.0089085
0.00891699
0.00892161
0.00892404
0.00892524
0.00892577
0.00892592
0.00892586
0.000196797
0.00167123
0.00314578
0.0044427
0.00555457
0.00647365
0.00720234
0.00775551
0.00815757
0.00843771
0.00862518
0.00874602
0.00882126
0.00886666
0.0088933
0.00890853
0.00891702
0.00892165
0.00892408
0.00892529
0.00892582
0.00892597
0.00892593
0.000196797
0.00167123
0.00314578
0.0044427
0.00555457
0.00647365
0.00720234
0.00775551
0.00815758
0.00843771
0.00862519
0.00874602
0.00882127
0.00886667
0.00889331
0.00890854
0.00891704
0.00892166
0.0089241
0.00892531
0.00892585
0.008926
0.00892596
0.000196797
0.00167123
0.00314578
0.0044427
0.00555457
0.00647365
0.00720235
0.00775551
0.00815758
0.00843771
0.00862519
0.00874603
0.00882127
0.00886668
0.00889331
0.00890855
0.00891705
0.00892167
0.00892411
0.00892532
0.00892586
0.00892602
0.00892597
0.000196797
0.00167123
0.00314578
0.0044427
0.00555457
0.00647365
0.00720235
0.00775551
0.00815758
0.00843772
0.00862519
0.00874603
0.00882127
0.00886668
0.00889332
0.00890855
0.00891705
0.00892168
0.00892411
0.00892533
0.00892586
0.00892602
0.00892598
0.000196797
0.00167123
0.00314578
0.0044427
0.00555457
0.00647365
0.00720235
0.00775551
0.00815758
0.00843772
0.00862519
0.00874603
0.00882127
0.00886668
0.00889332
0.00890855
0.00891705
0.00892168
0.00892412
0.00892533
0.00892587
0.00892603
0.00892598
0.000196797
0.00167123
0.00314578
0.0044427
0.00555457
0.00647365
0.00720235
0.00775551
0.00815758
0.00843772
0.00862519
0.00874603
0.00882127
0.00886668
0.00889332
0.00890855
0.00891705
0.00892168
0.00892412
0.00892533
0.00892587
0.00892603
0.00892598
0.000196797
0.00167123
0.00314578
0.0044427
0.00555457
0.00647365
0.00720235
0.00775551
0.00815758
0.00843772
0.00862519
0.00874603
0.00882127
0.00886668
0.00889332
0.00890855
0.00891705
0.00892168
0.00892412
0.00892533
0.00892587
0.00892603
0.00892598
0.000196797
0.00167123
0.00314578
0.0044427
0.00555457
0.00647365
0.00720235
0.00775551
0.00815758
0.00843772
0.00862519
0.00874603
0.00882127
0.00886668
0.00889332
0.00890855
0.00891705
0.00892168
0.00892412
0.00892533
0.00892587
0.00892603
0.00892598
0.000196797
0.00167123
0.00314578
0.0044427
0.00555457
0.00647365
0.00720235
0.00775551
0.00815758
0.00843772
0.00862519
0.00874603
0.00882127
0.00886668
0.00889332
0.00890855
0.00891705
0.00892168
0.00892412
0.00892533
0.00892587
0.00892603
0.00892599
0.000196797
0.00167123
0.00314578
0.0044427
0.00555457
0.00647365
0.00720235
0.00775551
0.00815758
0.00843772
0.00862519
0.00874603
0.00882127
0.00886668
0.00889332
0.00890855
0.00891705
0.00892168
0.00892412
0.00892533
0.00892587
0.00892603
0.00892599
0.000196797
0.00167123
0.00314578
0.0044427
0.00555457
0.00647365
0.00720235
0.00775551
0.00815758
0.00843772
0.00862519
0.00874603
0.00882127
0.00886668
0.00889332
0.00890855
0.00891705
0.00892168
0.00892412
0.00892533
0.00892587
0.00892603
0.00892599
0.000196797
0.00167123
0.00314578
0.0044427
0.00555457
0.00647365
0.00720235
0.00775551
0.00815758
0.00843772
0.00862519
0.00874603
0.00882127
0.00886668
0.00889332
0.00890855
0.00891705
0.00892168
0.00892412
0.00892534
0.00892587
0.00892603
0.00892599
0.000196797
0.00167123
0.00314578
0.0044427
0.00555457
0.00647365
0.00720235
0.00775551
0.00815758
0.00843772
0.00862519
0.00874603
0.00882127
0.00886668
0.00889332
0.00890855
0.00891705
0.00892168
0.00892412
0.00892534
0.00892587
0.00892603
0.00892599
0.000196797
0.00167123
0.00314578
0.0044427
0.00555457
0.00647365
0.00720235
0.00775551
0.00815758
0.00843772
0.00862519
0.00874603
0.00882127
0.00886668
0.00889332
0.00890855
0.00891706
0.00892168
0.00892412
0.00892534
0.00892588
0.00892604
0.008926
0.000196797
0.00167123
0.00314578
0.0044427
0.00555457
0.00647365
0.00720235
0.00775551
0.00815758
0.00843772
0.00862519
0.00874603
0.00882127
0.00886668
0.00889332
0.00890855
0.00891706
0.00892168
0.00892412
0.00892534
0.00892588
0.00892604
0.008926
0.000196797
0.00167123
0.00314578
0.0044427
0.00555457
0.00647365
0.00720235
0.00775551
0.00815758
0.00843772
0.00862519
0.00874603
0.00882127
0.00886668
0.00889332
0.00890856
0.00891706
0.00892169
0.00892413
0.00892535
0.00892589
0.00892605
0.00892601
0.000196797
0.00167123
0.00314578
0.0044427
0.00555457
0.00647365
0.00720235
0.00775551
0.00815758
0.00843772
0.00862519
0.00874603
0.00882128
0.00886668
0.00889332
0.00890856
0.00891706
0.00892169
0.00892413
0.00892535
0.00892589
0.00892606
0.00892603
0.000196797
0.00167123
0.00314578
0.0044427
0.00555457
0.00647365
0.00720235
0.00775551
0.00815758
0.00843772
0.0086252
0.00874603
0.00882128
0.00886668
0.00889332
0.00890856
0.00891706
0.00892169
0.00892413
0.00892536
0.0089259
0.00892607
0.00892604
0.000196797
0.00167123
0.00314578
0.0044427
0.00555457
0.00647365
0.00720235
0.00775551
0.00815758
0.00843772
0.0086252
0.00874603
0.00882128
0.00886669
0.00889333
0.00890856
0.00891706
0.00892169
0.00892414
0.00892536
0.00892591
0.00892608
0.00892606
0.000196797
0.00167123
0.00314578
0.0044427
0.00555457
0.00647365
0.00720235
0.00775551
0.00815758
0.00843772
0.0086252
0.00874603
0.00882128
0.00886669
0.00889333
0.00890856
0.00891706
0.00892169
0.00892414
0.00892536
0.00892591
0.00892609
0.00892607
0.000249699
0.000227554
0.000227365
0.000248785
0.0021745
0.0020663
0.00206614
0.00217328
0.0040119
0.00391421
0.00391382
0.00401053
0.00542009
0.00536065
0.00536021
0.00541872
0.00648735
0.00645211
0.0064517
0.00648608
0.0072776
0.00725639
0.00725604
0.00727656
0.00784478
0.00783194
0.00783167
0.00784398
0.00823796
0.00823025
0.00823005
0.00823736
0.00850093
0.00849636
0.00849621
0.00850047
0.0086707
0.00866804
0.00866792
0.00867034
0.00877666
0.00877512
0.00877502
0.00877635
0.00884073
0.00883985
0.00883976
0.00884045
0.00887837
0.00887786
0.00887777
0.00887811
0.0088999
0.00889959
0.00889952
0.00889965
0.00891193
0.00891174
0.00891166
0.00891169
0.00891852
0.00891838
0.0089183
0.00891828
0.00892205
0.00892194
0.00892186
0.00892181
0.00892391
0.00892382
0.00892374
0.00892368
0.00892488
0.0089248
0.00892472
0.00892465
0.00892538
0.0089253
0.00892522
0.00892514
0.00892563
0.00892555
0.00892547
0.00892539
0.00892576
0.00892568
0.0089256
0.00892552
0.00892582
0.00892574
0.00892566
0.00892558
0.00892585
0.00892577
0.0089257
0.00892561
0.00892586
0.00892579
0.00892571
0.00892563
0.00892587
0.00892579
0.00892572
0.00892564
0.00892587
0.0089258
0.00892572
0.00892564
0.00892588
0.0089258
0.00892572
0.00892564
0.00892588
0.0089258
0.00892572
0.00892564
0.00892588
0.0089258
0.00892572
0.00892564
0.00892588
0.0089258
0.00892573
0.00892564
0.00892588
0.0089258
0.00892573
0.00892564
0.00892588
0.0089258
0.00892573
0.00892565
0.00892588
0.0089258
0.00892573
0.00892565
0.00892588
0.00892581
0.00892573
0.00892565
0.00892589
0.00892581
0.00892574
0.00892566
0.0089259
0.00892582
0.00892575
0.00892566
0.00892591
0.00892583
0.00892576
0.00892568
0.00892592
0.00892585
0.00892578
0.00892569
0.00892594
0.00892587
0.0089258
0.00892571
0.00892596
0.00892589
0.00892582
0.00892573
0.00892597
0.0089259
0.00892583
0.00892575
0.00137353
0.00275251
0.00384243
0.00458216
0.00505677
0.00534789
0.00551631
0.0056037
0.00563528
0.00562194
0.00556185
0.00544135
0.00523595
0.00491189
0.00442926
0.00374613
0.00282145
0.00161109
0.000212792
0.00288408
0.00390236
0.00478115
0.00544248
0.00589985
0.0061954
0.00637232
0.00646473
0.00649421
0.00646899
0.00638403
0.00622164
0.00595281
0.00554016
0.00494282
0.00412291
0.00305036
0.00170087
0.000217017
0.004361
0.00503926
0.00569508
0.00623222
0.00662808
0.0068959
0.00706066
0.00714578
0.00716635
0.00712601
0.00701569
0.00681383
0.00648803
0.0059991
0.00530745
0.00438085
0.00320006
0.00175639
0.000219539
0.00561001
0.00604795
0.00651262
0.00692
0.00723615
0.00745805
0.00759678
0.00766554
0.00767221
0.00761508
0.00748084
0.0072444
0.00687092
0.00632059
0.00555603
0.00455078
0.0032946
0.00178975
0.000221006
0.00659772
0.00687721
0.00719416
0.00748691
0.00772339
0.0078938
0.00800031
0.00804807
0.00803843
0.00796462
0.00780934
0.0075445
0.00713352
0.00653662
0.0057188
0.00465848
0.00335216
0.00180915
0.000221834
0.00734364
0.00751999
0.00772926
0.00793012
0.00809714
0.00821916
0.00829351
0.00831965
0.00829378
0.00820485
0.00803219
0.00774533
0.00730646
0.00667609
0.00582131
0.00472425
0.00338601
0.00182007
0.000222288
0.00788447
0.00799395
0.00812787
0.00825987
0.00837163
0.00845305
0.00849918
0.00850587
0.00846558
0.00836397
0.00817778
0.00787471
0.00741612
0.00676284
0.00588356
0.00476303
0.00340528
0.00182605
0.00022253
0.00826156
0.00832807
0.00841105
0.0084942
0.00856495
0.00861502
0.00863861
0.00862942
0.0085774
0.00846586
0.00826965
0.0079552
0.00748326
0.00681498
0.00592014
0.0047852
0.00341594
0.00182923
0.000222656
0.00851466
0.00855403
0.00860371
0.00865378
0.00869583
0.00872325
0.00873011
0.00870891
0.00864799
0.00852912
0.00832584
0.0080037
0.0075231
0.00684537
0.00594101
0.00479752
0.00342168
0.00183089
0.00022272
0.00867844
0.00870107
0.0087297
0.00875831
0.00878123
0.00879319
0.00878837
0.00875862
0.00869135
0.00856732
0.00835926
0.00803213
0.00754609
0.0068626
0.00595261
0.00480421
0.00342471
0.00183173
0.000222752
0.00878084
0.0087934
0.00880915
0.00882438
0.00883511
0.00883701
0.00882442
0.00878891
0.00871732
0.00858984
0.00837866
0.00804838
0.00755904
0.00687214
0.0059589
0.00480776
0.00342628
0.00183216
0.000222768
0.00884285
0.00884952
0.00885764
0.0088648
0.00886807
0.00886368
0.00884616
0.00880693
0.00873254
0.00860282
0.00838967
0.00805748
0.00756617
0.00687731
0.00596226
0.00480961
0.00342707
0.00183237
0.000222776
0.00887932
0.00888264
0.00888637
0.00888883
0.00888767
0.0088795
0.00885896
0.00881743
0.00874128
0.00861016
0.0083958
0.00806247
0.00757003
0.00688007
0.00596401
0.00481056
0.00342747
0.00183247
0.000222779
0.00890021
0.00890167
0.00890295
0.00890274
0.00889904
0.00888866
0.00886634
0.00882342
0.00874621
0.00861425
0.00839917
0.00806516
0.00757208
0.00688151
0.00596492
0.00481104
0.00342767
0.00183252
0.000222781
0.0089119
0.00891235
0.00891228
0.0089106
0.00890548
0.00889386
0.0088705
0.00882678
0.00874894
0.00861648
0.00840098
0.0080666
0.00757316
0.00688226
0.00596538
0.00481128
0.00342777
0.00183254
0.000222782
0.0089183
0.00891821
0.00891742
0.00891495
0.00890906
0.00889674
0.00887281
0.00882863
0.00875043
0.00861769
0.00840195
0.00806735
0.00757372
0.00688264
0.00596561
0.0048114
0.00342782
0.00183256
0.000222782
0.00892173
0.00892137
0.00892021
0.00891731
0.00891101
0.00889832
0.00887407
0.00882963
0.00875124
0.00861833
0.00840246
0.00806775
0.00757401
0.00688284
0.00596573
0.00481146
0.00342784
0.00183256
0.000222783
0.00892355
0.00892304
0.00892169
0.00891857
0.00891205
0.00889916
0.00887475
0.00883017
0.00875167
0.00861867
0.00840273
0.00806795
0.00757415
0.00688293
0.00596578
0.00481149
0.00342785
0.00183256
0.000222783
0.00892449
0.00892391
0.00892246
0.00891924
0.0089126
0.00889961
0.00887511
0.00883046
0.00875189
0.00861885
0.00840286
0.00806805
0.00757423
0.00688298
0.00596581
0.0048115
0.00342786
0.00183257
0.000222783
0.00892498
0.00892436
0.00892286
0.00891958
0.00891289
0.00889984
0.0088753
0.00883061
0.00875201
0.00861894
0.00840293
0.0080681
0.00757426
0.006883
0.00596582
0.00481151
0.00342786
0.00183257
0.000222783
0.00892522
0.00892459
0.00892307
0.00891976
0.00891304
0.00889996
0.00887539
0.00883068
0.00875207
0.00861899
0.00840297
0.00806813
0.00757428
0.00688302
0.00596583
0.00481151
0.00342786
0.00183257
0.000222783
0.00892535
0.00892471
0.00892317
0.00891985
0.00891311
0.00890003
0.00887544
0.00883072
0.0087521
0.00861901
0.00840299
0.00806814
0.00757429
0.00688302
0.00596583
0.00481151
0.00342786
0.00183257
0.000222783
0.00892541
0.00892476
0.00892322
0.00891989
0.00891315
0.00890006
0.00887547
0.00883074
0.00875212
0.00861902
0.008403
0.00806815
0.0075743
0.00688303
0.00596584
0.00481152
0.00342786
0.00183257
0.000222783
0.00892544
0.00892479
0.00892324
0.00891991
0.00891317
0.00890007
0.00887548
0.00883075
0.00875212
0.00861903
0.008403
0.00806815
0.0075743
0.00688303
0.00596584
0.00481152
0.00342786
0.00183257
0.000222783
0.00892545
0.0089248
0.00892326
0.00891992
0.00891318
0.00890008
0.00887549
0.00883076
0.00875213
0.00861903
0.008403
0.00806816
0.0075743
0.00688303
0.00596584
0.00481152
0.00342786
0.00183257
0.000222783
0.00892546
0.00892481
0.00892326
0.00891993
0.00891318
0.00890008
0.00887549
0.00883076
0.00875213
0.00861903
0.008403
0.00806816
0.0075743
0.00688303
0.00596584
0.00481152
0.00342786
0.00183257
0.000222783
0.00892546
0.00892481
0.00892327
0.00891993
0.00891318
0.00890009
0.00887549
0.00883076
0.00875213
0.00861903
0.008403
0.00806816
0.0075743
0.00688303
0.00596584
0.00481152
0.00342786
0.00183257
0.000222783
0.00892546
0.00892482
0.00892327
0.00891993
0.00891318
0.00890009
0.00887549
0.00883076
0.00875213
0.00861904
0.008403
0.00806816
0.0075743
0.00688303
0.00596584
0.00481152
0.00342786
0.00183257
0.000222783
0.00892547
0.00892482
0.00892327
0.00891993
0.00891319
0.00890009
0.00887549
0.00883076
0.00875213
0.00861904
0.00840301
0.00806816
0.0075743
0.00688303
0.00596584
0.00481152
0.00342786
0.00183257
0.000222783
0.00892547
0.00892482
0.00892327
0.00891993
0.00891319
0.00890009
0.00887549
0.00883076
0.00875213
0.00861904
0.00840301
0.00806816
0.0075743
0.00688303
0.00596584
0.00481152
0.00342786
0.00183257
0.000222783
0.00892547
0.00892482
0.00892327
0.00891993
0.00891319
0.00890009
0.00887549
0.00883076
0.00875213
0.00861904
0.00840301
0.00806816
0.0075743
0.00688303
0.00596584
0.00481152
0.00342786
0.00183257
0.000222783
0.00892547
0.00892482
0.00892327
0.00891993
0.00891319
0.00890009
0.00887549
0.00883076
0.00875213
0.00861904
0.00840301
0.00806816
0.0075743
0.00688303
0.00596584
0.00481152
0.00342786
0.00183257
0.000222783
0.00892547
0.00892482
0.00892327
0.00891993
0.00891319
0.00890009
0.00887549
0.00883076
0.00875213
0.00861904
0.00840301
0.00806816
0.0075743
0.00688303
0.00596584
0.00481152
0.00342786
0.00183257
0.000222783
0.00892547
0.00892482
0.00892327
0.00891994
0.00891319
0.00890009
0.00887549
0.00883076
0.00875213
0.00861904
0.00840301
0.00806816
0.0075743
0.00688303
0.00596584
0.00481152
0.00342786
0.00183257
0.000222783
0.00892547
0.00892482
0.00892327
0.00891994
0.00891319
0.00890009
0.00887549
0.00883076
0.00875213
0.00861904
0.00840301
0.00806816
0.0075743
0.00688303
0.00596584
0.00481152
0.00342786
0.00183257
0.000222783
0.00892548
0.00892483
0.00892328
0.00891994
0.00891319
0.00890009
0.0088755
0.00883076
0.00875213
0.00861904
0.00840301
0.00806816
0.0075743
0.00688303
0.00596584
0.00481152
0.00342786
0.00183257
0.000222783
0.00892549
0.00892483
0.00892328
0.00891994
0.00891319
0.00890009
0.0088755
0.00883076
0.00875213
0.00861904
0.00840301
0.00806816
0.0075743
0.00688303
0.00596584
0.00481152
0.00342786
0.00183257
0.000222783
0.0089255
0.00892484
0.00892329
0.00891995
0.0089132
0.00890009
0.0088755
0.00883076
0.00875213
0.00861904
0.00840301
0.00806816
0.0075743
0.00688303
0.00596584
0.00481152
0.00342786
0.00183257
0.000222783
0.00892551
0.00892485
0.0089233
0.00891995
0.0089132
0.0089001
0.0088755
0.00883076
0.00875213
0.00861904
0.00840301
0.00806816
0.0075743
0.00688303
0.00596584
0.00481152
0.00342786
0.00183257
0.000222783
0.00892553
0.00892487
0.00892331
0.00891996
0.0089132
0.0089001
0.0088755
0.00883077
0.00875213
0.00861904
0.00840301
0.00806816
0.0075743
0.00688303
0.00596584
0.00481152
0.00342786
0.00183257
0.000222783
0.00892555
0.00892488
0.00892331
0.00891996
0.00891321
0.0089001
0.0088755
0.00883077
0.00875213
0.00861904
0.00840301
0.00806816
0.0075743
0.00688303
0.00596584
0.00481152
0.00342786
0.00183257
0.000222783
0.00892556
0.00892489
0.00892332
0.00891997
0.00891321
0.0089001
0.0088755
0.00883077
0.00875213
0.00861904
0.00840301
0.00806816
0.0075743
0.00688303
0.00596584
0.00481152
0.00342786
0.00183257
0.000222783
)
;

boundaryField
{
    leftWall
    {
        type            nutkWallFunction;
        blending        stepwise;
        value           nonuniform List<scalar> 
50
(
9.10987e-06
1.44411e-05
1.684e-05
1.83879e-05
1.94721e-05
2.02617e-05
2.0848e-05
2.12878e-05
2.18065e-05
2.21962e-05
2.24099e-05
2.25249e-05
2.25856e-05
2.26168e-05
2.26325e-05
2.26403e-05
2.26441e-05
2.2646e-05
2.26468e-05
2.26472e-05
2.26474e-05
2.26475e-05
2.26476e-05
2.26476e-05
2.26476e-05
2.26476e-05
2.26476e-05
2.26476e-05
2.26476e-05
2.26476e-05
2.26476e-05
2.26476e-05
2.26476e-05
2.26476e-05
2.26476e-05
2.26476e-05
2.26476e-05
2.26476e-05
2.26476e-05
2.26476e-05
2.26476e-05
2.26476e-05
2.26476e-05
2.26476e-05
2.26476e-05
2.26476e-05
2.26476e-05
2.26476e-05
2.26476e-05
2.26476e-05
)
;
    }
    rightWall
    {
        type            nutkWallFunction;
        blending        stepwise;
        value           nonuniform List<scalar> 
50
(
1.20953e-05
1.81479e-05
2.07223e-05
2.23604e-05
2.35032e-05
2.43363e-05
2.49559e-05
2.54215e-05
2.5971e-05
2.6384e-05
2.66106e-05
2.67327e-05
2.67971e-05
2.68303e-05
2.68471e-05
2.68554e-05
2.68595e-05
2.68615e-05
2.68624e-05
2.68628e-05
2.68631e-05
2.68631e-05
2.68632e-05
2.68632e-05
2.68632e-05
2.68632e-05
2.68632e-05
2.68632e-05
2.68632e-05
2.68632e-05
2.68632e-05
2.68632e-05
2.68632e-05
2.68632e-05
2.68632e-05
2.68632e-05
2.68632e-05
2.68632e-05
2.68632e-05
2.68632e-05
2.68632e-05
2.68632e-05
2.68632e-05
2.68632e-05
2.68632e-05
2.68632e-05
2.68632e-05
2.68632e-05
2.68632e-05
2.68632e-05
)
;
    }
    lowerWall
    {
        type            nutkWallFunction;
        blending        stepwise;
        value           nonuniform List<scalar> 
62
(
0
2.30155e-07
1.71287e-06
2.49315e-06
2.92922e-06
3.17671e-06
3.31569e-06
3.39198e-06
3.43268e-06
3.45371e-06
3.46402e-06
3.46826e-06
3.46835e-06
3.46399e-06
3.45237e-06
3.42668e-06
3.37304e-06
3.26492e-06
3.05323e-06
2.64711e-06
1.86905e-06
3.16576e-07
0
0
1.42075e-05
1.69678e-05
1.8748e-05
2.01458e-05
2.15272e-05
2.35542e-05
2.81804e-05
2.95573e-05
2.6357e-05
2.63315e-05
2.94314e-05
0
1.78085e-05
2.0825e-05
2.27352e-05
2.42318e-05
2.57428e-05
2.80115e-05
3.29985e-05
0
5.87459e-07
2.09359e-06
2.81107e-06
3.16226e-06
3.33182e-06
3.41094e-06
3.44581e-06
3.45892e-06
3.45969e-06
3.44961e-06
3.4237e-06
3.36899e-06
3.26032e-06
3.05225e-06
2.66273e-06
1.93129e-06
4.89416e-07
0
)
;
    }
    atmosphere
    {
        type            calculated;
        value           nonuniform List<scalar> 
46
(
0.000196797
0.00167123
0.00314578
0.0044427
0.00555457
0.00647365
0.00720235
0.00775551
0.00815758
0.00843772
0.0086252
0.00874603
0.00882128
0.00886669
0.00889333
0.00890856
0.00891706
0.00892169
0.00892414
0.00892536
0.00892591
0.00892609
0.00892607
0.00892597
0.0089259
0.00892583
0.00892575
0.00892556
0.00892489
0.00892332
0.00891997
0.00891321
0.0089001
0.0088755
0.00883077
0.00875213
0.00861904
0.00840301
0.00806816
0.0075743
0.00688303
0.00596584
0.00481152
0.00342786
0.00183257
0.000222783
)
;
    }
    defaultFaces
    {
        type            empty;
    }
}


// ************************************************************************* //
