/*--------------------------------*- C++ -*----------------------------------*\
| =========                 |                                                 |
| \\      /  F ield         | OpenFOAM: The Open Source CFD Toolbox           |
|  \\    /   O peration     | Version:  2406                                  |
|   \\  /    A nd           | Website:  www.openfoam.com                      |
|    \\/     M anipulation  |                                                 |
\*---------------------------------------------------------------------------*/
FoamFile
{
    version     2.0;
    format      ascii;
    arch        "LSB;label=32;scalar=64";
    class       surfaceScalarField;
    location    "0.2";
    object      phi;
}
// * * * * * * * * * * * * * * * * * * * * * * * * * * * * * * * * * * * * * //

dimensions      [0 3 -1 0 0 0 0];

oriented        oriented;

internalField   nonuniform List<scalar> 
4432
(
-7.64772e-305
-4.49146e-305
-1.60703e-304
-2.11354e-304
-2.67242e-304
-3.2085e-304
-4.07895e-304
-3.95603e-304
-5.95297e-304
-4.11937e-304
-8.40678e-304
-3.05633e-304
-1.15122e-303
4.1859e-305
-1.52373e-303
8.34505e-304
-1.92709e-303
2.4133e-303
-2.22756e-303
5.37257e-303
-1.74882e-303
1.08545e-302
2.85088e-303
2.13698e-302
4.20015e-303
4.32864e-302
-3.11462e-303
8.21198e-303
-1.83311e-303
-1.85698e-304
-7.49587e-304
-8.29669e-304
-3.14138e-304
-5.09252e-304
-1.356e-304
-2.34802e-304
-5.88417e-305
-8.76136e-305
-2.45116e-305
-2.28236e-305
-8.98295e-306
2.96711e-307
-2.29617e-306
4.90096e-306
2.25308e-306
-2.4352e-304
-8.29913e-305
-5.07043e-304
-3.86431e-304
-8.35663e-304
-5.90045e-304
-1.26706e-303
-7.16363e-304
-1.83732e-303
-7.14685e-304
-2.57772e-303
-4.57893e-304
-3.50624e-303
2.88248e-304
-4.60894e-303
1.91803e-303
-5.79652e-303
5.08407e-303
-6.78423e-303
1.08781e-302
-6.55766e-303
2.12685e-302
-6.26468e-303
4.04015e-302
3.25433e-304
7.19632e-302
-5.69568e-303
1.24656e-302
-3.04527e-303
6.50911e-304
-1.42427e-303
-6.80381e-304
-6.59685e-304
-5.19061e-304
-3.06528e-304
-2.56372e-304
-1.41612e-304
-9.46672e-305
-6.32337e-305
-1.8903e-305
-2.56458e-305
8.53962e-306
-7.75505e-306
1.29294e-305
6.66813e-306
-4.22818e-304
-1.26049e-304
-8.83686e-304
-5.59079e-304
-1.45545e-303
-8.50454e-304
-2.20293e-303
-1.01562e-303
-3.18876e-303
-9.75351e-304
-4.46891e-303
-5.38886e-304
-6.08045e-303
6.37693e-304
-8.01635e-303
3.1292e-303
-1.01742e-302
7.86753e-303
-1.22513e-302
1.63772e-302
-1.32473e-302
3.12604e-302
-1.77097e-302
5.7408e-302
-4.42215e-303
9.64858e-302
-7.65711e-303
1.58185e-302
-3.97284e-303
1.5073e-303
-1.9688e-303
-4.3343e-304
-9.64976e-304
-4.60327e-304
-4.70992e-304
-2.43005e-304
-2.27633e-304
-8.6196e-305
-1.06764e-304
-8.29759e-306
-4.62928e-305
2.02111e-305
-1.55851e-305
2.36982e-305
1.36768e-305
-6.28586e-304
-1.71745e-304
-1.31684e-303
-7.39013e-304
-2.16556e-303
-1.11507e-303
-3.26864e-303
-1.30727e-303
-4.7181e-303
-1.20521e-303
-6.59897e-303
-5.55803e-304
-8.97507e-303
1.09164e-303
-1.18611e-302
4.47682e-303
-1.5173e-302
1.0783e-302
-1.86487e-302
2.18953e-302
-2.13696e-302
4.08876e-302
-3.06822e-302
7.29156e-302
-9.94913e-303
1.17694e-301
-9.73797e-303
1.92482e-302
-4.9316e-303
2.39532e-303
-2.51741e-303
-1.48929e-304
-1.28362e-303
-3.68687e-304
-6.52162e-304
-2.10124e-304
-3.28107e-304
-6.77289e-305
-1.60924e-304
7.48609e-306
-7.40184e-305
3.51465e-305
-2.72583e-305
3.7465e-305
2.4077e-305
-8.74969e-304
-2.21162e-304
-1.83373e-303
-9.34863e-304
-3.00696e-303
-1.39627e-303
-4.5197e-303
-1.60445e-303
-6.49604e-303
-1.41651e-303
-9.05374e-303
-5.16038e-304
-1.22893e-302
1.6483e-303
-1.62497e-302
5.96895e-303
-2.0886e-302
1.3846e-302
-2.59909e-302
2.74637e-302
-3.06781e-302
5.0243e-302
-4.4769e-302
8.74718e-302
-1.61542e-302
1.37591e-301
-1.20853e-302
2.28049e-302
-6.00477e-303
3.30844e-303
-3.12076e-303
1.54713e-304
-1.6401e-303
-2.58102e-304
-8.62324e-304
-1.64401e-304
-4.49972e-304
-4.21194e-305
-2.30059e-304
2.70203e-305
-1.11748e-304
5.22792e-305
-4.45669e-305
5.33354e-305
3.81289e-305
-1.17681e-303
-2.76536e-304
-2.46359e-303
-1.15407e-303
-4.02358e-303
-1.70474e-303
-6.01516e-303
-1.91935e-303
-8.5967e-303
-1.61951e-303
-1.19215e-302
-4.26078e-304
-1.61229e-302
2.30941e-303
-2.12864e-302
7.6159e-303
-2.74064e-302
1.70804e-302
-3.43291e-302
3.31226e-302
-4.11412e-302
5.9427e-302
-5.99388e-302
1.01485e-301
-2.30694e-302
1.57581e-301
-1.47502e-302
2.6498e-302
-7.23293e-303
4.2606e-303
-3.81212e-303
4.78768e-304
-2.05465e-303
-1.31735e-304
-1.11336e-303
-1.08642e-304
-6.00592e-304
-1.13513e-305
-3.191e-304
4.85605e-305
-1.63173e-304
6.95603e-305
-7.03391e-305
6.86202e-305
5.32175e-305
-1.55019e-303
-3.42227e-304
-3.23834e-303
-1.40318e-303
-5.26333e-303
-2.05153e-303
-7.8187e-303
-2.2646e-303
-1.10991e-302
-1.82598e-303
-1.52951e-302
-2.9235e-304
-2.05788e-302
3.07619e-303
-2.7078e-302
9.43204e-303
-3.48355e-302
2.05163e-302
-4.37527e-302
3.89286e-302
-5.28783e-302
6.85419e-302
-7.64164e-302
1.15123e-301
-3.0845e-302
1.77758e-301
-1.77642e-302
3.02378e-302
-8.66183e-303
5.27655e-303
-4.63018e-303
8.36313e-304
-2.55328e-303
1.21742e-305
-1.42172e-303
-4.46296e-305
-7.90445e-304
2.20005e-305
-4.34936e-304
6.92815e-305
-2.33364e-304
8.34359e-305
-1.09581e-304
7.72697e-305
5.47847e-305
-2.01264e-303
-4.23055e-304
-4.19321e-303
-1.68315e-303
-6.77872e-303
-2.44106e-303
-9.99964e-303
-2.64878e-303
-1.40881e-302
-2.04804e-303
-1.92726e-302
-1.30416e-304
-2.57647e-302
3.92898e-303
-3.37355e-302
1.13933e-302
-4.32797e-302
2.41246e-302
-5.43648e-302
4.48519e-302
-6.59389e-302
7.7549e-302
-9.4686e-302
1.28074e-301
-3.92378e-302
1.95427e-301
-2.11338e-302
3.38415e-302
-1.03302e-302
6.36579e-303
-5.61053e-303
1.24764e-303
-3.16149e-303
1.81204e-304
-1.80403e-303
2.92057e-305
-1.02993e-303
5.69391e-305
-5.83702e-304
8.69528e-305
-3.25794e-304
9.07322e-305
-1.7042e-304
7.47029e-305
4.09394e-305
-2.62805e-311
-1.71439e-310
-3.33557e-311
-1.4129e-309
-1.67691e-311
-9.93544e-310
-1.57895e-311
-3.45699e-310
-1.31725e-311
-6.56627e-311
-7.67163e-312
1.92787e-312
-3.41903e-312
7.38421e-312
-1.25772e-312
3.71947e-312
-4.00734e-313
1.33272e-312
-1.14077e-313
4.01378e-313
-2.96094e-314
1.08052e-313
-7.09748e-315
2.68655e-314
-1.58136e-315
6.30768e-315
-3.27401e-316
1.42267e-315
-6.23777e-317
3.11369e-316
-1.06514e-317
6.56477e-317
-1.52691e-318
1.27852e-317
-1.51881e-319
2.04625e-318
1.47029e-319
-1.0749e-310
-8.50805e-310
-1.89229e-310
-4.63888e-309
-1.41818e-310
-2.82201e-309
-1.09734e-310
-9.17608e-310
-6.95467e-311
-1.62953e-310
-3.50855e-311
1.14698e-311
-1.4684e-311
2.29642e-311
-5.2994e-312
1.15043e-311
-1.69696e-312
4.21843e-312
-4.92102e-313
1.31102e-312
-1.31125e-313
3.65233e-313
-3.24212e-314
9.40158e-314
-7.47869e-315
2.28295e-314
-1.60974e-315
5.31433e-315
-3.20845e-316
1.19797e-315
-5.79307e-317
2.60524e-316
-8.96823e-318
5.29756e-317
-1.00796e-318
9.20123e-318
8.12437e-319
-3.69398e-310
-3.66477e-309
-7.02448e-310
-1.33582e-308
-5.53424e-310
-6.96696e-309
-3.87878e-310
-2.07291e-309
-2.1903e-310
-3.32521e-310
-1.023e-310
4.13675e-311
-4.1019e-311
5.77567e-311
-1.45297e-311
2.83988e-311
-4.6409e-312
1.05151e-311
-1.35682e-312
3.33317e-312
-3.67094e-313
9.51735e-313
-9.26172e-314
2.51776e-313
-2.18862e-314
6.29363e-314
-4.84503e-315
1.50997e-314
-9.98267e-316
3.51309e-315
-1.87786e-316
7.91211e-316
-3.0711e-317
1.68255e-316
-3.74863e-318
3.13935e-317
3.25888e-318
-1.34965e-309
-1.53763e-308
-2.43861e-309
-3.63181e-308
-1.86422e-309
-1.62332e-308
-1.18429e-309
-4.39072e-309
-6.12466e-310
-6.25891e-310
-2.69444e-310
1.18425e-310
-1.04312e-310
1.32406e-310
-3.63424e-311
6.38757e-311
-1.15711e-311
2.37914e-311
-3.40419e-312
7.66161e-312
-9.33015e-313
2.23423e-312
-2.39631e-313
6.05653e-313
-5.78713e-314
1.55514e-313
-1.31421e-314
3.84043e-314
-2.79028e-315
9.2161e-315
-5.44364e-316
2.14802e-315
-9.3313e-317
4.764e-316
-1.21746e-317
9.462e-317
1.12181e-317
-5.10587e-309
-6.54252e-308
-7.95891e-309
-9.37675e-308
-5.7686e-309
-3.58071e-308
-3.32933e-309
-8.81174e-309
-1.59831e-309
-1.11032e-309
-6.69661e-310
2.91105e-310
-2.52076e-310
2.82259e-310
-8.67334e-311
1.34254e-310
-2.75864e-311
5.0311e-311
-8.17546e-312
1.64437e-311
-2.27096e-312
4.89093e-312
-5.93839e-313
1.3568e-312
-1.46554e-313
3.57435e-313
-3.41296e-314
9.07539e-314
-7.46122e-315
2.24363e-314
-1.50726e-315
5.40232e-315
-2.69934e-316
1.24572e-315
-3.73839e-317
2.61699e-316
3.50463e-317
-2.03341e-308
-2.75052e-307
-2.51059e-308
-2.28762e-307
-1.66305e-308
-7.4276e-308
-8.7473e-309
-1.67292e-308
-3.9364e-309
-1.8567e-309
-1.58487e-309
6.48364e-310
-5.83861e-310
5.68507e-310
-1.99266e-310
2.679e-310
-6.34901e-311
1.01154e-310
-1.89874e-311
3.35617e-311
-5.3515e-312
1.01788e-311
-1.42577e-312
2.88822e-312
-3.59727e-313
7.8011e-313
-8.59207e-314
2.0345e-313
-1.93358e-314
5.17302e-314
-4.04141e-315
1.28296e-314
-7.55006e-316
3.05846e-315
-1.10726e-316
6.70912e-316
9.94279e-317
-8.95066e-308
-1.15411e-306
-7.91889e-308
-5.07475e-307
-4.57688e-308
-1.42352e-307
-2.18828e-308
-2.99204e-308
-9.30215e-309
-3.0203e-309
-3.62865e-309
1.2883e-309
-1.31698e-309
1.07168e-309
-4.48008e-310
5.05068e-310
-1.435e-310
1.92881e-310
-4.34203e-311
6.50661e-311
-1.24426e-311
2.01275e-311
-3.38347e-312
5.83783e-312
-8.74082e-313
1.61411e-312
-2.1441e-313
4.31186e-313
-4.97201e-314
1.12271e-313
-1.07569e-314
2.84946e-314
-2.09472e-315
6.9524e-315
-3.2404e-316
1.56311e-315
2.47246e-316
-3.9311e-307
-2.754e-306
-2.36805e-307
-9.11402e-307
-1.15995e-307
-2.38866e-307
-5.09149e-308
-4.84348e-308
-2.06986e-308
-4.50453e-309
-7.89641e-309
2.32331e-309
-2.84227e-309
1.86561e-309
-9.67935e-310
8.82674e-310
-3.1251e-310
3.41167e-310
-9.5817e-311
1.16895e-310
-2.79382e-311
3.67981e-311
-7.75587e-312
1.08719e-311
-2.05115e-312
3.06233e-312
-5.16341e-313
8.32584e-313
-1.23195e-313
2.20177e-313
-2.75178e-314
5.6593e-314
-5.56516e-315
1.39372e-314
-9.07288e-316
3.14111e-315
4.95045e-316
-6.09462e-303
-6.25001e-304
-1.26537e-302
-2.31715e-303
-2.03116e-302
-3.34297e-303
-2.96858e-302
-3.579e-303
-4.13985e-302
-2.67499e-303
-5.60636e-302
-3.19189e-306
-7.42626e-302
5.41201e-303
-9.65055e-302
1.49989e-302
-1.23175e-301
3.07814e-302
-1.54457e-301
5.55782e-302
-1.85665e-301
9.32962e-302
-2.70209e-301
1.49228e-301
-1.10955e-301
2.19908e-301
-5.71376e-302
3.9879e-302
-2.8111e-302
8.44492e-303
-1.56096e-302
2.11736e-303
-9.03355e-303
5.65714e-304
-5.30335e-303
2.01927e-304
-3.11642e-303
1.32038e-304
-1.81711e-303
1.13938e-304
-1.04248e-303
8.9982e-305
-5.76425e-304
5.42856e-305
1.25406e-305
-2.52117e-304
-8.63437e-303
-8.70534e-304
-1.78837e-302
-3.05339e-303
-2.85671e-302
-4.4399e-303
-4.14864e-302
-4.82851e-303
-5.74513e-302
-3.78786e-303
-7.72677e-302
-5.98927e-304
-1.01717e-301
5.81211e-303
-1.31529e-301
1.69595e-302
-1.67345e-301
3.4904e-302
-2.09678e-301
6.23759e-302
-2.52657e-301
1.02933e-301
-3.64671e-301
1.60925e-301
-1.56892e-301
2.31023e-301
-7.46494e-302
4.33989e-302
-3.64312e-302
9.85492e-303
-2.03642e-302
2.78038e-303
-1.19347e-302
8.95122e-304
-7.11053e-303
3.62421e-304
-4.23805e-303
2.02157e-304
-2.49741e-303
1.34843e-304
-1.43474e-303
8.48448e-305
-7.78874e-304
3.86905e-305
2.83407e-307
-3.53743e-304
-1.12062e-302
-1.21157e-303
-2.31519e-302
-4.08076e-303
-3.6862e-302
-6.03236e-303
-5.3329e-302
-6.7939e-303
-7.35575e-302
-5.86505e-303
-9.85491e-302
-2.45771e-303
-1.29284e-301
4.56207e-303
-1.66697e-301
1.67411e-302
-2.11644e-301
3.61056e-302
-2.64863e-301
6.52153e-302
-3.19546e-301
1.07207e-301
-4.57021e-301
1.65547e-301
-2.0284e-301
2.33733e-301
-9.28423e-302
4.50534e-302
-4.49283e-302
1.06501e-302
-2.50583e-302
3.1997e-303
-1.47095e-302
1.12968e-303
-8.79112e-303
4.9033e-304
-5.254e-303
2.65363e-304
-3.0974e-303
1.59932e-304
-1.77221e-303
9.02802e-305
-9.52213e-304
3.80386e-305
3.01077e-306
-4.33216e-304
-1.38356e-302
-1.72081e-303
-2.84905e-302
-5.62574e-303
-4.52192e-302
-8.48395e-303
-6.52106e-302
-9.95611e-303
-8.96659e-302
-9.4798e-303
-1.19781e-301
-6.21281e-303
-1.56724e-301
1.01791e-303
-2.01608e-301
1.37652e-302
-2.55459e-301
3.39976e-302
-3.1916e-301
6.4102e-302
-3.84838e-301
1.06856e-301
-5.46787e-301
1.65089e-301
-2.47558e-301
2.31671e-301
-1.1153e-301
4.55512e-302
-5.37125e-302
1.10151e-302
-2.9847e-302
3.42445e-303
-1.74854e-302
1.27575e-303
-1.04364e-302
5.82899e-304
-6.22768e-303
3.20191e-304
-3.66214e-303
1.90131e-304
-2.08743e-303
1.06965e-304
-1.1172e-303
4.95858e-305
1.38318e-305
-5.1013e-304
-1.65558e-302
-2.49108e-303
-3.39486e-302
-7.9688e-303
-5.36937e-302
-1.22471e-302
-7.7181e-302
-1.49155e-302
-1.05813e-301
-1.53508e-302
-1.40977e-301
-1.26605e-302
-1.84021e-301
-5.63967e-303
-2.36221e-301
7.26879e-303
-2.98741e-301
2.79887e-302
-3.72578e-301
5.87828e-302
-4.48752e-301
1.02191e-301
-6.34577e-301
1.60654e-301
-2.91386e-301
2.2674e-301
-1.30607e-301
4.52962e-302
-6.27824e-302
1.10691e-302
-3.478e-302
3.49511e-303
-2.0321e-302
1.34366e-303
-1.20982e-302
6.39306e-304
-7.19962e-303
3.62625e-304
-4.22094e-303
2.20642e-304
-2.399e-303
1.29418e-304
-1.28206e-303
6.7295e-305
2.79014e-305
-5.87486e-304
-1.94112e-302
-3.64186e-303
-3.95976e-302
-1.14675e-302
-6.23765e-302
-1.78982e-302
-8.93485e-302
-2.24398e-302
-1.22126e-301
-2.43989e-302
-1.62293e-301
-2.28303e-302
-2.11377e-301
-1.64905e-302
-2.7081e-301
-3.80341e-303
-3.41887e-301
1.71481e-302
-4.25711e-301
4.85787e-302
-5.12194e-301
9.29249e-302
-7.21718e-301
1.52449e-301
-3.35128e-301
2.19581e-301
-1.50085e-301
4.43946e-302
-7.21254e-302
1.08368e-302
-3.98682e-302
3.41866e-303
-2.32397e-302
1.33248e-303
-1.38019e-302
6.54721e-304
-8.19207e-303
3.86279e-304
-4.79021e-303
2.4466e-304
-2.71676e-303
1.51055e-304
-1.45085e-303
8.56131e-305
4.18463e-305
-6.66454e-304
-2.24555e-302
-5.32823e-303
-4.55239e-302
-1.65812e-302
-7.13836e-302
-2.61784e-302
-1.01863e-301
-3.35149e-302
-1.38802e-301
-3.78119e-302
-1.83997e-301
-3.80591e-302
-2.3916e-301
-3.29644e-302
-3.05886e-301
-2.0906e-302
-3.85603e-301
7.81294e-305
-4.79527e-301
3.22462e-302
-5.76475e-301
7.80699e-302
-8.09924e-301
1.39808e-301
-3.79848e-301
2.09836e-301
-1.70086e-301
4.26887e-302
-8.17544e-302
1.02453e-302
-4.51169e-302
3.15859e-303
-2.62507e-302
1.22171e-303
-1.5559e-302
6.15737e-304
-9.2155e-303
3.81154e-304
-5.37775e-303
2.54192e-304
-3.0453e-303
1.65535e-304
-1.62555e-303
1.00012e-304
5.31957e-305
-7.47752e-304
-2.57425e-302
-7.75142e-303
-5.18097e-302
-2.39012e-302
-8.08266e-302
-3.80378e-302
-1.14878e-301
-4.94041e-302
-1.56063e-301
-5.71087e-302
-2.0641e-301
-6.00672e-302
-2.67838e-301
-5.69254e-302
-3.42112e-301
-4.59913e-302
-4.30804e-301
-2.51971e-302
-5.35251e-301
7.86047e-303
-6.43183e-301
5.58382e-302
-9.01199e-301
1.21169e-301
-4.26819e-301
1.96234e-301
-1.90812e-301
3.97614e-302
-9.17117e-302
9.1156e-303
-5.05361e-302
2.62717e-303
-2.93575e-302
9.65354e-304
-1.73723e-302
4.96738e-304
-1.02727e-302
3.32019e-304
-5.98566e-303
2.39639e-304
-3.38573e-303
1.667e-304
-1.80652e-303
1.06789e-304
6.01579e-305
-8.31576e-304
-2.9309e-302
-1.11731e-302
-5.84993e-302
-3.4186e-302
-9.07626e-302
-5.46908e-302
-1.28488e-301
-7.17095e-302
-1.74076e-301
-8.421e-302
-2.29828e-301
-9.10256e-302
-2.97889e-301
-9.07464e-302
-3.80213e-301
-8.15893e-302
-4.78524e-301
-6.13262e-302
-5.94287e-301
-2.72926e-302
-7.14149e-301
2.35258e-302
-9.97842e-301
9.39559e-302
-4.7753e-301
1.76493e-301
-2.12542e-301
3.48896e-302
-1.02064e-301
7.13989e-303
-5.61412e-302
1.67302e-303
-3.25616e-302
4.84934e-304
-1.92403e-302
2.56002e-304
-1.1362e-302
2.16349e-304
-6.61246e-303
1.88716e-304
-3.73692e-303
1.47907e-304
-1.99308e-303
1.02565e-304
6.1332e-305
-9.17662e-304
-3.31484e-302
-1.59342e-302
-6.55423e-302
-4.84113e-302
-1.01115e-301
-7.76807e-302
-1.42627e-301
-1.02448e-301
-1.92849e-301
-1.21502e-301
-2.54397e-301
-1.33619e-301
-3.29678e-301
-1.37359e-301
-4.20852e-301
-1.30864e-301
-5.29804e-301
-1.11696e-301
-6.58131e-301
-7.68118e-302
-7.91398e-301
-2.26269e-302
-1.10246e-300
5.43736e-302
-5.33702e-301
1.47019e-301
-2.35616e-301
2.69406e-302
-1.12895e-301
3.84075e-303
-6.1949e-302
6.30514e-305
-3.5862e-302
-3.39027e-304
-2.11578e-302
-1.68369e-304
-1.24783e-302
2.26144e-306
-7.25442e-303
8.52532e-305
-4.09641e-303
1.01201e-304
-2.18377e-303
8.36888e-305
5.53369e-305
-1.0054e-303
-3.71664e-302
-2.24852e-302
-7.2709e-302
-6.78386e-302
-1.11552e-301
-1.08975e-301
-1.56931e-301
-1.44133e-301
-2.12069e-301
-1.7191e-301
-2.79953e-301
-1.91081e-301
-3.63286e-301
-2.00279e-301
-4.64454e-301
-1.97624e-301
-5.85519e-301
-1.8046e-301
-7.28217e-301
-1.45239e-301
-8.77027e-301
-8.75727e-302
-1.2179e-300
-2.86124e-303
-5.97247e-301
1.02435e-301
-2.60405e-301
1.42122e-302
-1.2428e-301
-1.4843e-303
-6.79679e-302
-2.53821e-303
-3.9251e-302
-1.67417e-303
-2.31155e-302
-8.60686e-304
-1.3614e-302
-3.52209e-304
-7.90612e-303
-9.12384e-305
-4.46071e-303
1.68832e-305
-2.37661e-303
4.58273e-305
4.05033e-305
-1.09391e-303
-4.11155e-302
-3.14375e-302
-7.94558e-302
-9.41311e-302
-1.21314e-301
-1.51092e-301
-1.70533e-301
-1.99898e-301
-2.30888e-301
-2.38963e-301
-3.05788e-301
-2.67229e-301
-3.98259e-301
-2.83585e-301
-5.10939e-301
-2.86285e-301
-6.46089e-301
-2.72486e-301
-8.05607e-301
-2.38052e-301
-9.729e-301
-1.77534e-301
-1.34694e-300
-8.47873e-302
-6.7006e-301
3.50038e-302
-2.87232e-301
-5.7631e-303
-1.36251e-301
-9.81708e-303
-7.418e-302
-6.57954e-303
-4.27071e-302
-3.73443e-303
-2.5097e-302
-1.92365e-303
-1.47579e-302
-8.96147e-304
-8.5602e-303
-3.64031e-304
-4.8252e-303
-1.15935e-304
-2.56897e-303
-1.59608e-305
1.47869e-305
-1.18194e-303
-4.44817e-302
-4.3665e-302
-8.47156e-302
-1.29543e-301
-1.28943e-301
-2.0732e-301
-1.8179e-301
-2.73642e-301
-2.47651e-301
-3.26873e-301
-3.30373e-301
-3.66439e-301
-4.33306e-301
-3.91851e-301
-5.59365e-301
-4.01749e-301
-7.11057e-301
-3.93235e-301
-8.90497e-301
-3.61537e-301
-1.08008e-300
-2.99948e-301
-1.49165e-300
-2.00316e-301
-7.53604e-301
-6.58709e-302
-3.16221e-301
-3.63853e-302
-1.48736e-301
-2.24274e-302
-8.05189e-302
-1.25964e-302
-4.61874e-302
-6.75394e-303
-2.70759e-302
-3.46094e-303
-1.58936e-302
-1.67608e-303
-9.2062e-303
-7.54476e-304
-5.18331e-303
-3.07303e-304
-2.75697e-303
-1.06458e-304
-2.39993e-305
-1.26761e-303
-4.62841e-302
-6.05164e-302
-8.65381e-302
-1.77265e-301
-1.31904e-301
-2.82025e-301
-1.87924e-301
-3.70239e-301
-2.59581e-301
-4.40585e-301
-3.51054e-301
-4.93606e-301
-4.65962e-301
-5.3e-301
-6.07512e-301
-5.49216e-301
-7.78551e-301
-5.48506e-301
-9.81533e-301
-5.22509e-301
-1.19798e-300
-4.6316e-301
-1.65238e-300
-3.60028e-301
-8.48161e-301
-2.13745e-301
-3.47074e-301
-8.19628e-302
-1.61489e-301
-4.07292e-302
-8.68517e-302
-2.10913e-302
-4.96221e-302
-1.0913e-302
-2.90129e-302
-5.53789e-303
-1.69967e-302
-2.71714e-303
-9.82816e-303
-1.2736e-303
-5.52469e-303
-5.62849e-304
-2.93437e-303
-2.28807e-304
-7.76067e-305
-1.34774e-303
-4.4648e-302
-8.42992e-302
-8.14373e-302
-2.42041e-301
-1.25972e-301
-3.81153e-301
-1.84592e-301
-4.95771e-301
-2.62486e-301
-5.85809e-301
-3.63816e-301
-6.53995e-301
-4.92307e-301
-7.03092e-301
-6.51494e-301
-7.33895e-301
-8.44722e-301
-7.441e-301
-1.07501e-300
-7.27857e-301
-1.32326e-300
-6.75825e-301
-1.8264e-300
-5.75402e-301
-9.51859e-301
-4.24435e-301
-3.78778e-301
-1.47099e-301
-1.74037e-301
-6.57525e-302
-9.2974e-302
-3.22307e-302
-5.29112e-302
-1.61907e-302
-3.08487e-302
-8.11669e-303
-1.80271e-302
-3.99626e-303
-1.03985e-302
-1.9112e-303
-5.83123e-303
-8.79196e-304
-3.0903e-303
-3.82462e-304
-1.46423e-304
-1.41684e-303
-3.5776e-302
-1.19327e-301
-6.30931e-302
-3.31254e-301
-1.04307e-301
-5.12875e-301
-1.65411e-301
-6.57716e-301
-2.50599e-301
-7.68878e-301
-3.63235e-301
-8.52992e-301
-5.06889e-301
-9.15998e-301
-6.85532e-301
-9.60671e-301
-9.03321e-301
-9.85411e-301
-1.16419e-300
-9.83991e-301
-1.44881e-300
-9.45975e-301
-2.00632e-300
-8.57327e-301
-1.05946e-300
-7.13994e-301
-4.09208e-301
-2.34362e-301
-1.85654e-301
-9.67857e-302
-9.85998e-302
-4.526e-302
-5.58965e-302
-2.21453e-302
-3.24741e-302
-1.09805e-302
-1.89073e-302
-5.41597e-303
-1.08649e-302
-2.62585e-303
-6.07004e-303
-1.23943e-303
-3.20592e-303
-5.60806e-304
-2.2819e-304
-1.46568e-303
-1.10217e-302
-1.73914e-301
-1.9651e-302
-4.56501e-301
-5.60693e-302
-6.88113e-301
-1.21677e-301
-8.64735e-301
-2.16843e-301
-9.9631e-301
-3.42865e-301
-1.09563e-300
-5.02994e-301
-1.17302e-300
-7.02064e-301
-1.23374e-300
-9.45627e-301
-1.27704e-300
-1.23904e-300
-1.29626e-300
-1.56309e-300
-1.27994e-300
-2.17913e-300
-1.21384e-300
-1.16112e-300
-1.09484e-300
-4.34346e-301
-3.36984e-301
-1.95275e-301
-1.28675e-301
-1.03217e-301
-5.7714e-302
-5.82276e-302
-2.77273e-302
-3.36435e-302
-1.36964e-302
-1.94761e-302
-6.79631e-303
-1.11289e-302
-3.34075e-303
-6.18483e-303
-1.60975e-303
-3.25137e-303
-7.48694e-304
-3.16476e-304
-1.48045e-303
5.25522e-302
-2.35369e-301
7.19303e-302
-6.08962e-301
3.52731e-302
-8.94092e-301
-4.28118e-302
-1.09945e-300
-1.53938e-301
-1.24753e-300
-2.96261e-301
-1.35951e-300
-4.7338e-301
-1.45092e-300
-6.92228e-301
-1.52978e-300
-9.60912e-301
-1.59611e-300
-1.28684e-300
-1.64235e-300
-1.65076e-300
-1.65534e-300
-2.32667e-300
-1.61649e-300
-1.24157e-300
-1.56813e-300
-4.46584e-301
-4.07898e-301
-2.00904e-301
-1.46425e-301
-1.05452e-301
-6.5029e-302
-5.89937e-302
-3.14172e-302
-3.38139e-302
-1.56956e-302
-1.94324e-302
-7.90024e-303
-1.10312e-302
-3.94805e-303
-6.09477e-303
-1.93835e-303
-3.18769e-303
-9.20873e-304
-3.99606e-304
-1.44446e-303
2.23238e-301
-6.06028e-301
2.55214e-301
-1.09343e-300
1.90723e-301
-1.42738e-300
7.96917e-302
-1.65534e-300
-5.79926e-302
-1.81538e-300
-2.19438e-301
-1.93767e-300
-4.1162e-301
-2.04294e-300
-6.46489e-301
-2.14188e-300
-9.37036e-301
-2.23506e-300
-1.29379e-300
-2.31367e-300
-1.69128e-300
-2.36206e-300
-2.43099e-300
-2.36661e-300
-1.28836e-300
-1.2951e-300
-4.3625e-301
-3.54948e-301
-1.94132e-301
-1.37723e-301
-1.00893e-301
-6.43492e-302
-5.61444e-302
-3.22044e-302
-3.20573e-302
-1.65158e-302
-1.83607e-302
-8.49221e-303
-1.03872e-302
-4.32445e-303
-5.71887e-303
-2.16078e-303
-2.98039e-303
-1.04439e-303
-4.61833e-304
-1.34446e-303
6.68472e-301
-4.04731e-302
5.68375e-301
-4.19001e-301
4.09281e-301
-6.43667e-301
2.35191e-301
-7.9189e-301
6.10937e-302
-8.94632e-301
-1.17828e-301
-9.7282e-301
-3.17664e-301
-1.04058e-300
-5.59773e-301
-1.10505e-300
-8.65817e-301
-1.16639e-300
-1.25213e-300
-1.21773e-300
-1.72103e-300
-1.24636e-300
-1.3846e-300
-1.24648e-300
-5.78132e-301
-5.601e-301
-2.75236e-301
-2.35418e-301
-1.46266e-301
-1.12096e-301
-8.21722e-302
-5.7206e-302
-4.75166e-302
-3.01007e-302
-2.76933e-302
-1.59594e-302
-1.60385e-302
-8.4126e-303
-9.12531e-303
-4.3701e-303
-5.03617e-303
-2.22058e-303
-2.6249e-303
-1.08932e-303
-4.88535e-304
-1.18055e-303
1.57178e-301
-1.84276e-301
1.08631e-301
-3.06734e-301
7.41334e-302
-3.57026e-301
3.70321e-302
-3.91121e-301
-3.33649e-303
-4.15195e-301
-4.93819e-302
-4.32906e-301
-1.05394e-301
-4.46901e-301
-1.76602e-301
-4.5835e-301
-2.66356e-301
-4.66618e-301
-3.68267e-301
-4.68892e-301
-4.34942e-301
-4.59485e-301
-3.71534e-301
-4.34469e-301
-2.41397e-301
-2.72405e-301
-1.53667e-301
-1.52016e-301
-9.57005e-302
-8.38929e-302
-5.90713e-302
-4.65318e-302
-3.61281e-302
-2.57877e-302
-2.17974e-302
-1.41698e-302
-1.28989e-302
-7.66936e-303
-7.43685e-303
-4.06607e-303
-4.13651e-303
-2.10005e-303
-2.16403e-303
-1.04405e-303
-4.73355e-304
-9.71762e-304
-4.66749e-303
-7.61245e-302
-2.02639e-303
-1.44292e-301
-2.22764e-303
-1.73014e-301
-6.80938e-303
-1.89984e-301
-1.57381e-302
-2.00529e-301
-2.93352e-302
-2.0718e-301
-4.84639e-302
-2.11413e-301
-7.38839e-302
-2.13921e-301
-1.0479e-301
-2.14789e-301
-1.3603e-301
-2.13689e-301
-1.52634e-301
-2.097e-301
-1.41977e-301
-1.96364e-301
-1.14183e-301
-1.4642e-301
-8.46439e-302
-9.54934e-302
-5.89446e-302
-5.87915e-302
-3.93158e-302
-3.50621e-302
-2.53604e-302
-2.04189e-302
-1.58692e-302
-1.16249e-302
-9.62568e-303
-6.45863e-303
-5.64212e-303
-3.49291e-303
-3.17199e-303
-1.83217e-303
-1.66917e-303
-9.21925e-304
-4.21487e-304
-7.48793e-304
-1.81611e-302
-2.95409e-302
-1.63534e-302
-6.98559e-302
-1.41267e-302
-9.03578e-302
-1.3183e-302
-1.02093e-301
-1.45866e-302
-1.08832e-301
-1.87531e-302
-1.12568e-301
-2.59653e-302
-1.14477e-301
-3.61807e-302
-1.15214e-301
-4.84864e-302
-1.15077e-301
-6.0322e-302
-1.14042e-301
-6.70721e-302
-1.11319e-301
-6.57675e-302
-1.03274e-301
-5.7978e-302
-8.29659e-302
-4.68404e-302
-5.93017e-302
-3.51291e-302
-3.93833e-302
-2.48494e-302
-2.48794e-302
-1.67599e-302
-1.51245e-302
-1.08362e-302
-8.88943e-303
-6.72945e-303
-5.05836e-303
-4.01071e-303
-2.78598e-303
-2.28052e-303
-1.48201e-303
-1.20783e-303
-7.53638e-304
-3.46629e-304
-5.41072e-304
-1.21497e-302
-1.20602e-302
-1.29271e-302
-3.4132e-302
-1.21448e-302
-4.78784e-302
-1.10963e-302
-5.63565e-302
-1.08795e-302
-6.1336e-302
-1.201e-302
-6.40471e-302
-1.47177e-302
-6.5339e-302
-1.89267e-302
-6.57514e-302
-2.41066e-302
-6.55694e-302
-2.91233e-302
-6.47878e-302
-3.23905e-302
-6.28335e-302
-3.28309e-302
-5.80077e-302
-3.04355e-302
-4.83056e-302
-2.59194e-302
-3.64375e-302
-2.04416e-302
-2.54818e-302
-1.51039e-302
-1.68135e-302
-1.05513e-302
-1.058e-302
-7.01001e-303
-6.38682e-303
-4.44338e-303
-3.70984e-303
-2.68835e-303
-2.07585e-303
-1.54486e-303
-1.11772e-303
-8.23138e-304
-5.73429e-304
-2.64745e-304
-3.67824e-304
-6.68073e-303
-5.15844e-303
-7.94774e-303
-1.67155e-302
-8.03512e-303
-2.52694e-302
-7.57357e-303
-3.10962e-302
-7.24758e-303
-3.4755e-302
-7.46854e-303
-3.68466e-302
-8.44194e-303
-3.78887e-302
-1.01636e-302
-3.82575e-302
-1.23919e-302
-3.81648e-302
-1.46468e-302
-3.76091e-302
-1.63114e-302
-3.62567e-302
-1.68832e-302
-3.33587e-302
-1.61456e-302
-2.83077e-302
-1.42393e-302
-2.20637e-302
-1.16334e-302
-1.598e-302
-8.87465e-303
-1.08838e-302
-6.3688e-303
-7.03325e-303
-4.32401e-303
-4.33767e-303
-2.78743e-303
-2.56245e-303
-1.70803e-303
-1.45275e-303
-9.90485e-304
-7.90105e-304
-5.30393e-304
-4.0821e-304
-1.88784e-304
-2.36084e-304
-3.39288e-303
-2.26879e-303
-4.37666e-303
-8.15476e-303
-4.69974e-303
-1.31756e-302
-4.6077e-303
-1.6942e-302
-4.43667e-303
-1.94925e-302
-4.44099e-303
-2.10503e-302
-4.77312e-303
-2.18846e-302
-5.46748e-303
-2.22229e-302
-6.4351e-303
-2.22028e-302
-7.47802e-303
-2.18304e-302
-8.33333e-303
-2.09378e-302
-8.74386e-303
-1.92107e-302
-8.53785e-303
-1.64666e-302
-7.71605e-303
-1.3095e-302
-6.46454e-303
-9.70965e-303
-5.04852e-303
-6.76483e-303
-3.69766e-303
-4.45954e-303
-2.55312e-303
-2.79639e-303
-1.66802e-303
-1.67414e-303
-1.03264e-303
-9.59143e-304
-6.03268e-304
-5.25817e-304
-3.24248e-304
-2.73102e-304
-1.26271e-304
-1.43545e-304
-1.63579e-303
-1.00925e-303
-2.24288e-303
-3.93961e-303
-2.53041e-303
-6.75066e-303
-2.57803e-303
-9.04993e-303
-2.52608e-303
-1.07224e-302
-2.50782e-303
-1.18122e-302
-2.61903e-303
-1.24367e-302
-2.89864e-303
-1.27175e-302
-3.3231e-303
-1.27354e-302
-3.81314e-303
-1.25007e-302
-4.25022e-303
-1.19386e-302
-4.50097e-303
-1.09247e-302
-4.45922e-303
-9.41217e-303
-4.10074e-303
-7.57702e-303
-3.49878e-303
-5.70647e-303
-2.78014e-303
-4.03981e-303
-2.06772e-303
-2.70241e-303
-1.44619e-303
-1.71595e-303
-9.54677e-304
-1.03792e-303
-5.95772e-304
-5.99481e-304
-3.50038e-304
-3.30643e-304
-1.88601e-304
-1.72362e-304
-7.95371e-305
-8.29197e-305
-7.5528e-304
-4.48834e-304
-1.08498e-303
-1.87469e-303
-1.27472e-303
-3.38431e-303
-1.34499e-303
-4.71643e-303
-1.34656e-303
-5.74956e-303
-1.34115e-303
-6.46292e-303
-1.3817e-303
-6.89588e-303
-1.49729e-303
-7.10572e-303
-1.68678e-303
-7.13604e-303
-1.91949e-303
-6.99664e-303
-2.14066e-303
-6.65875e-303
-2.28208e-303
-6.07732e-303
-2.28462e-303
-5.24757e-303
-2.12765e-303
-4.25517e-303
-1.83977e-303
-3.23758e-303
-1.48079e-303
-2.31755e-303
-1.11406e-303
-1.56678e-303
-7.86811e-304
-1.00414e-303
-5.23494e-304
-6.12066e-304
-3.28664e-304
-3.55666e-304
-1.93909e-304
-1.9703e-304
-1.04608e-304
-1.02939e-304
-4.73374e-305
-4.56151e-305
-3.35172e-304
-1.97816e-304
-4.98704e-304
-8.74693e-304
-6.05557e-304
-1.65438e-303
-6.59062e-304
-2.38952e-303
-6.74874e-304
-2.99278e-303
-6.78792e-304
-3.43086e-303
-6.97217e-304
-3.7098e-303
-7.47896e-304
-3.85288e-303
-8.34659e-304
-3.88162e-303
-9.46015e-304
-3.80346e-303
-1.05659e-303
-3.60947e-303
-1.13237e-303
-3.28597e-303
-1.14247e-303
-2.83882e-303
-1.07394e-303
-2.31139e-303
-9.37863e-304
-1.77018e-303
-7.62113e-304
-1.27676e-303
-5.78311e-304
-8.6964e-304
-4.11411e-304
-5.61107e-304
-2.75322e-304
-3.4394e-304
-1.73609e-304
-2.00729e-304
-1.02719e-304
-1.11526e-304
-5.54239e-305
-5.83242e-305
-2.66936e-305
-2.3942e-305
-1.43233e-304
-8.57974e-305
-2.18593e-304
-3.98618e-304
-2.72466e-304
-7.86348e-304
-3.04656e-304
-1.17378e-303
-3.18992e-304
-1.50782e-303
-3.25315e-304
-1.76123e-303
-3.35705e-304
-1.92919e-303
-3.59617e-304
-2.01927e-303
-4.00438e-304
-2.04117e-303
-4.53919e-304
-1.99969e-303
-5.08395e-304
-1.89332e-303
-5.47412e-304
-1.7195e-303
-5.55633e-304
-1.48482e-303
-5.25963e-304
-1.21146e-303
-4.62705e-304
-9.31541e-304
-3.78671e-304
-6.75271e-304
-2.89176e-304
-4.6233e-304
-2.06817e-304
-2.99713e-304
-1.38981e-304
-1.84433e-304
-8.78968e-305
-1.0795e-304
-5.20933e-305
-6.00806e-305
-2.80872e-305
-3.14165e-305
-1.42946e-305
-1.20077e-305
-5.90193e-305
-3.64145e-305
-9.15851e-305
-1.76867e-304
-1.16432e-304
-3.62599e-304
-1.33236e-304
-5.57938e-304
-1.42545e-304
-7.33847e-304
-1.47801e-304
-8.7244e-304
-1.54133e-304
-9.67483e-304
-1.66082e-304
-1.02034e-303
-1.85663e-304
-1.03495e-303
-2.11279e-304
-1.01407e-303
-2.37633e-304
-9.58338e-304
-2.57017e-304
-8.6843e-304
-2.62146e-304
-7.49129e-304
-2.49459e-304
-6.11681e-304
-2.20652e-304
-4.71427e-304
-1.81519e-304
-3.42826e-304
-1.39258e-304
-2.35521e-304
-9.99717e-305
-1.53161e-304
-6.73691e-305
-9.4488e-305
-4.26832e-305
-5.53982e-305
-2.53147e-305
-3.08526e-305
-1.36281e-305
-1.61162e-305
-7.28323e-306
-5.76107e-306
-2.3472e-305
-1.50582e-305
-3.6741e-305
-7.62072e-305
-4.73404e-305
-1.61914e-304
-5.52357e-305
-2.56265e-304
-6.03346e-305
-3.44562e-304
-6.37463e-305
-4.16469e-304
-6.75063e-305
-4.67245e-304
-7.36115e-305
-4.96353e-304
-8.30519e-305
-5.05188e-304
-9.51889e-305
-4.95203e-304
-1.07656e-304
-4.67291e-304
-1.16955e-304
-4.22591e-304
-1.19768e-304
-3.64047e-304
-1.14426e-304
-2.97227e-304
-1.01613e-304
-2.29324e-304
-8.39018e-305
-1.67072e-304
-6.4574e-305
-1.15017e-304
-4.64725e-305
-7.49372e-305
-3.13691e-305
-4.62945e-305
-1.98905e-305