/*--------------------------------*- C++ -*----------------------------------*\
| =========                 |                                                 |
| \\      /  F ield         | OpenFOAM: The Open Source CFD Toolbox           |
|  \\    /   O peration     | Version:  2406                                  |
|   \\  /    A nd           | Website:  www.openfoam.com                      |
|    \\/     M anipulation  |                                                 |
\*---------------------------------------------------------------------------*/
FoamFile
{
    version     2.0;
    format      ascii;
    arch        "LSB;label=32;scalar=64";
    class       volVectorField;
    location    "0.2";
    object      U;
}
// * * * * * * * * * * * * * * * * * * * * * * * * * * * * * * * * * * * * * //

dimensions      [0 1 -1 0 0 0 0];

internalField   nonuniform List<vector> 
2268
(
(-4.40811e-301 -1.49779e-301 0)
(-1.30528e-300 -6.58442e-301 0)
(-2.36381e-300 -9.84074e-301 0)
(-3.73773e-300 -1.23211e-300 0)
(-5.57515e-300 -1.34152e-300 0)
(-8.0164e-300 -1.14097e-300 0)
(-1.11776e-299 -3.01353e-301 0)
(-1.51066e-299 1.7386e-300 0)
(-1.96826e-299 5.9541e-300 0)
(-2.43159e-299 1.4101e-299 0)
(-2.65426e-299 2.98865e-299 0)
(-1.4086e-299 6.08953e-299 0)
(1.00793e-298 1.5092e-298 0)
(-4.13558e-299 3.03366e-299 0)
(-2.97558e-299 -3.26156e-300 0)
(-1.20968e-299 -4.68786e-300 0)
(-5.01743e-300 -2.59513e-300 0)
(-2.15484e-300 -1.14723e-300 0)
(-9.41111e-301 -4.27821e-301 0)
(-4.02335e-301 -1.2367e-301 0)
(-1.57302e-301 -1.62771e-302 0)
(-4.77926e-302 7.92598e-303 0)
(-4.63248e-303 3.1399e-303 0)
(-1.4073e-300 -3.3485e-301 0)
(-4.15264e-300 -1.62207e-300 0)
(-7.42395e-300 -2.4779e-300 0)
(-1.16555e-299 -3.03645e-300 0)
(-1.72733e-299 -3.10328e-300 0)
(-2.46756e-299 -2.15682e-300 0)
(-3.41777e-299 7.53012e-301 0)
(-4.5875e-299 7.26573e-300 0)
(-5.93542e-299 2.00854e-299 0)
(-7.29892e-299 4.38691e-299 0)
(-8.19052e-299 8.72342e-299 0)
(-7.08172e-299 1.69686e-298 0)
(-6.46498e-300 3.16141e-298 0)
(-8.27468e-299 5.82709e-299 0)
(-4.72944e-299 1.25788e-300 0)
(-2.22339e-299 -4.26429e-300 0)
(-1.02843e-299 -2.89971e-300 0)
(-4.77728e-300 -1.38629e-300 0)
(-2.22121e-300 -5.17531e-301 0)
(-1.012e-300 -1.22597e-301 0)
(-4.31727e-301 1.94786e-302 0)
(-1.53807e-301 4.49555e-302 0)
(-2.32533e-302 2.11708e-302 0)
(-2.41921e-300 -5.60628e-301 0)
(-7.23438e-300 -2.54752e-300 0)
(-1.29415e-299 -3.8887e-300 0)
(-2.02887e-299 -4.69313e-300 0)
(-3.00075e-299 -4.60818e-300 0)
(-4.27968e-299 -2.78385e-300 0)
(-5.92352e-299 2.35719e-300 0)
(-7.95909e-299 1.34298e-299 0)
(-1.03435e-298 3.47717e-299 0)
(-1.28859e-298 7.35058e-299 0)
(-1.50856e-298 1.42253e-298 0)
(-1.56601e-298 2.66247e-298 0)
(-1.38155e-298 4.60343e-298 0)
(-1.14271e-298 7.62333e-299 0)
(-6.05527e-299 5.76546e-300 0)
(-3.01535e-299 -3.07704e-300 0)
(-1.47972e-299 -2.70097e-300 0)
(-7.23466e-300 -1.37997e-300 0)
(-3.51882e-300 -5.0393e-301 0)
(-1.6784e-300 -8.13667e-302 0)
(-7.59193e-301 7.2664e-302 0)
(-2.97743e-301 9.45535e-302 0)
(-5.80885e-302 5.07784e-302 0)
(-3.57065e-300 -7.9944e-301 0)
(-1.0781e-299 -3.48495e-300 0)
(-1.92845e-299 -5.28772e-300 0)
(-3.01586e-299 -6.26548e-300 0)
(-4.44696e-299 -5.91588e-300 0)
(-6.32519e-299 -3.03074e-300 0)
(-8.74128e-299 4.52353e-300 0)
(-1.17502e-298 2.03343e-299 0)
(-1.53305e-298 5.0119e-299 0)
(-1.93119e-298 1.03205e-298 0)
(-2.32659e-298 1.95047e-298 0)
(-2.62245e-298 3.53185e-298 0)
(-2.8486e-298 5.8074e-298 0)
(-1.47793e-298 9.44488e-299 0)
(-7.45401e-299 1.04984e-299 0)
(-3.80561e-299 -1.59967e-300 0)
(-1.94202e-299 -2.26597e-300 0)
(-9.8869e-300 -1.24206e-300 0)
(-5.00296e-300 -4.26126e-301 0)
(-2.48823e-300 -8.16439e-303 0)
(-1.18593e-300 1.45414e-301 0)
(-5.04025e-301 1.61151e-301 0)
(-1.18325e-301 9.67949e-302 0)
(-4.94919e-300 -1.05369e-300 0)
(-1.50277e-299 -4.48901e-300 0)
(-2.68391e-299 -6.74385e-300 0)
(-4.18144e-299 -7.84e-300 0)
(-6.13774e-299 -7.08836e-300 0)
(-8.69372e-299 -2.96639e-300 0)
(-1.19774e-298 7.25527e-300 0)
(-1.6081e-298 2.79707e-299 0)
(-2.10195e-298 6.62298e-299 0)
(-2.66664e-298 1.33046e-298 0)
(-3.26748e-298 2.46131e-298 0)
(-3.82682e-298 4.33576e-298 0)
(-4.42212e-298 6.8918e-298 0)
(-1.8555e-298 1.13239e-298 0)
(-9.03765e-299 1.53472e-299 0)
(-4.67217e-299 -7.27103e-303 0)
(-2.45301e-299 -1.71218e-300 0)
(-1.2916e-299 -1.02518e-300 0)
(-6.77222e-300 -3.0467e-301 0)
(-3.50133e-300 8.89395e-302 0)
(-1.75129e-300 2.33818e-301 0)
(-8.00091e-301 2.43097e-301 0)
(-2.17441e-301 1.62997e-301 0)
(-6.64347e-300 -1.33265e-300 0)
(-2.02248e-299 -5.59817e-300 0)
(-3.60228e-299 -8.32189e-300 0)
(-5.58417e-299 -9.47201e-300 0)
(-8.14936e-299 -8.19586e-300 0)
(-1.14782e-298 -2.60167e-300 0)
(-1.57405e-298 1.053e-299 0)
(-2.10705e-298 3.64343e-299 0)
(-2.75295e-298 8.31691e-299 0)
(-3.50437e-298 1.63287e-298 0)
(-4.3335e-298 2.95992e-298 0)
(-5.16972e-298 5.10247e-298 0)
(-6.10439e-298 7.95427e-298 0)
(-2.28248e-298 1.32826e-298 0)
(-1.08522e-298 2.03509e-299 0)
(-5.6617e-299 1.67662e-300 0)
(-3.04197e-299 -1.07274e-300 0)
(-1.6491e-299 -7.48711e-301 0)
(-8.92868e-300 -1.49799e-301 0)
(-4.78376e-300 2.0261e-301 0)
(-2.50178e-300 3.30276e-301 0)
(-1.2237e-300 3.32393e-301 0)
(-3.82246e-301 2.48415e-301 0)
(-8.74696e-300 -1.65118e-300 0)
(-2.66463e-299 -6.85426e-300 0)
(-4.729e-299 -1.00723e-299 0)
(-7.28799e-299 -1.12378e-299 0)
(-1.05633e-298 -9.27864e-300 0)
(-1.47777e-298 -1.99572e-300 0)
(-2.01433e-298 1.43886e-299 0)
(-2.68411e-298 4.57414e-299 0)
(-3.49821e-298 1.01129e-298 0)
(-4.45527e-298 1.94106e-298 0)
(-5.53415e-298 3.45227e-298 0)
(-6.66883e-298 5.84774e-298 0)
(-7.92903e-298 9.04879e-298 0)
(-2.76083e-298 1.53087e-298 0)
(-1.29502e-298 2.56211e-299 0)
(-6.82612e-299 3.48929e-300 0)
(-3.7453e-299 -3.48681e-301 0)
(-2.08423e-299 -4.23541e-301 0)
(-1.16177e-299 2.73182e-302 0)
(-6.4294e-300 3.21359e-301 0)
(-3.50085e-300 4.20281e-301 0)
(-1.8272e-300 4.0802e-301 0)
(-6.747e-301 3.25802e-301 0)
(-1.13585e-299 -2.04145e-300 0)
(-3.45933e-299 -8.28608e-300 0)
(-6.11442e-299 -1.20637e-299 0)
(-9.36244e-299 -1.31972e-299 0)
(-1.34683e-298 -1.04237e-299 0)
(-1.8697e-298 -1.15874e-300 0)
(-2.53054e-298 1.88035e-299 0)
(-3.35195e-298 5.60306e-299 0)
(-4.35039e-298 1.20243e-298 0)
(-5.53103e-298 2.25933e-298 0)
(-6.88129e-298 3.94342e-298 0)
(-8.35102e-298 6.57406e-298 0)
(-9.95235e-298 1.01313e-297 0)
(-3.2878e-298 1.73179e-298 0)
(-1.53737e-298 3.1313e-299 0)
(-8.21176e-299 5.53454e-300 0)
(-4.59796e-299 4.80041e-301 0)
(-2.62021e-299 -5.80135e-302 0)
(-1.49867e-299 2.10067e-301 0)
(-8.52834e-300 4.2619e-301 0)
(-4.79847e-300 4.79993e-301 0)
(-2.63992e-300 4.25721e-301 0)
(-1.25104e-300 2.65325e-301 0)
(-4.28577e-308 -1.80196e-307 0)
(-5.57167e-307 -2.56467e-306 0)
(-2.04395e-307 -2.04875e-306 0)
(-1.7847e-307 -7.39808e-307 0)
(-1.82028e-307 -1.44248e-307 0)
(-1.1872e-307 -3.90023e-311 0)
(-5.64347e-308 1.25294e-308 0)
(-2.16271e-308 6.17315e-309 0)
(-7.08865e-309 2.10001e-309 0)
(-2.06073e-309 5.95788e-310 0)
(-5.43825e-310 1.50873e-310 0)
(-1.32204e-310 3.53773e-311 0)
(-2.98423e-311 7.88579e-312 0)
(-6.26258e-312 1.70772e-312 0)
(-1.21249e-312 3.63691e-313 0)
(-2.11691e-313 7.50605e-314 0)
(-3.14967e-314 1.40539e-314 0)
(-3.36503e-315 2.00392e-315 0)
(-1.02611e-316 1.02611e-316 0)
(1.0275e-307 -1.48477e-306 0)
(-2.55692e-306 -1.11569e-305 0)
(-1.76348e-306 -7.60025e-306 0)
(-1.47444e-306 -2.61752e-306 0)
(-1.03097e-306 -4.93448e-307 0)
(-5.56889e-307 1.87619e-308 0)
(-2.44167e-307 5.91837e-308 0)
(-9.10911e-308 2.99492e-308 0)
(-2.99024e-308 1.0843e-308 0)
(-8.8417e-309 3.30227e-309 0)
(-2.39375e-309 8.98497e-310 0)
(-6.00043e-310 2.25532e-310 0)
(-1.40183e-310 5.33725e-311 0)
(-3.05674e-311 1.21088e-311 0)
(-6.18536e-312 2.66023e-312 0)
(-1.14004e-312 5.6249e-313 0)
(-1.82612e-313 1.10112e-313 0)
(-2.21466e-314 1.78686e-314 0)
(-8.66717e-316 1.32527e-315 0)
(4.72795e-307 -6.77799e-306 0)
(-8.90673e-306 -3.38945e-305 0)
(-7.13124e-306 -1.98063e-305 0)
(-5.50428e-306 -6.29401e-306 0)
(-3.35158e-306 -1.0891e-306 0)
(-1.64921e-306 9.26291e-308 0)
(-6.86448e-307 1.63837e-307 0)
(-2.5008e-307 8.17766e-308 0)
(-8.16555e-308 3.01251e-308 0)
(-2.43034e-308 9.42998e-309 0)
(-6.67492e-309 2.64853e-309 0)
(-1.70639e-309 6.87521e-310 0)
(-4.082e-310 1.68341e-310 0)
(-9.14954e-311 3.95023e-311 0)
(-1.91241e-311 8.9741e-312 0)
(-3.66793e-312 1.96764e-312 0)
(-6.19524e-313 4.04371e-313 0)
(-8.16565e-314 7.14909e-314 0)
(-3.93061e-315 6.56489e-315 0)
(-2.48119e-307 -2.88132e-305 0)
(-3.05664e-305 -9.58368e-305 0)
(-2.51109e-305 -4.78547e-305 0)
(-1.74521e-305 -1.38374e-305 0)
(-9.58692e-306 -2.14024e-306 0)
(-4.39662e-306 3.0912e-307 0)
(-1.75521e-306 3.97079e-307 0)
(-6.26384e-307 1.94024e-307 0)
(-2.03368e-307 7.1994e-308 0)
(-6.08175e-308 2.29408e-308 0)
(-1.69054e-308 6.59443e-309 0)
(-4.39678e-309 1.75765e-309 0)
(-1.07438e-309 4.42877e-310 0)
(-2.4691e-310 1.07141e-310 0)
(-5.3145e-311 2.5144e-311 0)
(-1.05614e-311 5.71635e-312 0)
(-1.86731e-312 1.22967e-312 0)
(-2.63169e-313 2.33393e-313 0)
(-1.47969e-314 2.50844e-314 0)
(-1.60147e-305 -1.20517e-304 0)
(-1.0056e-304 -2.56873e-304 0)
(-8.11539e-305 -1.09797e-304 0)
(-5.0552e-305 -2.88039e-305 0)
(-2.54616e-305 -3.93822e-306 0)
(-1.10302e-305 8.40984e-307 0)
(-4.25922e-306 8.88806e-307 0)
(-1.49608e-306 4.26317e-307 0)
(-4.84182e-307 1.5906e-307 0)
(-1.45659e-307 5.14665e-308 0)
(-4.09994e-308 1.51037e-308 0)
(-1.08501e-308 4.12427e-309 0)
(-2.70812e-309 1.06743e-309 0)
(-6.37933e-310 2.6583e-310 0)
(-1.41299e-310 6.43599e-311 0)
(-2.90522e-311 1.51445e-311 0)
(-5.36079e-312 3.39698e-312 0)
(-8.02211e-313 6.85527e-313 0)
(-5.13219e-314 8.38628e-314 0)
(-1.3462e-304 -5.14873e-304 0)
(-3.29639e-304 -6.53769e-304 0)
(-2.43569e-304 -2.3795e-304 0)
(-1.36132e-304 -5.6773e-305 0)
(-6.35822e-305 -6.84491e-306 0)
(-2.62918e-305 1.98614e-306 0)
(-9.8932e-306 1.8524e-306 0)
(-3.43724e-306 8.77516e-307 0)
(-1.11231e-306 3.29545e-307 0)
(-3.37267e-307 1.08229e-307 0)
(-9.62459e-308 3.23955e-308 0)
(-2.59371e-308 9.05257e-309 0)
(-6.61551e-309 2.40387e-309 0)
(-1.59763e-309 6.15544e-310 0)
(-3.64076e-310 1.53535e-310 0)
(-7.73911e-311 3.73212e-311 0)
(-1.48805e-311 8.70107e-312 0)
(-2.35748e-312 1.85602e-312 0)
(-1.70565e-313 2.56496e-313 0)
(-9.32809e-304 -2.15635e-303 0)
(-1.11077e-303 -1.5679e-303 0)
(-6.97238e-304 -4.83396e-304 0)
(-3.47735e-304 -1.05696e-304 0)
(-1.51883e-304 -1.11868e-305 0)
(-6.04998e-305 4.31058e-306 0)
(-2.23478e-305 3.66876e-306 0)
(-7.72091e-306 1.72425e-306 0)
(-2.5078e-306 6.52832e-307 0)
(-7.68527e-307 2.17712e-307 0)
(-2.22826e-307 6.6458e-308 0)
(-6.1258e-308 1.89969e-308 0)
(-1.59919e-308 5.17232e-309 0)
(-3.96474e-309 1.3603e-309 0)
(-9.30569e-310 3.48853e-310 0)
(-2.04618e-310 8.72756e-311 0)
(-4.09789e-311 2.10018e-311 0)
(-6.84666e-312 4.65968e-312 0)
(-5.51669e-313 7.09118e-313 0)
(-5.3951e-303 -9.05206e-303 0)
(-3.5802e-303 -3.36055e-303 0)
(-1.82641e-303 -8.99088e-304 0)
(-8.21932e-304 -1.84882e-304 0)
(-3.40533e-304 -1.81455e-305 0)
(-1.32048e-304 8.20096e-306 0)
(-4.82395e-305 6.73905e-306 0)
(-1.66539e-305 3.18081e-306 0)
(-5.44556e-306 1.22037e-306 0)
(-1.68952e-306 4.1419e-307 0)
(-4.98128e-307 1.29014e-307 0)
(-1.39744e-307 3.76983e-308 0)
(-3.73345e-308 1.05034e-308 0)
(-9.49631e-309 2.82725e-309 0)
(-2.29255e-309 7.4149e-310 0)
(-5.2018e-310 1.89456e-310 0)
(-1.08094e-310 4.65177e-311 0)
(-1.89672e-311 1.05208e-311 0)
(-1.74754e-312 1.69206e-312 0)
(-1.61711e-299 -2.79486e-300 0)
(-4.92484e-299 -1.07706e-299 0)
(-8.65767e-299 -1.55217e-299 0)
(-1.31448e-298 -1.6615e-299 0)
(-1.87199e-298 -1.23797e-299 0)
(-2.57172e-298 2.64511e-301 0)
(-3.44613e-298 2.62877e-299 0)
(-4.5252e-298 7.30297e-299 0)
(-5.83367e-298 1.51231e-298 0)
(-7.38789e-298 2.761e-298 0)
(-9.19153e-298 4.69502e-298 0)
(-1.12319e-297 7.6234e-298 0)
(-1.34866e-297 1.14196e-297 0)
(-4.17989e-298 2.02561e-298 0)
(-1.95325e-298 4.07895e-299 0)
(-1.06418e-298 9.27608e-300 0)
(-6.11348e-299 2.03591e-300 0)
(-3.58311e-299 6.16109e-301 0)
(-2.1095e-299 5.13763e-301 0)
(-1.23566e-299 5.60407e-301 0)
(-7.14824e-300 5.09725e-301 0)
(-4.04171e-300 3.54744e-301 0)
(-2.14563e-300 1.26307e-301 0)
(-2.29116e-299 -3.94891e-300 0)
(-6.97695e-299 -1.42315e-299 0)
(-1.22193e-298 -2.0549e-299 0)
(-1.84446e-298 -2.20024e-299 0)
(-2.60868e-298 -1.64835e-299 0)
(-3.55813e-298 -2.98952e-301 0)
(-4.73577e-298 3.21081e-299 0)
(-6.18252e-298 8.88091e-299 0)
(-7.93576e-298 1.80901e-298 0)
(-1.0027e-297 3.23589e-298 0)
(-1.24798e-297 5.37165e-298 0)
(-1.53131e-297 8.47832e-298 0)
(-1.84765e-297 1.23085e-297 0)
(-5.48489e-298 2.27734e-298 0)
(-2.52797e-298 5.03313e-299 0)
(-1.38256e-298 1.35703e-299 0)
(-8.0333e-299 4.06816e-300 0)
(-4.77739e-299 1.56269e-300 0)
(-2.85503e-299 9.10934e-301 0)
(-1.69408e-299 6.68983e-301 0)
(-9.86632e-300 4.61183e-301 0)
(-5.53412e-300 2.30999e-301 0)
(-2.8263e-300 9.00614e-303 0)
(-2.97944e-299 -5.44417e-300 0)
(-9.04925e-299 -1.87146e-299 0)
(-1.5802e-298 -2.73576e-299 0)
(-2.37656e-298 -3.00973e-299 0)
(-3.34777e-298 -2.43876e-299 0)
(-4.54788e-298 -6.16348e-300 0)
(-6.03035e-298 3.06047e-299 0)
(-7.84699e-298 9.41845e-299 0)
(-1.00462e-297 1.95714e-298 0)
(-1.26716e-297 3.49447e-298 0)
(-1.57588e-297 5.73487e-298 0)
(-1.93418e-297 8.88551e-298 0)
(-2.3343e-297 1.2619e-297 0)
(-6.84384e-298 2.40541e-298 0)
(-3.12183e-298 5.60034e-299 0)
(-1.70076e-298 1.643e-299 0)
(-9.88994e-299 5.59022e-300 0)
(-5.89926e-299 2.34784e-300 0)
(-3.53711e-299 1.27034e-300 0)
(-2.10252e-299 7.85975e-301 0)
(-1.22223e-299 4.54294e-301 0)
(-6.80057e-300 1.86473e-301 0)
(-3.42046e-300 -5.94817e-303 0)
(-3.69222e-299 -7.62873e-300 0)
(-1.11589e-298 -2.53168e-299 0)
(-1.94227e-298 -3.77317e-299 0)
(-2.91155e-298 -4.3209e-299 0)
(-4.08814e-298 -3.88964e-299 0)
(-5.53658e-298 -2.03553e-299 0)
(-7.32067e-298 1.862e-299 0)
(-9.50203e-298 8.64517e-299 0)
(-1.21386e-297 1.93867e-298 0)
(-1.52823e-297 3.54227e-298 0)
(-1.89763e-297 5.83275e-298 0)
(-2.32606e-297 8.97699e-298 0)
(-2.80419e-297 1.26009e-297 0)
(-8.23371e-298 2.45586e-298 0)
(-3.73793e-298 5.89108e-299 0)
(-2.02756e-298 1.80948e-299 0)
(-1.17621e-298 6.59905e-300 0)
(-7.00663e-299 2.94283e-300 0)
(-4.19581e-299 1.59293e-300 0)
(-2.48897e-299 9.39691e-301 0)
(-1.44196e-299 5.19831e-301 0)
(-7.98681e-300 2.23964e-301 0)
(-4.00522e-300 3.84344e-302 0)
(-4.44141e-299 -1.09388e-299 0)
(-1.33295e-298 -3.53851e-299 0)
(-2.31109e-298 -5.38103e-299 0)
(-3.45239e-298 -6.42175e-299 0)
(-4.8322e-298 -6.33908e-299 0)
(-6.52571e-298 -4.66811e-299 0)
(-8.60669e-298 -7.63683e-300 0)
(-1.11461e-297 6.20754e-299 0)
(-1.42099e-297 1.72968e-298 0)
(-1.78569e-297 3.37435e-298 0)
(-2.21355e-297 5.69706e-298 0)
(-2.70898e-297 8.83611e-298 0)
(-3.26185e-297 1.23964e-297 0)
(-9.64529e-298 2.45911e-298 0)
(-4.374e-298 5.99428e-299 0)
(-2.36505e-298 1.88551e-299 0)
(-1.36823e-298 7.16631e-300 0)
(-8.13018e-299 3.34666e-300 0)
(-4.85597e-299 1.86194e-300 0)
(-2.87208e-299 1.11182e-300 0)
(-1.65866e-299 6.34324e-301 0)
(-9.1642e-300 3.11067e-301 0)
(-4.59738e-300 1.10811e-301 0)
(-5.24265e-299 -1.594e-299 0)
(-1.55933e-298 -5.05984e-299 0)
(-2.69107e-298 -7.83357e-299 0)
(-4.00441e-298 -9.67213e-299 0)
(-5.58624e-298 -1.02244e-298 0)
(-7.5227e-298 -8.9926e-299 0)
(-9.89777e-298 -5.32153e-299 0)
(-1.27914e-297 1.6355e-299 0)
(-1.62773e-297 1.29031e-298 0)
(-2.04207e-297 2.96832e-298 0)
(-2.5275e-297 5.32938e-298 0)
(-3.08881e-297 8.49844e-298 0)
(-3.71562e-297 1.20688e-297 0)
(-1.10815e-297 2.42836e-298 0)
(-5.02863e-298 5.94934e-299 0)
(-2.7133e-298 1.88572e-299 0)
(-1.56614e-298 7.3318e-300 0)
(-9.28405e-299 3.55146e-300 0)
(-5.53093e-299 2.05079e-300 0)
(-3.26243e-299 1.2689e-300 0)
(-1.87937e-299 7.62095e-301 0)
(-1.0368e-299 4.15047e-301 0)
(-5.20548e-300 1.90245e-301 0)
(-6.11506e-299 -2.33558e-299 0)
(-1.79886e-298 -7.31361e-299 0)
(-3.08766e-298 -1.14786e-298 0)
(-4.57464e-298 -1.45404e-298 0)
(-6.35933e-298 -1.61021e-298 0)
(-8.53969e-298 -1.56413e-298 0)
(-1.12105e-297 -1.24717e-298 0)
(-1.44609e-297 -5.73938e-299 0)
(-1.83728e-297 5.59968e-299 0)
(-2.30177e-297 2.27333e-298 0)
(-2.84546e-297 4.69723e-298 0)
(-3.47361e-297 7.95079e-298 0)
(-4.17585e-297 1.1624e-297 0)
(-1.2554e-297 2.36183e-298 0)
(-5.70299e-298 5.74362e-299 0)
(-3.07251e-298 1.80301e-299 0)
(-1.77033e-298 7.04564e-300 0)
(-1.04741e-298 3.51299e-300 0)
(-6.22683e-299 2.11717e-300 0)
(-3.66506e-299 1.37098e-300 0)
(-2.1074e-299 8.6779e-301 0)
(-1.16142e-299 5.0872e-301 0)
(-5.83441e-300 2.61277e-301 0)
(-7.07912e-299 -3.41359e-299 0)
(-2.05528e-298 -1.05775e-298 0)
(-3.50597e-298 -1.67679e-298 0)
(-5.16994e-298 -2.16222e-298 0)
(-7.16107e-298 -2.4697e-298 0)
(-9.5907e-298 -2.54245e-298 0)
(-1.25653e-297 -2.30969e-298 0)
(-1.61844e-297 -1.68183e-298 0)
(-2.05379e-297 -5.51538e-299 0)
(-2.57045e-297 1.20604e-298 0)
(-3.17492e-297 3.72652e-298 0)
(-3.87299e-297 7.13455e-298 0)
(-4.65446e-297 1.10174e-297 0)
(-1.40809e-297 2.24429e-298 0)
(-6.40081e-298 5.31107e-299 0)
(-3.44351e-298 1.60512e-299 0)
(-1.98102e-298 6.13658e-300 0)
(-1.1702e-298 3.13082e-300 0)
(-6.94536e-299 1.9955e-300 0)
(-4.08139e-299 1.37176e-300 0)
(-2.34361e-299 9.18335e-301 0)
(-1.29062e-299 5.70413e-301 0)
(-6.485e-300 3.12705e-301 0)
(-8.15264e-299 -4.9502e-299 0)
(-2.33076e-298 -1.52119e-298 0)
(-3.94854e-298 -2.42749e-298 0)
(-5.7939e-298 -3.1685e-298 0)
(-7.99794e-298 -3.69234e-298 0)
(-1.06874e-297 -3.93881e-298 0)
(-1.39823e-297 -3.83257e-298 0)
(-1.7993e-297 -3.28065e-298 0)
(-2.28189e-297 -2.16723e-298 0)
(-2.85457e-297 -3.5789e-299 0)
(-3.52449e-297 2.29843e-298 0)
(-4.29795e-297 5.93965e-298 0)
(-5.16509e-297 1.01563e-297 0)
(-1.56863e-297 2.04597e-298 0)
(-7.12785e-298 4.52468e-299 0)
(-3.82773e-298 1.2296e-299 0)
(-2.19846e-298 4.2796e-300 0)
(-1.2967e-298 2.22899e-300 0)
(-7.68542e-299 1.587e-300 0)
(-4.5105e-299 1.21396e-300 0)
(-2.5873e-299 8.80366e-301 0)
(-1.42391e-299 5.81843e-301 0)
(-7.15456e-300 3.36399e-301 0)
(-9.34386e-299 -7.10562e-299 0)
(-2.62375e-298 -2.16748e-298 0)
(-4.41154e-298 -3.47366e-298 0)
(-6.44211e-298 -4.56897e-298 0)
(-8.86743e-298 -5.39393e-298 0)
(-1.1833e-297 -5.88287e-298 0)
(-1.5474e-297 -5.95898e-298 0)
(-1.99136e-297 -5.52285e-298 0)
(-2.52605e-297 -4.44988e-298 0)
(-3.16085e-297 -2.58699e-298 0)
(-3.90352e-297 2.40006e-299 0)
(-4.7609e-297 4.19821e-298 0)
(-5.72339e-297 8.88726e-298 0)
(-1.73996e-297 1.71862e-298 0)
(-7.89128e-298 3.17928e-299 0)
(-4.22684e-298 5.75595e-300 0)
(-2.42276e-298 9.52848e-301 0)
(-1.42666e-298 5.33275e-301 0)
(-8.44411e-299 7.47411e-301 0)
(-4.95006e-299 8.22296e-301 0)
(-2.83682e-299 7.15557e-301 0)
(-1.56026e-299 5.24834e-301 0)
(-7.8379e-300 3.25374e-301 0)
(-1.06416e-298 -1.00874e-298 0)
(-2.92527e-298 -3.0561e-298 0)
(-4.87929e-298 -4.9081e-298 0)
(-7.09472e-298 -6.48514e-298 0)
(-9.75025e-298 -7.71616e-298 0)
(-1.30132e-297 -8.53459e-298 0)
(-1.7037e-297 -8.86204e-298 0)
(-2.19581e-297 -8.59739e-298 0)
(-2.78963e-297 -7.60218e-298 0)
(-3.49532e-297 -5.70102e-298 0)
(-4.32136e-297 -2.68145e-298 0)
(-5.27499e-297 1.66871e-298 0)
(-6.34666e-297 6.97611e-298 0)
(-1.92537e-297 1.18827e-298 0)
(-8.69814e-298 9.6489e-300 0)
(-4.64202e-298 -5.07562e-300 0)
(-2.65365e-298 -4.61096e-300 0)
(-1.55954e-298 -2.34998e-300 0)
(-9.2167e-299 -7.2301e-301 0)
(-5.39657e-299 9.75875e-302 0)
(-3.08985e-299 3.76409e-301 0)
(-1.69827e-299 3.7817e-301 0)
(-8.52781e-300 2.71712e-301 0)
(-1.19985e-298 -1.41742e-298 0)
(-3.21348e-298 -4.26369e-298 0)
(-5.31528e-298 -6.85026e-298 0)
(-7.70649e-298 -9.06683e-298 0)
(-1.05985e-297 -1.0833e-297 0)
(-1.41849e-297 -1.20831e-297 0)
(-1.86383e-297 -1.27481e-297 0)
(-2.41107e-297 -1.27263e-297 0)
(-3.07333e-297 -1.18694e-297 0)
(-3.86178e-297 -9.97029e-298 0)
(-4.78559e-297 -6.76765e-298 0)
(-5.85264e-297 -1.97744e-298 0)
(-7.05228e-297 4.07664e-298 0)
(-2.12789e-297 3.45231e-299 0)
(-9.55252e-298 -2.56646e-299 0)
(-5.07261e-298 -2.23117e-299 0)
(-2.88986e-298 -1.34534e-299 0)
(-1.69431e-298 -6.93684e-300 0)
(-9.99593e-299 -3.07733e-300 0)
(-5.84521e-299 -1.08205e-300 0)
(-3.34329e-299 -1.94238e-301 0)
(-1.83607e-299 1.16308e-301 0)
(-9.21448e-300 1.65319e-301 0)
(-1.33064e-298 -1.97469e-298 0)
(-3.44402e-298 -5.89307e-298 0)
(-5.64934e-298 -9.45262e-298 0)
(-8.19141e-298 -1.25022e-297 0)
(-1.13219e-297 -1.49512e-297 0)
(-1.52609e-297 -1.67509e-297 0)
(-2.02012e-297 -1.78508e-297 0)
(-2.63098e-297 -1.81639e-297 0)
(-3.37324e-297 -1.75319e-297 0)
(-4.25924e-297 -1.57156e-297 0)
(-5.29934e-297 -1.23883e-297 0)
(-6.50216e-297 -7.17112e-298 0)
(-7.8543e-297 -2.99729e-299 0)
(-2.34922e-297 -9.67071e-299 0)
(-1.04509e-297 -8.02619e-299 0)
(-5.51436e-298 -4.86816e-299 0)
(-3.12853e-298 -2.68411e-299 0)
(-1.82922e-298 -1.38194e-299 0)
(-1.0771e-298 -6.59211e-300 0)
(-6.28915e-299 -2.84585e-300 0)
(-3.59277e-299 -1.05671e-300 0)
(-1.97099e-299 -2.88524e-301 0)
(-9.88331e-300 -5.76764e-303 0)
(-1.43463e-298 -2.73677e-298 0)
(-3.5335e-298 -8.0846e-298 0)
(-5.75548e-298 -1.29172e-297 0)
(-8.40308e-298 -1.70238e-297 0)
(-1.17687e-297 -2.03184e-297 0)
(-1.60947e-297 -2.27879e-297 0)
(-2.15873e-297 -2.443e-297 0)
(-2.84289e-297 -2.51848e-297 0)
(-3.67813e-297 -2.48983e-297 0)
(-4.67882e-297 -2.32943e-297 0)
(-5.85694e-297 -1.99761e-297 0)
(-7.22286e-297 -1.4443e-297 0)
(-8.75719e-297 -6.80775e-298 0)
(-2.58786e-297 -2.95891e-298 0)
(-1.13763e-297 -1.61731e-298 0)
(-5.95784e-298 -8.7234e-299 0)
(-3.3648e-298 -4.6034e-299 0)
(-1.96163e-298 -2.35242e-299 0)
(-1.15262e-298 -1.14928e-299 0)
(-6.71806e-299 -5.29496e-300 0)
(-3.83147e-299 -2.2591e-300 0)
(-2.09872e-299 -8.60159e-301 0)
(-1.05102e-299 -2.53186e-301 0)
(-1.46746e-298 -3.79296e-298 0)
(-3.32505e-298 -1.10423e-297 0)
(-5.41641e-298 -1.75133e-297 0)
(-8.10539e-298 -2.29251e-297 0)
(-1.17087e-297 -2.72208e-297 0)
(-1.64664e-297 -3.04722e-297 0)
(-2.25855e-297 -3.27571e-297 0)
(-3.02586e-297 -3.40757e-297 0)
(-3.96725e-297 -3.42856e-297 0)
(-5.09998e-297 -3.30845e-297 0)
(-6.43918e-297 -2.99989e-297 0)
(-7.99822e-297 -2.44041e-297 0)
(-9.74794e-297 -1.62554e-297 0)
(-2.83649e-297 -5.88489e-298 0)
(-1.2293e-297 -2.77738e-298 0)
(-6.38804e-298 -1.40342e-298 0)
(-3.59178e-298 -7.17178e-299 0)
(-2.0877e-298 -3.62297e-299 0)
(-1.2236e-298 -1.78252e-299 0)
(-7.11428e-299 -8.44724e-300 0)
(-4.04747e-299 -3.81406e-300 0)
(-2.21176e-299 -1.60867e-300 0)
(-1.10536e-299 -5.84192e-301 0)
(-1.32655e-298 -5.30294e-298 0)
(-2.51364e-298 -1.5074e-297 0)
(-4.25877e-298 -2.36132e-297 0)
(-6.93756e-298 -3.05687e-297 0)
(-1.08176e-297 -3.59881e-297 0)
(-1.60816e-297 -4.00939e-297 0)
(-2.29081e-297 -4.31066e-297 0)
(-3.15013e-297 -4.51117e-297 0)
(-4.20835e-297 -4.60029e-297 0)
(-5.48787e-297 -4.54514e-297 0)
(-7.00855e-297 -4.29227e-297 0)
(-8.78924e-297 -3.76819e-297 0)
(-1.07865e-296 -2.95413e-297 0)
(-3.07807e-297 -9.98709e-298 0)
(-1.31436e-297 -4.31732e-298 0)
(-6.7844e-298 -2.07428e-298 0)
(-3.79928e-298 -1.0298e-298 0)
(-2.20063e-298 -5.13494e-299 0)
(-1.28513e-298 -2.52946e-299 0)
(-7.44372e-299 -1.21746e-299 0)
(-4.21865e-299 -5.67248e-300 0)
(-2.29691e-299 -2.5181e-300 0)
(-1.14432e-299 -9.95716e-301 0)
(-7.16836e-299 -7.57245e-298 0)
(-4.66226e-299 -2.06684e-297 0)
(-1.6431e-298 -3.17261e-297 0)
(-4.37536e-298 -4.0399e-297 0)
(-8.68547e-298 -4.6974e-297 0)
(-1.45904e-297 -5.1944e-297 0)
(-2.22127e-297 -5.57297e-297 0)
(-3.17786e-297 -5.85448e-297 0)
(-4.35808e-297 -6.03231e-297 0)
(-5.79227e-297 -6.07214e-297 0)
(-7.50753e-297 -5.91482e-297 0)
(-9.52968e-297 -5.48238e-297 0)
(-1.17991e-296 -4.74988e-297 0)
(-3.27757e-297 -1.53006e-297 0)
(-1.3847e-297 -6.12588e-298 0)
(-7.11383e-298 -2.80928e-298 0)
(-3.96544e-298 -1.35969e-298 0)
(-2.2847e-298 -6.71299e-299 0)
(-1.32659e-298 -3.31439e-299 0)
(-7.63974e-299 -1.61583e-299 0)
(-4.306e-299 -7.70103e-300 0)
(-2.33278e-299 -3.533e-300 0)
(-1.15724e-299 -1.46646e-300 0)
(1.43126e-298 -1.11929e-297 0)
(4.20968e-298 -2.85882e-297 0)
(3.51131e-298 -4.25214e-297 0)
(2.74897e-299 -5.29061e-297 0)
(-4.8703e-298 -6.0528e-297 0)
(-1.16533e-297 -6.62749e-297 0)
(-2.01472e-297 -7.08391e-297 0)
(-3.06653e-297 -7.45756e-297 0)
(-4.36383e-297 -7.74702e-297 0)
(-5.95058e-297 -7.91457e-297 0)
(-7.8623e-297 -7.89575e-297 0)
(-1.01289e-296 -7.61502e-297 0)
(-1.26811e-296 -7.06343e-297 0)
(-3.36607e-297 -2.106e-297 0)
(-1.42755e-297 -7.75819e-298 0)
(-7.28943e-298 -3.41806e-298 0)
(-4.02972e-298 -1.6321e-298 0)
(-2.30266e-298 -8.06541e-299 0)
(-1.32692e-298 -4.01885e-299 0)
(-7.58945e-299 -1.98884e-299 0)
(-4.25141e-299 -9.66822e-300 0)
(-2.2907e-299 -4.54542e-300 0)
(-1.13096e-299 -1.94832e-300 0)
(9.36365e-298 -1.64498e-297 0)
(1.45986e-297 -4.001e-297 0)
(1.2796e-297 -5.68423e-297 0)
(7.67617e-298 -6.86157e-297 0)
(8.77925e-299 -7.69716e-297 0)
(-7.10284e-298 -8.33078e-297 0)
(-1.64516e-297 -8.86067e-297 0)
(-2.77317e-297 -9.33794e-297 0)
(-4.16623e-297 -9.7641e-297 0)
(-5.8919e-297 -1.00955e-296 0)
(-7.99559e-297 -1.02546e-296 0)
(-1.04907e-296 -1.01648e-296 0)
(-1.32892e-296 -9.85676e-297 0)
(-3.2978e-297 -2.29522e-297 0)
(-1.38491e-297 -8.04106e-298 0)
(-6.98901e-298 -3.59858e-298 0)
(-3.8408e-298 -1.75782e-298 0)
(-2.18573e-298 -8.8702e-299 0)
(-1.25529e-298 -4.50553e-299 0)
(-7.15545e-299 -2.27111e-299 0)
(-3.9942e-299 -1.12466e-299 0)
(-2.14443e-299 -5.39082e-300 0)
(-1.05471e-299 -2.36343e-300 0)
(3.73651e-297 -2.63358e-297 0)
(3.43886e-297 -5.47219e-297 0)
(2.66207e-297 -7.39224e-297 0)
(1.73115e-297 -8.67461e-297 0)
(7.93383e-298 -9.56591e-297 0)
(-1.37605e-298 -1.02517e-296 0)
(-1.12716e-297 -1.08578e-296 0)
(-2.28264e-297 -1.1448e-296 0)
(-3.72596e-297 -1.20273e-296 0)
(-5.56771e-297 -1.2544e-296 0)
(-7.87259e-297 -1.29064e-296 0)
(-1.06009e-296 -1.29959e-296 0)
(-4.26141e-297 -4.11739e-297 0)
(-1.94424e-297 -1.53467e-297 0)
(-1.01014e-297 -6.81928e-298 0)
(-5.59883e-298 -3.34471e-298 0)
(-3.22152e-298 -1.71704e-298 0)
(-1.8789e-298 -8.95039e-299 0)
(-1.0937e-298 -4.65759e-299 0)
(-6.27876e-299 -2.39498e-299 0)
(-3.51633e-299 -1.20682e-299 0)
(-1.88949e-299 -5.87821e-300 0)
(-9.28074e-300 -2.61975e-300 0)
(1.01507e-297 -1.39428e-297 0)
(6.72067e-298 -2.25933e-297 0)
(4.9398e-298 -2.62272e-297 0)
(3.01767e-298 -2.88048e-297 0)
(9.57349e-299 -3.06847e-297 0)
(-1.31549e-298 -3.21165e-297 0)
(-3.98515e-298 -3.32981e-297 0)
(-7.32782e-298 -3.43182e-297 0)
(-1.16286e-297 -3.5114e-297 0)
(-1.6962e-297 -3.54152e-297 0)
(-2.25677e-297 -3.46603e-297 0)
(-2.41189e-297 -3.28572e-297 0)
(-1.57615e-297 -1.92609e-297 0)
(-1.015e-297 -1.00549e-297 0)
(-6.34462e-298 -5.27595e-298 0)
(-3.92786e-298 -2.82783e-298 0)
(-2.41284e-298 -1.53083e-298 0)
(-1.46514e-298 -8.26987e-299 0)
(-8.74592e-299 -4.41962e-299 0)
(-5.09974e-299 -2.32037e-299 0)
(-2.88296e-299 -1.18919e-299 0)
(-1.55716e-299 -5.87555e-300 0)
(-7.65706e-300 -2.65154e-300 0)
(-3.38721e-299 -5.94055e-298 0)
(-1.62287e-299 -1.05034e-297 0)
(-5.52254e-300 -1.2296e-297 0)
(-1.83889e-299 -1.33972e-297 0)
(-5.47029e-299 -1.41149e-297 0)
(-1.1423e-298 -1.45941e-297 0)
(-2.00654e-298 -1.49226e-297 0)
(-3.19557e-298 -1.51378e-297 0)
(-4.73511e-298 -1.52341e-297 0)
(-6.51302e-298 -1.51783e-297 0)
(-8.0884e-298 -1.49182e-297 0)
(-8.29527e-298 -1.40221e-297 0)
(-6.94447e-298 -1.01316e-297 0)
(-5.31187e-298 -6.34763e-298 0)
(-3.77379e-298 -3.77611e-298 0)
(-2.55331e-298 -2.19296e-298 0)
(-1.66684e-298 -1.25167e-298 0)
(-1.05533e-298 -7.01935e-299 0)
(-6.4807e-299 -3.85563e-299 0)
(-3.85149e-299 -2.06692e-299 0)
(-2.20476e-299 -1.07677e-299 0)
(-1.20005e-299 -5.38974e-300 0)
(-5.91635e-300 -2.45596e-300 0)
(-1.00583e-298 -2.2733e-298 0)
(-9.43575e-299 -5.06579e-298 0)
(-8.11792e-299 -6.37231e-298 0)
(-7.04561e-299 -7.10204e-298 0)
(-7.10495e-299 -7.52217e-298 0)
(-8.55223e-299 -7.76061e-298 0)
(-1.15773e-298 -7.88891e-298 0)
(-1.62938e-298 -7.94427e-298 0)
(-2.25425e-298 -7.94164e-298 0)
(-2.95027e-298 -7.87879e-298 0)
(-3.52468e-298 -7.70854e-298 0)
(-3.67483e-298 -7.1656e-298 0)
(-3.38464e-298 -5.66714e-298 0)
(-2.83871e-298 -3.95612e-298 0)
(-2.18914e-298 -2.56751e-298 0)
(-1.58162e-298 -1.59025e-298 0)
(-1.08571e-298 -9.51536e-299 0)
(-7.13294e-299 -5.52391e-299 0)
(-4.49867e-299 -3.11324e-299 0)
(-2.72471e-299 -1.70194e-299 0)
(-1.58038e-299 -9.00146e-300 0)
(-8.67528e-300 -4.55785e-300 0)
(-4.28956e-300 -2.09189e-300 0)
(-6.03132e-299 -9.14173e-299 0)
(-7.01011e-299 -2.47167e-298 0)
(-6.8658e-299 -3.37731e-298 0)
(-6.1704e-299 -3.91376e-298 0)
(-5.74035e-299 -4.22086e-298 0)
(-5.93765e-299 -4.38547e-298 0)
(-6.9539e-299 -4.46316e-298 0)
(-8.84408e-299 -4.48734e-298 0)
(-1.14718e-298 -4.47517e-298 0)
(-1.44041e-298 -4.42636e-298 0)
(-1.68568e-298 -4.30274e-298 0)
(-1.79111e-298 -3.97764e-298 0)
(-1.73295e-298 -3.2849e-298 0)
(-1.53399e-298 -2.44254e-298 0)
(-1.24819e-298 -1.68196e-298 0)
(-9.46e-299 -1.09424e-298 0)
(-6.75253e-299 -6.80399e-299 0)
(-4.57317e-299 -4.0678e-299 0)
(-2.95135e-299 -2.34474e-299 0)
(-1.81817e-299 -1.30414e-299 0)
(-1.0675e-299 -6.98949e-300 0)
(-5.90743e-300 -3.57391e-300 0)
(-2.92812e-300 -1.64824e-300 0)
(-3.0597e-299 -3.87122e-299 0)
(-4.11138e-299 -1.21118e-298 0)
(-4.41972e-299 -1.78877e-298 0)
(-4.20516e-299 -2.16711e-298 0)
(-3.92429e-299 -2.3973e-298 0)
(-3.85525e-299 -2.52522e-298 0)
(-4.16147e-299 -2.58693e-298 0)
(-4.90009e-299 -2.60725e-298 0)
(-6.00947e-299 -2.59978e-298 0)
(-7.292e-299 -2.56425e-298 0)
(-8.42988e-299 -2.477e-298 0)
(-9.07875e-299 -2.2814e-298 0)
(-9.04367e-299 -1.92729e-298 0)
(-8.28696e-299 -1.48907e-298 0)
(-6.99744e-299 -1.06753e-298 0)
(-5.48981e-299 -7.19936e-299 0)
(-4.03622e-299 -4.61185e-299 0)
(-2.80004e-299 -2.82359e-299 0)
(-1.84135e-299 -1.65818e-299 0)
(-1.15067e-299 -9.35704e-300 0)
(-6.82723e-300 -5.07075e-300 0)
(-3.80461e-300 -2.6134e-300 0)
(-1.88861e-300 -1.20837e-300 0)
(-1.46031e-299 -1.69474e-299 0)
(-2.1816e-299 -5.92426e-299 0)
(-2.5163e-299 -9.37803e-299 0)
(-2.52839e-299 -1.18817e-298 0)
(-2.41751e-299 -1.35277e-298 0)
(-2.3448e-299 -1.45053e-298 0)
(-2.42216e-299 -1.50127e-298 0)
(-2.7013e-299 -1.52075e-298 0)
(-3.16748e-299 -1.5182e-298 0)
(-3.73995e-299 -1.49378e-298 0)
(-4.28694e-299 -1.4351e-298 0)
(-4.65803e-299 -1.31801e-298 0)
(-4.72761e-299 -1.12711e-298 0)
(-4.4369e-299 -8.9161e-299 0)
(-3.84549e-299 -6.56716e-299 0)
(-3.09354e-299 -4.54433e-299 0)
(-2.32553e-299 -2.97704e-299 0)
(-1.64353e-299 -1.85677e-299 0)