/*--------------------------------*- C++ -*----------------------------------*\
| =========                 |                                                 |
| \\      /  F ield         | OpenFOAM: The Open Source CFD Toolbox           |
|  \\    /   O peration     | Version:  2406                                  |
|   \\  /    A nd           | Website:  www.openfoam.com                      |
|    \\/     M anipulation  |                                                 |
\*---------------------------------------------------------------------------*/
FoamFile
{
    version     2.0;
    format      ascii;
    arch        "LSB;label=32;scalar=64";
    class       surfaceScalarField;
    location    "6";
    object      alphaPhi0.grout;
}
// * * * * * * * * * * * * * * * * * * * * * * * * * * * * * * * * * * * * * //

dimensions      [0 3 -1 0 0 0 0];

oriented        oriented;

internalField   nonuniform List<scalar> 
19800
(
3.72092e-13
2.93951e-13
7.56874e-13
5.37665e-13
1.19313e-12
5.8852e-13
1.54421e-12
5.81771e-13
1.74769e-12
6.01199e-13
1.80095e-12
6.61082e-13
1.74435e-12
7.13731e-13
1.60186e-12
6.97472e-13
1.37399e-12
5.89005e-13
1.0601e-12
4.1892e-13
6.79695e-13
2.43081e-13
2.72574e-13
1.04419e-13
-1.15794e-13
1.56964e-14
-4.48554e-13
-3.21504e-14
-7.0364e-13
-5.19941e-14
-8.72402e-13
-4.86856e-14
-9.54336e-13
-1.85338e-14
-9.52099e-13
4.34291e-14
-8.69833e-13
1.35577e-13
-7.15209e-13
2.4667e-13
-5.02831e-13
3.59234e-13
-2.55739e-13
4.56239e-13
-3.19395e-15
5.26465e-13
2.24356e-13
5.65427e-13
4.00541e-13
5.72624e-13
5.06285e-13
5.48378e-13
5.30637e-13
4.93368e-13
4.70617e-13
4.10959e-13
3.31436e-13
3.09856e-13
1.27076e-13
2.04211e-13
-1.20046e-13
1.10571e-13
-3.81437e-13
4.3466e-14
-6.26773e-13
1.22421e-14
-8.28706e-13
2.04113e-14
-9.66706e-13
6.6916e-14
-1.02907e-12
1.4775e-13
-1.01316e-12
2.56794e-13
-9.24295e-13
3.85803e-13
-7.74113e-13
5.2426e-13
-5.7868e-13
6.59892e-13
-3.56747e-13
7.80184e-13
-1.28222e-13
8.74633e-13
8.72485e-14
9.37023e-13
2.71722e-13
9.66921e-13
4.10482e-13
9.69764e-13
4.93339e-13
9.55486e-13
5.15279e-13
9.36277e-13
4.7615e-13
9.24376e-13
3.79627e-13
9.30656e-13
2.32076e-13
9.64053e-13
4.1988e-14
1.03134e-12
-1.79842e-13
1.13661e-12
-4.19791e-13
1.28031e-12
-6.61207e-13
1.45828e-12
-8.85012e-13
1.6615e-12
-1.07113e-12
1.87687e-12
-1.20044e-12
2.08898e-12
-1.25691e-12
2.28211e-12
-1.22962e-12
2.44211e-12
-1.11461e-12
2.5577e-12
-9.16191e-13
2.62132e-12
-6.47592e-13
2.62966e-12
-3.30376e-13
2.58377e-12
7.41065e-15
2.48882e-12
3.34356e-13
2.3535e-12
6.19661e-13
2.18902e-12
8.37449e-13
2.00818e-12
9.7074e-13
1.82423e-12
1.0144e-12
1.64987e-12
9.76397e-13
1.49609e-12
8.76921e-13
1.37114e-12
7.45223e-13
1.27975e-12
6.14679e-13
1.22288e-12
5.16967e-13
1.19801e-12
4.76551e-13
1.19978e-12
5.06526e-13
1.2207e-12
6.065e-13
1.25167e-12
7.62709e-13
1.28254e-12
9.50197e-13
1.30275e-12
1.13668e-12
1.30256e-12
1.28756e-12
1.27435e-12
1.37136e-12
1.21399e-12
1.36469e-12
1.12152e-12
1.2558e-12
1.00136e-12
1.04615e-12
8.61683e-13
7.50067e-13
7.1366e-13
3.92826e-13
5.69749e-13
7.64312e-15
4.41864e-13
-3.68643e-13
3.39675e-13
-7.01374e-13
2.70884e-13
-9.64223e-13
2.42841e-13
-1.14193e-12
2.62888e-13
-1.2265e-12
3.32659e-13
-1.20865e-12
4.37388e-13
-1.07794e-12
5.40865e-13
-8.40758e-13
5.97623e-13
-5.45875e-13
5.81589e-13
-2.77901e-13
5.00334e-13
-1.06159e-13
3.77546e-13
1.95863e-13
6.75284e-13
6.15488e-13
1.37922e-12
1.12014e-12
2.17754e-12
1.23788e-12
2.868e-12
1.22451e-12
3.28751e-12
1.21938e-12
3.37488e-12
1.23556e-12
3.19066e-12
1.23434e-12
2.82577e-12
1.16187e-12
2.34163e-12
9.90214e-13
1.76273e-12
7.34651e-13
1.10726e-12
4.43255e-13
4.13629e-13
1.69894e-13
-2.58061e-13
-4.77251e-14
-8.42797e-13
-1.93847e-13
-1.29006e-12
-2.67422e-13
-1.57416e-12
-2.71767e-13
-1.69276e-12
-2.0938e-13
-1.65804e-12
-8.36196e-14
-1.48786e-12
9.60578e-14
-1.20265e-12
3.10734e-13
-8.28281e-13
5.33639e-13
-4.0069e-13
7.36123e-13
3.324e-14
8.94193e-13
4.21076e-13
9.92171e-13
7.14478e-13
1.02258e-12
8.78294e-13
9.84399e-13
8.95231e-13
8.82173e-13
7.65689e-13
7.26943e-13
5.05201e-13
5.37374e-13
1.41976e-13
3.38965e-13
-2.85016e-13
1.60419e-13
-7.2886e-13
2.8323e-14
-1.1397e-12
-3.76574e-14
-1.47163e-12
-2.73983e-14
-1.68962e-12
5.9526e-14
-1.77427e-12
2.1528e-13
-1.72311e-12
4.25673e-13
-1.54878e-12
6.719e-13
-1.27495e-12
9.32152e-13
-9.31751e-13
1.18346e-12
-5.51631e-13
1.40413e-12
-1.66588e-13
1.57666e-12
1.93512e-13
1.6907e-12
5.02018e-13
1.74514e-12
7.36698e-13
1.7485e-12
8.81263e-13
1.71747e-12
9.26672e-13
1.67378e-12
8.71444e-13
1.64066e-12
7.20624e-13
1.63976e-12
4.83961e-13
1.68904e-12
1.74454e-13
1.8016e-12
-1.91854e-13
1.98464e-12
-5.9489e-13
2.23849e-12
-1.00938e-12
2.55574e-12
-1.40472e-12
2.92115e-12
-1.74663e-12
3.31271e-12
-2.00038e-12
3.70395e-12
-2.13498e-12
4.06692e-12
-2.12742e-12
4.37526e-12
-1.96653e-12
4.60683e-12
-1.65585e-12
4.74572e-12
-1.21511e-12
4.78341e-12
-6.79641e-13
4.71928e-12
-9.7383e-14
4.56034e-12
4.76505e-13
4.32038e-12
9.86857e-13
4.01866e-12
1.3864e-12
3.67826e-12
1.64305e-12
3.32429e-12
1.74536e-12
2.98186e-12
1.70494e-12
2.67391e-12
1.55521e-12
2.41894e-12
1.34621e-12
2.22914e-12
1.13602e-12
2.10901e-12
9.80398e-13
2.05513e-12
9.22503e-13
2.05669e-12
9.85018e-13
2.09691e-12
1.16613e-12
2.15483e-12
1.44002e-12
2.20757e-12
1.76129e-12
2.23284e-12
2.07254e-12
2.21175e-12
2.31345e-12
2.13153e-12
2.43037e-12
1.98739e-12
2.38474e-12
1.78355e-12
2.15912e-12
1.53269e-12
1.75956e-12
1.25449e-12
1.21434e-12
9.7288e-13
5.70074e-13
7.12557e-13
-1.13509e-13
4.94739e-13
-7.70143e-13
3.34425e-13
-1.33673e-12
2.40704e-13
-1.76634e-12
2.2044e-13
-2.03899e-12
2.79872e-13
-2.15784e-12
4.18165e-13
-2.12865e-12
6.13202e-13
-1.93923e-12
8.1416e-13
-1.579e-12
9.56085e-13
-1.09244e-12
9.93266e-13
-6.03061e-13
9.19439e-13
-2.2877e-13
7.36833e-13
3.5731e-13
7.42926e-13
1.0265e-12
1.53e-12
1.85372e-12
2.42682e-12
2.04271e-12
3.2379e-12
1.96364e-12
3.72923e-12
1.83267e-12
3.80991e-12
1.71334e-12
3.53794e-12
1.5917e-12
3.03819e-12
1.41482e-12
2.41617e-12
1.13914e-12
1.72775e-12
7.66803e-13
1.00024e-12
3.46583e-13
2.64896e-13
-5.32356e-14
-4.28754e-13
-3.75576e-13
-1.02112e-12
-5.90055e-13
-1.46078e-12
-6.90222e-13
-1.71947e-12
-6.81748e-13
-1.79586e-12
-5.72635e-13
-1.7087e-12
-3.71642e-13
-1.48581e-12
-9.34526e-14
-1.15659e-12
2.35608e-13
-7.51872e-13
5.77429e-13
-3.08457e-13
8.88868e-13
1.27636e-13
1.13175e-12
5.04355e-13
1.28039e-12
7.73115e-13
1.32369e-12
8.99683e-13
1.26284e-12
8.70656e-13
1.10859e-12
6.93336e-13
8.80378e-13
3.91197e-13
6.0684e-13
-1.17e-15
3.25022e-13
-4.416e-13
7.61952e-14
-8.83125e-13
-1.0112e-13
-1.27785e-12
-1.78361e-13
-1.58267e-12
-1.41609e-13
-1.76565e-12
7.48653e-15
-1.81084e-12
2.53916e-13
-1.71987e-12
5.73081e-13
-1.50984e-12
9.34688e-13
-1.20857e-12
1.30612e-12
-8.48919e-13
1.65529e-12
-4.6371e-13
1.95351e-12
-8.25788e-14
2.17846e-12
2.69129e-13
2.31732e-12
5.70102e-13
2.36927e-12
8.02677e-13
2.34627e-12
9.53181e-13
2.27161e-12
1.01294e-12
2.17608e-12
9.79042e-13
2.09311e-12
8.54017e-13
2.05408e-12
6.44489e-13
2.08511e-12
3.59789e-13
2.20519e-12
1.17403e-14
2.42515e-12
-3.84046e-13
2.74673e-12
-8.06186e-13
3.1617e-12
-1.22634e-12
3.65158e-12
-1.60999e-12
4.1886e-12
-1.91943e-12
4.73812e-12
-2.11837e-12
5.2621e-12
-2.17708e-12
5.72301e-12
-2.07732e-12
6.08738e-12
-1.81636e-12
6.32869e-12
-1.40926e-12
6.42958e-12
-8.88904e-13
6.38326e-12
-3.03245e-13
6.19408e-12
2.90432e-13
5.87723e-12
8.33324e-13
5.45754e-12
1.27384e-12
4.96766e-12
1.57565e-12
4.4455e-12
1.7237e-12
3.9311e-12
1.72695e-12
3.4628e-12
1.61728e-12
3.07298e-12
1.4442e-12
2.78395e-12
1.26612e-12
2.60475e-12
1.13936e-12
2.52978e-12
1.10728e-12
2.53956e-12
1.19177e-12
2.60353e-12
1.38908e-12
2.68426e-12
1.67065e-12
2.7425e-12
1.98835e-12
2.7425e-12
2.28283e-12
2.65702e-12
2.49326e-12
2.47146e-12
2.56716e-12
2.18628e-12
2.46879e-12
1.81709e-12
2.18485e-12
1.39264e-12
1.72621e-12
9.50753e-13
1.12556e-12
5.3332e-13
4.32833e-13
1.79747e-13
-2.8951e-13
-8.01171e-14
-9.71242e-13
-2.31749e-13
-1.5433e-12
-2.75667e-13
-1.95474e-12
-2.19282e-13
-2.19117e-12
-6.60222e-14
-2.27622e-12
1.84495e-13
-2.23957e-12
5.17913e-13
-2.0787e-12
8.80007e-13
-1.76104e-12
1.17772e-12
-1.29505e-12
1.31967e-12
-7.73622e-13
1.26856e-12
-3.30593e-13
1.0308e-12
4.90308e-13
7.21869e-13
1.39788e-12
1.49984e-12
2.57194e-12
2.3525e-12
2.86311e-12
3.17003e-12
2.74885e-12
3.67989e-12
2.46923e-12
3.75604e-12
2.13202e-12
3.42607e-12
1.78531e-12
2.82448e-12
1.42604e-12
2.09956e-12
1.02594e-12
1.35191e-12
5.70504e-13
6.29589e-13
8.22358e-14
-4.39177e-14
-3.85234e-13
-6.42922e-13
-7.71456e-13
-1.13074e-12
-1.03213e-12
-1.46866e-12
-1.14873e-12
-1.6319e-12
-1.12433e-12
-1.62058e-12
-9.73476e-13
-1.45922e-12
-7.14835e-13
-1.18639e-12
-3.70883e-13
-8.42447e-13
2.79046e-14
-4.63032e-13
4.40399e-13
-8.08096e-14
8.18476e-13
2.69267e-13
1.11643e-12
5.48263e-13
1.30127e-12
7.18989e-13
1.35846e-12
7.56312e-13
1.29161e-12
6.55286e-13
1.11847e-12
4.32113e-13
8.66886e-13
1.1836e-13
5.72638e-13
-2.47126e-13
2.77778e-13
-6.24348e-13
2.7282e-14
-9.75209e-13
-1.36947e-13
-1.26517e-12
-1.83372e-13
-1.46554e-12
-9.67248e-14
-1.55692e-12
1.19594e-13
-1.53248e-12
4.45126e-13
-1.39933e-12
8.46911e-13
-1.17696e-12
1.28529e-12
-8.92872e-13
1.7195e-12
-5.76961e-13
2.11216e-12
-2.56211e-13
2.43267e-12
4.85693e-14
2.65957e-12
3.2324e-13
2.78246e-12
5.58485e-13
2.80347e-12
7.47165e-13
2.73782e-12
8.82541e-13
2.61276e-12
9.58193e-13
2.46437e-12
9.6909e-13
2.33256e-12
9.12537e-13
2.25557e-12
7.88171e-13
2.26531e-12
5.97359e-13
2.38442e-12
3.43156e-13
2.62492e-12
3.17175e-14
2.98784e-12
-3.25118e-13
3.46307e-12
-7.0746e-13
4.02966e-12
-1.08679e-12
4.65677e-12
-1.42795e-12
5.30581e-12
-1.69347e-12
5.93372e-12
-1.84905e-12
6.49683e-12
-1.86921e-12
6.95474e-12
-1.74209e-12
7.27383e-12
-1.47255e-12
7.43016e-12
-1.0831e-12
7.41167e-12
-6.11866e-13
7.21949e-12
-1.07647e-13
6.86828e-12
3.7736e-13
6.38527e-12
7.95773e-13
5.80828e-12
1.11258e-12
5.18274e-12
1.31059e-12
4.55772e-12
1.39286e-12
3.98124e-12
1.38173e-12
3.49479e-12
1.31448e-12
3.12772e-12
1.23613e-12
2.89251e-12
1.19043e-12
2.78211e-12
1.21067e-12
2.77033e-12
1.31249e-12
2.81558e-12
1.49039e-12
2.8672e-12
1.71881e-12
2.87332e-12
1.95717e-12
2.78901e-12
2.15744e-12
2.58336e-12
2.27242e-12
2.24469e-12
2.26357e-12
1.78284e-12
2.10736e-12
1.22821e-12
1.79925e-12
6.27438e-13
1.35402e-12
3.71799e-14
8.02317e-13
-4.83572e-13
1.85437e-13
-8.81878e-13
-4.47374e-13
-1.12066e-12
-1.03825e-12
-1.18792e-12
-1.52291e-12
-1.1002e-12
-1.84678e-12
-8.93331e-13
-1.99429e-12
-6.02018e-13
-2.00509e-12
-2.42923e-13
-1.94673e-12
1.77707e-13
-1.84883e-12
6.32032e-13
-1.67319e-12
1.04356e-12
-1.36308e-12
1.30924e-12
-9.10296e-13
1.35378e-12
-4.52294e-13
1.14068e-12
5.50215e-13
7.10569e-13
1.67655e-12
1.44418e-12
3.12735e-12
2.17485e-12
3.4948e-12
2.88892e-12
3.36448e-12
3.34358e-12
2.96963e-12
3.40573e-12
2.43751e-12
3.06054e-12
1.86246e-12
2.4189e-12
1.2979e-12
1.64189e-12
7.52085e-13
8.65436e-13
2.13213e-13
1.67941e-13
-3.1732e-13
-4.20262e-13
-8.10286e-13
-8.8937e-13
-1.21756e-12
-1.22872e-12
-1.49343e-12
-1.422e-12
-1.61236e-12
-1.45693e-12
-1.57435e-12
-1.33867e-12
-1.39845e-12
-1.09579e-12
-1.11218e-12
-7.74377e-13
-7.4499e-13
-4.24268e-13
-3.28639e-13
-8.68346e-14
9.92235e-14
2.08652e-13
4.94571e-13
4.40357e-13
8.13068e-13
5.87938e-13
1.02028e-12
6.3242e-13
1.10021e-12
5.62948e-13
1.05774e-12
3.84812e-13
9.14788e-13
1.21957e-13
7.03986e-13
-1.88291e-13
4.63377e-13
-5.0488e-13
2.33278e-13
-7.91586e-13
5.38087e-14
-1.02119e-12
-3.88354e-14
-1.17575e-12
-1.76798e-14
-1.24539e-12
1.29742e-13
-1.22778e-12
3.98318e-13
-1.12844e-12
7.65868e-13
-9.60866e-13
1.19708e-12
-7.45152e-13
1.64959e-12
-5.04842e-13
2.08056e-12
-2.62534e-13
2.45233e-12
-3.55876e-14
2.73629e-12
1.66571e-13
2.91497e-12
3.42456e-13
2.98274e-12
4.9576e-13
2.9459e-12
6.31055e-13
2.82245e-12
7.49945e-13
2.64112e-12
8.49302e-13
2.43909e-12
9.21864e-13
2.25788e-12
9.58089e-13
2.13801e-12
9.47878e-13
2.11385e-12
8.8159e-13
2.20975e-12
7.50958e-13
2.4383e-12
5.50901e-13
2.80003e-12
2.82454e-13
3.28395e-12
-4.41195e-14
3.86841e-12
-4.07668e-13
4.52215e-12
-7.77117e-13
5.2062e-12
-1.11517e-12
5.87662e-12
-1.38383e-12
6.48802e-12
-1.55045e-12
6.99736e-12
-1.59306e-12
7.36767e-12
-1.50435e-12
7.5713e-12
-1.29336e-12
7.59265e-12
-9.84565e-13
7.43001e-12
-6.14071e-13
7.09635e-12
-2.23471e-13
6.6186e-12
1.47387e-13
6.03547e-12
4.67026e-13
5.39401e-12
7.16914e-13
4.74514e-12
8.93214e-13
4.13852e-12
1.00572e-12
3.61691e-12
1.07444e-12
3.21029e-12
1.12458e-12
2.93088e-12
1.18059e-12
2.76993e-12
1.26022e-12
2.69792e-12
1.37005e-12
2.66856e-12
1.50346e-12
2.62623e-12
1.64186e-12
2.5156e-12
1.75887e-12
2.29133e-12
1.82583e-12
1.92632e-12
1.81729e-12
1.41708e-12
1.71546e-12
7.85197e-13
1.51344e-12
7.47573e-14
1.21684e-12
-6.53933e-13
8.4269e-13
-1.33265e-12
4.14685e-13
-1.8937e-12
-4.27323e-14
-2.27824e-12
-5.05928e-13
-2.44583e-12
-9.44579e-13
-2.38614e-12
-1.31213e-12
-2.12801e-12
-1.55244e-12
-1.7351e-12
-1.63403e-12
-1.28082e-12
-1.58937e-12
-8.13706e-13
-1.50721e-12
-3.4239e-13
-1.46166e-12
1.36786e-13
-1.4331e-12
5.92535e-13
-1.31841e-12
9.43375e-13
-1.00131e-12
1.10229e-12
-5.65932e-13
9.89668e-13
4.97668e-13
7.33542e-13
1.85067e-12
1.39205e-12
3.45313e-12
1.96876e-12
3.85013e-12
2.49114e-12
3.71092e-12
2.81343e-12
3.25397e-12
2.82756e-12
2.59665e-12
2.48922e-12
1.84624e-12
1.86643e-12
1.09724e-12
1.10048e-12
4.02663e-13
3.39018e-13
-2.25211e-13
-3.13648e-13
-7.89322e-13
-8.09417e-13
-1.28189e-12
-1.14132e-12
-1.67677e-12
-1.31902e-12
-1.94018e-12
-1.35207e-12
-2.04862e-12
-1.24791e-12
-2.001e-12
-1.02098e-12
-1.8183e-12
-7.02314e-13
-1.53363e-12
-3.40036e-13
-1.1814e-12
1.12271e-14
-7.92619e-13
3.05401e-13
-3.97213e-13
5.14448e-13
-2.77734e-14
6.27421e-13
2.81346e-13
6.42791e-13
5.01049e-13
5.62457e-13
6.16423e-13
3.92588e-13
6.31706e-13
1.49081e-13
5.6843e-13
-1.39013e-13
4.58616e-13
-4.32734e-13
3.37313e-13
-6.92145e-13
2.37656e-13
-8.85902e-13
1.8861e-13
-9.9678e-13
2.13607e-13
-1.02181e-12
3.28428e-13
-9.68907e-13
5.38326e-13
-8.52791e-13
8.35751e-13
-6.91895e-13
1.20015e-12
-5.06292e-13
1.60041e-12
-3.15887e-13
1.99949e-12
-1.38242e-13
2.36004e-12
1.39381e-14
2.64985e-12
1.35131e-13
2.84585e-12
2.28252e-13
2.93628e-12
3.0395e-13
2.92086e-12
3.77487e-13
2.80987e-12
4.63759e-13
2.62288e-12
5.72109e-13
2.38758e-12
7.02901e-13
2.13814e-12
8.47017e-13
1.91254e-12
9.87895e-13
1.74855e-12
1.10471e-12
1.67909e-12
1.17537e-12
1.72827e-12
1.1791e-12
1.90907e-12
1.09907e-12
2.2228e-12
9.25716e-13
2.65967e-12
6.60103e-13
3.19994e-12
3.16255e-13
3.81499e-12
-7.89983e-14
4.46893e-12
-4.89058e-13
5.12076e-12
-8.72824e-13
5.72734e-12
-1.19089e-12
6.24689e-12
-1.41138e-12
6.64253e-12
-1.51444e-12
6.88561e-12
-1.49486e-12
6.95861e-12
-1.36232e-12
6.85735e-12
-1.13898e-12
6.59204e-12
-8.54764e-13
6.18687e-12
-5.4141e-13
5.6776e-12
-2.26757e-13
5.10772e-12
6.90888e-14
4.52348e-12
3.34983e-13
3.96868e-12
5.67565e-13
3.47938e-12
7.68637e-13
3.07924e-12
9.42138e-13
2.77551e-12
1.09149e-12
2.55679e-12
1.21756e-12
2.39347e-12
1.31758e-12
2.24166e-12
1.38519e-12
2.05059e-12
1.41195e-12
1.77215e-12
1.38985e-12
1.37061e-12
1.31402e-12
8.30536e-13
1.18434e-12
1.61283e-13
1.00584e-12
-6.02951e-13
7.88323e-13
-1.40755e-12
5.45822e-13
-2.18575e-12
2.94805e-13
-2.86833e-12
4.9236e-14
-3.39194e-12
-1.8684e-13
-3.70447e-12
-4.21737e-13
-3.77026e-12
-6.64625e-13
-3.57961e-12
-9.01892e-13
-3.16264e-12
-1.08509e-12
-2.59551e-12
-1.15819e-12
-1.98245e-12
-1.1165e-12
-1.41153e-12
-1.03806e-12
-9.14083e-13
-1.02819e-12
-4.67423e-13
-1.10987e-12
-4.7755e-14
-1.16466e-12
3.2201e-13
-1.00682e-12
5.73886e-13
-6.29854e-13
6.08283e-13
3.38178e-13
7.6223e-13
1.95125e-12
1.32775e-12
3.58285e-12
1.75067e-12
3.95458e-12
2.03777e-12
3.78611e-12
2.16781e-12
3.30207e-12
2.08452e-12
2.59602e-12
1.74226e-12
1.75754e-12
1.17103e-12
8.92238e-13
4.73417e-13
8.70614e-14
-2.18374e-13
-6.1375e-13
-7.91339e-13
-1.20126e-12
-1.18126e-12
-1.67873e-12
-1.37499e-12
-2.04255e-12
-1.39316e-12
-2.27923e-12
-1.26786e-12
-2.37565e-12
-1.02872e-12
-2.33233e-12
-7.02707e-13
-2.16892e-12
-3.22494e-13
-1.91858e-12
6.72038e-14
-1.61634e-12
4.1375e-13
-1.29034e-12
6.70033e-13
-9.60926e-13
8.08083e-13
-6.4558e-13
8.23552e-13
-3.62985e-13
7.29683e-13
-1.31464e-13
5.4749e-13
3.74482e-14
3.00142e-13
1.45129e-13
1.36599e-14
2.06914e-13
-2.80346e-13
2.4732e-13
-5.4556e-13
2.92621e-13
-7.47191e-13
3.6483e-13
-8.60469e-13
4.79042e-13
-8.76646e-13
6.43386e-13
-8.03734e-13
8.5967e-13
-6.62533e-13
1.12348e-12
-4.80592e-13
1.42387e-12
-2.8654e-13
1.74351e-12
-1.05875e-13
2.05997e-12
4.18993e-14
2.34807e-12
1.45163e-13
2.58313e-12
2.01251e-13
2.74441e-12
2.16677e-13
2.81808e-12
2.06393e-13
2.7992e-12
1.91831e-13
2.69203e-12
1.9744e-13
2.50898e-12
2.45725e-13
2.2689e-12
3.51732e-13
1.99558e-12
5.18629e-13
1.71655e-12
7.36035e-13
1.46172e-12
9.81563e-13
1.26122e-12
1.22471e-12
1.14234e-12
1.43154e-12
1.1263e-12
1.56907e-12
1.22592e-12
1.60913e-12
1.44459e-12
1.53218e-12
1.77652e-12
1.33087e-12
2.20753e-12
1.01262e-12
2.71586e-12
6.00067e-13
3.27314e-12
1.28668e-13
3.84587e-12
-3.58154e-13
4.39752e-12
-8.15189e-13
4.89134e-12
-1.20153e-12
5.29345e-12
-1.48558e-12
5.57597e-12
-1.64843e-12
5.7198e-12
-1.68523e-12
5.71703e-12
-1.60437e-12
5.57251e-12
-1.42454e-12
5.30379e-12
-1.17025e-12
4.93925e-12
-8.67021e-13
4.51415e-12
-5.37895e-13
4.06554e-12
-2.02084e-13
3.62678e-12
1.24271e-13
3.223e-12
4.26328e-13
2.86768e-12
6.89217e-13
2.56066e-12
8.98083e-13
2.28767e-12
1.03958e-12
2.0218e-12
1.10412e-12
1.72728e-12
1.08808e-12
1.36587e-12
9.95488e-13
9.04857e-13
8.38695e-13
3.25255e-13
6.37579e-13
-3.71871e-13
4.16906e-13
-1.16244e-12
2.0213e-13
-2.00073e-12
1.55277e-14
-2.82545e-12
-1.25874e-13
-3.56964e-12
-2.1091e-13
-4.17202e-12
-2.37355e-13
-4.58526e-12
-2.19502e-13
-4.77794e-12
-1.94595e-13
-4.73179e-12
-2.13263e-13
-4.44287e-12
-3.06887e-13
-3.93379e-12
-4.51737e-13
-3.2708e-12
-5.73816e-13
-2.5631e-12
-6.13343e-13
-1.92597e-12
-5.97046e-13
-1.42285e-12
-6.27933e-13
-1.03603e-12
-7.69254e-13
-6.99236e-13
-9.28313e-13
-3.6825e-13
-9.0985e-13
-6.40599e-14
-6.17454e-13
1.19509e-13
1.23822e-13
7.45841e-13
1.99864e-12
1.21813e-12
3.57856e-12
1.5031e-12
3.88174e-12
1.56351e-12
3.65191e-12
1.48266e-12
3.14523e-12
1.26387e-12
2.44012e-12
8.88722e-13
1.59549e-12
3.71437e-13
7.03365e-13
-2.24315e-13
-1.38197e-13
-8.00026e-13
-8.60922e-13
-1.25597e-12
-1.43919e-12
-1.52369e-12
-1.87795e-12
-1.58259e-12
-2.19163e-12
-1.45527e-12
-2.38933e-12
-1.18793e-12
-2.47364e-12
-8.29228e-13
-2.44935e-12
-4.19441e-13
-2.33214e-12
6.81858e-15
-2.14883e-12
4.11755e-13
-1.92906e-12
7.51049e-13
-1.69493e-12
9.81794e-13
-1.45672e-12
1.07656e-12
-1.21643e-12
1.0329e-12
-9.74983e-13
8.7164e-13
-7.36457e-13
6.26748e-13
-5.0644e-13
3.34946e-13
-2.87024e-13
3.09209e-14
-7.33418e-14
-2.52518e-13
1.45312e-13
-4.84023e-13
3.80638e-13
-6.3665e-13
6.40117e-13
-6.93627e-13
9.24264e-13
-6.53387e-13
1.2269e-12
-5.3061e-13
1.53714e-12
-3.5262e-13
1.84151e-12
-1.53011e-13
2.12561e-12
3.49445e-14
2.37526e-12
1.83585e-13
2.57764e-12
2.74502e-13
2.72203e-12
3.00695e-13
2.80043e-12
2.67192e-13
2.80799e-12
1.90055e-13
2.74364e-12
9.39493e-14
2.61082e-12
8.69575e-15
2.41779e-12
-3.48928e-14
2.17709e-12
-9.82289e-15
1.90433e-12
1.01934e-13
1.61684e-12
3.04959e-13
1.33288e-12
5.88032e-13
1.07132e-12
9.24936e-13
8.51206e-13
1.27828e-12
6.90699e-13
1.60505e-12
6.05308e-13
1.86236e-12
6.06162e-13
2.0126e-12
6.98913e-13
2.02779e-12
8.83434e-13
1.89333e-12
1.15399e-12
1.61067e-12
1.49941e-12
1.19816e-12
1.90315e-12
6.89247e-13
2.34369e-12
1.28151e-13
2.79544e-12
-4.36081e-13
3.23053e-12
-9.5574e-13
3.62106e-12
-1.38974e-12
3.94161e-12
-1.70753e-12
4.17181e-12
-1.89139e-12
4.29865e-12
-1.93715e-12
4.31849e-12
-1.85316e-12
4.23797e-12
-1.65763e-12
4.07323e-12
-1.37498e-12
3.84687e-12
-1.03243e-12
3.58338e-12
-6.57861e-13
3.30387e-12
-2.79337e-13
3.02177e-12
7.45513e-14
2.74045e-12
3.74824e-13
2.4529e-12
5.94075e-13
2.14327e-12
7.10297e-13
1.78962e-12
7.11604e-13
1.36786e-12
6.00093e-13
8.56576e-13
3.93622e-13
2.42625e-13
1.24622e-13
-4.73555e-13
-1.64073e-13
-1.27406e-12
-4.26359e-13
-2.12228e-12
-6.21509e-13
-2.96519e-12
-7.21807e-13
-3.7397e-12
-7.15469e-13
-4.38324e-12
-6.04503e-13
-4.84643e-12
-4.02049e-13
-5.10285e-12
-1.36803e-13
-5.14962e-12
1.36741e-13
-4.99741e-12
3.38305e-13
-4.65867e-12
3.92679e-13
-4.14954e-12
2.83813e-13
-3.51014e-12
8.33339e-14
-2.82382e-12
-9.72321e-14
-2.20307e-12
-2.06753e-13
-1.73418e-12
-3.01528e-13
-1.4206e-12
-4.6299e-13
-1.18263e-12
-6.4999e-13
-9.23615e-13
-7.22239e-13
-6.13762e-13
-5.27193e-13
-3.17774e-13
-7.16958e-14
6.5188e-13
1.98724e-12
1.03457e-12
3.47387e-12
1.19531e-12
3.68859e-12
1.07214e-12
3.37568e-12
8.05396e-13
2.83452e-12
4.46305e-13
2.14562e-12
1.83276e-14
1.34626e-12
-4.56433e-13
5.04232e-13
-9.39995e-13
-2.9131e-13
-1.37314e-12
-9.65432e-13
-1.68627e-12
-1.4814e-12
-1.82224e-12
-1.84244e-12
-1.75791e-12
-2.07542e-12
-1.51167e-12
-2.21043e-12
-1.13307e-12
-2.26845e-12
-6.81658e-13
-2.26178e-12
-2.08394e-13
-2.20188e-12
2.49699e-13
-2.10485e-12
6.62402e-13
-1.98903e-12
9.97522e-13
-1.86684e-12
1.2212e-12
-1.73832e-12
1.30843e-12
-1.59197e-12
1.25501e-12
-1.41219e-12
1.08115e-12
-1.1876e-12
8.24449e-13
-9.14882e-13
5.282e-13
-5.97114e-13
2.3238e-13
-2.39833e-13
-2.97021e-14
1.51269e-13
-2.31452e-13
5.69566e-13
-3.53601e-13
1.00517e-12
-3.86952e-13
1.4435e-12
-3.35472e-13
1.86595e-12
-2.16899e-13
2.25214e-12
-5.95075e-14
2.58256e-12
1.03776e-13
2.84083e-12
2.41576e-13
3.01556e-12
3.28953e-13
3.1018e-12
3.50729e-13
3.10148e-12
3.03581e-13
3.02254e-12
1.96851e-13
2.87681e-12
5.16002e-14
2.67776e-12
-1.02307e-13
2.43885e-12
-2.3057e-13
2.17293e-12
-2.99399e-13
1.89202e-12
-2.80425e-13
1.60709e-12
-1.55319e-13
1.32761e-12
8.02718e-14
1.06145e-12
4.14383e-13
8.15477e-13
8.19012e-13
5.9642e-13
1.25341e-12
4.11563e-13
1.66967e-12
2.68681e-13
2.01908e-12
1.754e-13
2.25808e-12
1.38422e-13
2.35307e-12
1.62968e-13
2.28425e-12
2.52356e-13
2.04822e-12
4.07397e-13
1.65904e-12
6.25504e-13
1.14697e-12
8.99778e-13
5.54799e-13
1.21859e-12
-6.76272e-14
1.56598e-12
-6.69401e-13
1.92286e-12
-1.20386e-12
2.26867e-12
-1.63263e-12
2.58327e-12
-1.92846e-12
2.84894e-12
-2.07701e-12
3.05252e-12
-2.07754e-12
3.18719e-12
-1.94232e-12
3.25323e-12
-1.69455e-12
3.25698e-12
-1.36537e-12
3.20773e-12
-9.90717e-13
3.11352e-12
-6.08898e-13
2.97716e-12
-2.58889e-13
2.79423e-12
2.15892e-14
2.55354e-12
1.99239e-13
2.23995e-12
2.50095e-13
1.83833e-12
1.65162e-13
1.33764e-12
-4.50108e-14
7.34375e-13
-3.48852e-13
3.53432e-14
-6.96338e-13
-7.40619e-13
-1.02598e-12
-1.56203e-12
-1.27548e-12
-2.38547e-12
-1.39474e-12
-3.15802e-12
-1.3572e-12
-3.8221e-12
-1.16449e-12
-4.32414e-12
-8.40818e-13
-4.62689e-12
-4.21742e-13
-4.7215e-12
5.06861e-14
-4.63059e-12
5.17907e-13
-4.39584e-12
8.92454e-13
-4.05495e-12
1.07327e-12
-3.62708e-12
1.00344e-12
-3.12479e-12
7.2999e-13
-2.58555e-12
3.9255e-13
-2.08674e-12
1.21695e-13
-1.71259e-12
-6.05203e-14
-1.48928e-12
-2.18812e-13
-1.34982e-12
-3.71403e-13
-1.17774e-12
-4.7613e-13
-9.05094e-13
-3.7627e-13
-5.63201e-13
-1.80696e-13
4.8503e-13
1.89505e-12
7.70321e-13
3.25971e-12
8.0786e-13
3.3882e-12
5.49562e-13
2.99789e-12
1.47488e-13
2.41743e-12
-3.21228e-13
1.74415e-12
-7.95114e-13
1.01121e-12
-1.23111e-12
2.67414e-13
-1.60199e-12
-4.18086e-13
-1.88286e-12
-9.7954e-13
-2.04215e-12
-1.37985e-12
-2.04693e-12
-1.62149e-12
-1.87939e-12
-1.739e-12
-1.55134e-12
-1.77908e-12
-1.10535e-12
-1.78111e-12
-6.00521e-13
-1.76829e-12
-9.19694e-14
-1.75078e-12
3.81702e-13
-1.73371e-12
7.96547e-13
-1.72116e-12
1.13284e-12
-1.71316e-12
1.36855e-12
-1.6998e-12
1.48354e-12
-1.65948e-12
1.47038e-12
-1.56409e-12
1.34199e-12
-1.38848e-12
1.12974e-12
-1.11832e-12
8.7413e-13
-7.52874e-13
6.14466e-13
-3.02933e-13
3.82727e-13
2.1281e-13
2.01981e-13
7.70505e-13
8.64547e-14
1.34256e-12
4.0764e-14
1.89903e-12
5.84846e-14
2.40983e-12
1.22217e-13
2.84752e-12
2.06722e-13
3.18966e-12
2.84423e-13
3.42035e-12
3.30954e-13
3.53142e-12
3.28883e-13
3.52354e-12
2.69514e-13
3.407e-12
1.53822e-13
3.20088e-12
-6.91586e-15
2.9301e-12
-1.9133e-13
2.62104e-12
-3.6996e-13
2.29738e-12
-5.09227e-13
1.97757e-12
-5.76513e-13
1.67399e-12
-5.45221e-13
1.39336e-12
-3.99074e-13
1.13751e-12
-1.35397e-13
9.04462e-13
2.32984e-13
6.89857e-13
6.77884e-13
4.88934e-13
1.15846e-12
2.98453e-13
1.62627e-12
1.18058e-13
2.03148e-12
-4.92095e-14
2.32901e-12
-1.97089e-13
2.48344e-12
-3.16637e-13
2.47267e-12
-3.9701e-13
2.2903e-12
-4.26655e-13
1.94664e-12
-3.95026e-13
1.4679e-12
-2.94606e-13
8.93207e-13
-1.22656e-13
2.69865e-13
1.17851e-13
-3.52224e-13
4.18259e-13
-9.25636e-13
7.64985e-13
-1.40933e-12
1.14063e-12
-1.77138e-12
1.52531e-12
-1.99115e-12
1.89842e-12
-2.06103e-12
2.24066e-12
-1.98769e-12
2.53614e-12
-1.79182e-12
2.77356e-12
-1.50627e-12
2.94564e-12
-1.17246e-12
3.04692e-12
-8.36021e-13
3.07089e-12
-5.42578e-13
3.00802e-12
-3.33625e-13
2.84615e-12
-2.42237e-13
2.57331e-12
-2.88155e-13
2.18209e-12
-4.72684e-13
1.67378e-12
-7.74966e-13
1.06096e-12
-1.1513e-12
3.67712e-13
-1.53891e-12
-3.72195e-13
-1.86418e-12
-1.11848e-12
-2.05534e-12
-1.82767e-12
-2.05813e-12
-2.45558e-12
-1.851e-12
-2.95926e-12
-1.45276e-12
-3.30077e-12
-9.15841e-13
-3.45565e-12
-3.05876e-13
-3.42529e-12
3.1722e-13
-3.2451e-12
8.98073e-13
-2.9768e-12
1.36441e-12
-2.68156e-12
1.61874e-12
-2.39025e-12
1.57994e-12
-2.09826e-12
1.25973e-12
-1.79557e-12
7.94464e-13
-1.50511e-12
3.70461e-13
-1.28303e-12
9.57724e-14
-1.16678e-12
-4.88999e-14
-1.11858e-12
-1.28894e-13
-1.03497e-12
-2.15104e-13
-8.35727e-13
-1.94742e-13
-5.27698e-13
-1.60208e-13
2.78432e-13
1.69974e-12
4.45728e-13
2.89963e-12
3.49692e-13
2.95542e-12
-1.11488e-14
2.51863e-12
-4.96292e-13
1.91658e-12
-1.02366e-12
1.26504e-12
-1.50999e-12
6.09226e-13
-1.89349e-12
-1.03935e-14
-2.14855e-12
-5.4571e-13
-2.27564e-12
-9.50441e-13
-2.28034e-12
-1.19696e-12
-2.16113e-12
-1.29007e-12
-1.91345e-12
-1.26763e-12
-1.54385e-12
-1.18623e-12
-1.08065e-12
-1.10005e-12
-5.70718e-13
-1.0448e-12
-6.38844e-14
-1.0341e-12
4.03115e-13
-1.06612e-12
8.11012e-13
-1.13213e-12
1.15014e-12
-1.21963e-12
1.41016e-12
-1.30988e-12
1.57762e-12
-1.37504e-12
1.64269e-12
-1.3802e-12
1.60796e-12
-1.29088e-12
1.49136e-12
-1.08225e-12
1.32153e-12
-7.4532e-13
1.12937e-12
-2.88256e-13
9.41357e-13
2.6602e-13
7.76755e-13
8.83661e-13
6.47475e-13
1.52389e-12
5.57867e-13
2.14334e-12
5.03742e-13
2.70091e-12
4.72215e-13
3.16242e-12
4.44341e-13
3.50344e-12
4.00409e-13
3.71e-12
3.25415e-13
3.77788e-12
2.12097e-13
3.71215e-12
6.10087e-14
3.52744e-12
-1.20737e-13
3.24778e-12
-3.20189e-13
2.90455e-12
-5.18504e-13
2.53192e-12
-6.91386e-13
2.16131e-12
-8.11286e-13
1.81659e-12
-8.51371e-13
1.51183e-12
-7.90146e-13
1.25129e-12
-6.15509e-13
1.03096e-12
-3.27589e-13
8.40773e-13
5.98256e-14
6.67193e-13
5.19511e-13
4.9602e-13
1.01304e-12
3.15254e-13
1.49504e-12
1.17465e-13
1.91881e-12
-9.87925e-14
2.24195e-12
-3.28568e-13
2.43108e-12
-5.60897e-13
2.46505e-12
-7.79746e-13
2.33676e-12
-9.65552e-13
2.05395e-12
-1.09745e-12
1.63857e-12
-1.15606e-12
1.12457e-12
-1.12626e-12
5.53975e-13
-9.99284e-13
-2.79692e-14
-7.73684e-13
-5.77535e-13
-4.55335e-13
-1.05612e-12
-5.69016e-14
-1.4326e-12
4.02855e-13
-1.68505e-12
9.00031e-13
-1.80264e-12
1.4072e-12
-1.78765e-12
1.89585e-12
-1.65707e-12
2.33918e-12
-1.44218e-12
2.71424e-12
-1.18559e-12
3.00257e-12
-9.35938e-13
3.18929e-12
-7.41305e-13
3.2618e-12
-6.4271e-13
3.20945e-12
-6.68451e-13
3.02526e-12
-8.29422e-13
2.70947e-12
-1.11572e-12
2.27324e-12
-1.49509e-12
1.74072e-12
-1.91436e-12
1.14797e-12
-2.30416e-12
5.38514e-13
-2.58743e-12
-4.33416e-14
-2.69129e-12
-5.59023e-13
-2.5628e-12
-9.79337e-13
-2.18619e-12
-1.28378e-12
-1.59502e-12
-1.45777e-12
-8.68059e-13
-1.49323e-12
-1.04009e-13
-1.39697e-12
6.12904e-13
-1.20252e-12
1.22836e-12
-9.72033e-13
1.69798e-12
-7.75674e-13
1.9558e-12
-6.55314e-13
1.92483e-12
-6.01126e-13
1.58726e-12
-5.68164e-13
1.05103e-12
-5.24237e-13
5.20666e-13
-4.82157e-13
1.71926e-13
-4.76203e-13
4.42917e-14
-5.0256e-13
4.78189e-14
-4.96735e-13
1.46768e-14
-3.93247e-13
-1.9365e-14
-1.9455e-13
-9.43142e-16
7.09357e-14
1.38847e-12
9.83163e-14
2.35506e-12
-1.43697e-13
2.34642e-12
-5.9371e-13
1.90322e-12
-1.12273e-12
1.31517e-12
-1.65536e-12
7.08115e-13
-2.1069e-12
1.45378e-13
-2.41004e-12
-3.31489e-13
-2.54053e-12
-6.92113e-13
-2.51572e-12
-9.13594e-13
-2.3717e-12
-9.84893e-13
-2.1388e-12
-9.16578e-13
-1.83129e-12
-7.46368e-13
-1.4546e-12
-5.32626e-13
-1.02029e-12
-3.37052e-13
-5.54273e-13
-2.05903e-13
-9.09759e-14
-1.60006e-13
3.4054e-13
-1.97051e-13
7.25591e-13
-3.00968e-13
1.06109e-12
-4.49966e-13
1.34567e-12
-6.18706e-13
1.57281e-12
-7.76595e-13
1.73237e-12
-8.87325e-13
1.81754e-12
-9.12966e-13
1.83052e-12
-8.21516e-13
1.78249e-12
-5.943e-13
1.68907e-12
-2.30126e-13
1.5654e-12
2.54317e-13
1.42381e-12
8.26684e-13
1.27391e-12
1.44282e-12
1.1226e-12
2.05221e-12
9.72556e-13
2.60511e-12
8.20339e-13
3.0599e-12
6.57095e-13
3.38837e-12
4.72797e-13
3.57701e-12
2.62006e-13
3.62494e-12
2.74524e-14
3.54092e-12
-2.20486e-13
3.34157e-12
-4.67106e-13
3.05111e-12
-6.9649e-13
2.70066e-12
-8.92511e-13
2.32537e-12
-1.03831e-12
1.95924e-12
-1.11617e-12
1.62937e-12
-1.10915e-12
1.35186e-12
-1.00419e-12
1.13053e-12
-7.95487e-13
9.58225e-13
-4.86946e-13
8.19608e-13
-9.33702e-14
6.94645e-13
3.59821e-13
5.62282e-13
8.38393e-13
4.04035e-13
1.3027e-12
2.07054e-13
1.7123e-12
-3.38062e-14
2.03085e-12
-3.15129e-13
2.23018e-12
-6.25165e-13
2.29281e-12
-9.44862e-13
2.21323e-12
-1.24957e-12
1.99802e-12
-1.5115e-12
1.66528e-12
-1.70286e-12
1.24303e-12
-1.79932e-12
7.66345e-13
-1.78294e-12
2.73337e-13
-1.64402e-12
-1.99048e-13
-1.3816e-12
-6.18432e-13
-1.00318e-12
-9.59003e-13
-5.24195e-13
-1.20252e-12
3.22936e-14
-1.33935e-12
6.36403e-13
-1.37021e-12
1.25319e-12
-1.30832e-12
1.84579e-12
-1.18061e-12
2.37937e-12
-1.02616e-12
2.82453e-12
-8.91273e-13
3.15918e-12
-8.21886e-13
3.36867e-12
-8.55044e-13
3.44518e-12
-1.01157e-12
3.38768e-12
-1.29129e-12
3.20337e-12
-1.67139e-12
2.90992e-12
-2.10805e-12
2.53706e-12
-2.541e-12
2.12542e-12
-2.90038e-12
1.72142e-12
-3.11459e-12
1.36875e-12
-3.11953e-12
1.09876e-12
-2.87037e-12
9.24396e-13
-2.3575e-12
8.41253e-13
-1.6221e-12
8.35854e-13
-7.58894e-13
8.94715e-13
1.07076e-13
1.00504e-12
8.65036e-13
1.14396e-12
1.45445e-12
1.26726e-12