/*--------------------------------*- C++ -*----------------------------------*\
| =========                 |                                                 |
| \\      /  F ield         | OpenFOAM: The Open Source CFD Toolbox           |
|  \\    /   O peration     | Version:  2406                                  |
|   \\  /    A nd           | Website:  www.openfoam.com                      |
|    \\/     M anipulation  |                                                 |
\*---------------------------------------------------------------------------*/
FoamFile
{
    version     2.0;
    format      ascii;
    arch        "LSB;label=32;scalar=64";
    class       volScalarField;
    location    "6";
    object      p;
}
// * * * * * * * * * * * * * * * * * * * * * * * * * * * * * * * * * * * * * //

dimensions      [1 -1 -2 0 0 0 0];

internalField   nonuniform List<scalar> 
10000
(
2754.76
2726.8
2666.6
2562.84
2427.9
2278.22
2126.82
1979.38
1840.39
1717.71
1621.6
1560.31
1536.73
1548.29
1588.95
1651.31
1728
1812.06
1896.63
1974.74
2039.57
2085.43
2108.78
2109.01
2088.37
2051.49
2004.53
1954.63
1909.34
1876.01
1860.95
1868.45
1900.08
1954.47
2027.66
2113.84
2206.17
2297.57
2381.41
2452.03
2505.14
2538.11
2550.12
2542.25
2517.29
2479.51
2434.09
2386.67
2342.78
2307.6
2285.71
2280.98
2296.35
2333.54
2392.68
2472.16
2568.47
2676.38
2789.26
2899.51
2999.24
3080.94
3138.34
3167.14
3165.64
3134.97
3079.12
3004.43
2918.79
2830.54
2747.23
2674.49
2615.17
2568.96
2532.58
2500.45
2465.79
2421.82
2363.02
2286.12
2190.87
2080.23
1960.14
1838.8
1725.56
1629.74
1559.43
1520.51
1515.84
1544.95
1604.17
1687.46
1787.53
1896.4
2004.72
2100.89
2172.81
2213.86
2228.47
2230.2
2597.84
2573.4
2515.35
2411.76
2270.65
2109.17
1947.16
1797.35
1665.36
1554.2
1468.02
1411.96
1389.68
1401.13
1442.07
1505.26
1582.33
1665.2
1746.78
1820.83
1881.72
1924.62
1946.2
1945.51
1924.5
1887.84
1842.07
1794.6
1752.83
1723.47
1711.99
1722.05
1754.94
1809.33
1881.32
1965.12
2053.83
2140.45
2218.65
2283.3
2330.81
2359.18
2367.98
2358.28
2332.57
2294.55
2248.83
2200.55
2154.88
2116.66
2090.19
2079.14
2086.42
2114.02
2162.69
2231.6
2318.15
2417.92
2524.89
2631.83
2730.98
2814.71
2876.42
2911.29
2916.97
2893.97
2845.69
2777.98
2698.39
2615.09
2535.63
2465.76
2408.5
2363.74
2328.29
2296.6
2261.87
2217.37
2157.75
2080.08
1984.47
1874.3
1755.83
1637.44
1528.52
1438.18
1374.13
1341.73
1343.35
1377.93
1441.01
1525.53
1623.59
1728.13
1832.9
1929.9
2008.02
2057.52
2077.44
2075.75
2413.79
2391.77
2335.09
2232.41
2087.51
1920.48
1754.55
1605.54
1479.99
1379.56
1305.78
1261.27
1248.08
1265.61
1309.65
1373.14
1447.74
1525.51
1599.77
1665.12
1717.08
1751.94
1767.28
1762.69
1740.43
1705.3
1663.78
1622.91
1589.35
1568.7
1565.2
1581.38
1617.74
1672.46
1741.59
1819.56
1899.97
1976.53
2043.79
2097.66
2135.53
2156.23
2159.84
2147.5
2121.29
2084.18
2039.82
1992.35
1946.05
1905.01
1873
1853.4
1849.13
1862.54
1895.11
1947.04
2016.94
2101.64
2196.24
2294.41
2388.94
2472.43
2538.12
2580.74
2597.23
2587.23
2553.14
2499.84
2433.93
2362.75
2293.24
2230.73
2178.15
2135.49
2099.89
2066.34
2028.72
1981.11
1919.04
1840.37
1745.89
1639.36
1527.14
1417.34
1318.78
1239.71
1186.89
1164.73
1174.85
1215.54
1281.64
1365.38
1458.64
1555.65
1653.12
1746.4
1825.82
1880.47
1905.59
1909.13
2188.42
2168.81
2114.7
2020.82
1881.91
1716.51
1550.11
1403.93
1288.62
1205.73
1152.95
1127.99
1129.47
1155.64
1202.82
1264.83
1333.83
1401.98
1462.92
1512.4
1547.91
1568.11
1572.47
1561.72
1538.4
1507.11
1473.88
1444.98
1425.77
1420.06
1429.94
1455.94
1497.09
1550.98
1613.88
1681
1747.15
1807.38
1857.69
1895.39
1919.25
1929.26
1926.21
1911.42
1886.42
1853.04
1813.46
1770.25
1726.29
1684.55
1647.99
1619.43
1601.62
1597.15
1608.22
1636.27
1681.5
1742.5
1816.12
1897.64
1981.07
2059.88
2127.65
2178.95
2210.05
2219.46
2208.07
2178.94
2136.74
2086.92
2034.81
1984.65
1938.94
1897.95
1859.79
1820.91
1776.96
1723.86
1658.84
1581.1
1492.23
1396.06
1298.36
1206.05
1126.26
1065.44
1028.51
1018.59
1036.7
1081.23
1147.17
1226.03
1308.37
1388.24
1465.63
1542.73
1616.89
1678.44
1713.82
1730.3
1930.39
1907.48
1852.52
1768
1644.19
1494.62
1341.35
1206.97
1105.69
1041.23
1010.18
1006.74
1025.7
1062.88
1114.02
1173.62
1234.86
1290.68
1335.47
1366.18
1382.26
1384.88
1375.91
1357.66
1333.2
1306.69
1283.2
1267.73
1264.05
1274
1297.45
1332.74
1377.26
1427.84
1480.99
1533.07
1580.6
1620.57
1650.88
1670.52
1679.59
1679
1670.09
1654.11
1631.96
1604.21
1571.33
1534
1493.34
1450.95
1408.85
1369.4
1335.36
1309.74
1295.65
1295.88
1312.31
1345.48
1394.2
1455.53
1525.04
1597.27
1666.38
1726.95
1774.61
1806.64
1822.22
1822.32
1809.25
1786.13
1756.18
1722.14
1685.79
1647.71
1607.31
1563.1
1513.24
1456.27
1391.66
1320.24
1244.26
1167.22
1093.47
1027.73
974.431
937.123
918.139
918.766
939.604
980.288
1038
1105.89
1174.22
1235.53
1290.11
1345.12
1405.96
1467.78
1512.72
1544.39
1651.01
1619.11
1562.14
1485.07
1381.39
1258.48
1131.35
1019.49
938.213
893.818
884.049
901.721
938.582
987.548
1042.93
1099.51
1151.77
1194.16
1222.28
1234.22
1231.01
1215.92
1193.15
1166.78
1140.54
1118.14
1103.34
1099.49
1108.66
1130.91
1164.3
1205.37
1250.11
1294.64
1335.72
1370.84
1398.33
1417.37
1427.9
1430.65
1426.93
1418.32
1406.32
1391.88
1375.12
1355.34
1331.3
1301.75
1265.92
1223.87
1176.64
1126.18
1075.35
1027.74
987.481
958.718
945.062
948.949
971.173
1010.67
1064.62
1128.76
1197.94
1266.79
1330.39
1384.81
1427.5
1457.29
1474.17
1478.92
1472.65
1456.51
1431.56
1398.69
1358.69
1312.33
1260.6
1204.81
1146.8
1088.87
1033.6
983.6
941.202
908.256
885.889
874.285
872.728
880.294
897.007
924.336
963.532
1012.22
1062.71
1105.92
1139.48
1171.62
1214.28
1268.5
1318.17
1361.64
1360.06
1318.49
1260.44
1188.42
1105.28
1014.03
922.23
843.27
790.097
769.846
781.911
819.442
872.725
932.408
991.209
1043.89
1086.34
1114.98
1127.11
1121.99
1101.69
1070.87
1035.41
1000.95
971.936
951.649
942.492
946.041
962.648
990.959
1027.84
1068.87
1109.3
1144.94
1172.8
1191.34
1200.43
1201.08
1195.13
1184.84
1172.56
1160.28
1149.35
1140.15
1131.9
1122.64
1109.61
1089.83
1060.76
1020.98
970.471
910.739
844.743
776.676
711.641
655.137
612.405
587.718
583.773
601.328
639.129
694.114
761.828
836.984
914.092
988.061
1054.66
1110.74
1154.23
1183.93
1199.28
1200.31
1187.64
1162.61
1127.34
1084.75
1038.3
991.748
948.769
912.544
885.366
868.346
861.347
863.139
871.617
883.923
896.638
906.643
912.934
918.31
928.585
948.093
974.544
999.474
1016.62
1030.87
1055.79
1096.98
1144.59
1192.54
1060.95
1015.39
959.279
892.505
828.306
768.267
714.975
675.247
657.034
665.672
701.148
757.677
825.631
894.663
956.352
1005.28
1038.52
1054.53
1052.59
1033.19
999.04
955.26
908.544
865.499
831.25
808.927
799.92
804.297
820.952
847.493
880.244
914.637
945.983
970.346
985.203
989.74
984.798
972.559
956.069
938.65
923.315
912.267
906.55
905.852
908.45
911.323
910.499
901.67
880.965
845.701
794.92
729.624
652.728
568.815
483.74
404.065
336.368
286.462
258.696
255.452
276.938
321.254
384.692
462.189
547.883
635.726
720.056
796.037
859.9
908.991
941.729
957.604
957.273
942.717
917.303
885.606
852.956
824.736
805.612
798.797
805.52
824.802
853.693
887.921
922.675
953.082
974.311
982.027
974.16
953.678
929.588
913.02
909.485
914.502
919.272
922.446
933.653
959.544
998.589
1042.54
754.937
713.745
663.913
606.188
560.338
528.666
512.023
512.215
531.437
571.239
630.687
704.94
785.559
862.597
927.32
974.12
1000.78
1007.37
994.982
965.328
921.383
868.012
811.703
759.271
716.28
686.08
669.749
666.595
674.67
691.06
712.076
733.582
751.589
762.934
765.815
760.021
746.854
728.85
709.337
691.869
679.575
674.564
677.506
687.467
701.952
717.145
728.302
730.35
718.63
689.685
641.879
575.744
493.992
401.279
303.771
208.578
123.04
53.9579
6.83422
-14.7058
-9.23399
22.4436
77.4748
151.306
238.14
331.487
424.787
512.02
588.21
649.75
694.549
722.09
733.478
731.486
720.501
706.214
694.973
692.837
704.525
732.468
776.195
832.216
894.577
956.067
1009.72
1049.8
1071.88
1072.32
1049.04
1004.41
948.215
896.012
860.959
845.109
840.014
837.936
840.494
851.697
877.44
910.014
445.821
415.314
376.179
333.544
307.856
302.438
318.519
355.058
409.327
478.509
559.671
648.479
738.311
820.885
888.219
934.785
958.56
960.428
942.688
907.96
859.227
800.527
737.283
675.638
621.122
577.474
546.197
526.843
517.595
515.779
518.23
521.639
523.03
520.27
512.441
499.906
484.128
467.382
452.43
442.14
439.003
444.581
459.048
480.97
507.365
533.996
555.813
567.534
564.314
542.464
500.068
437.359
356.784
262.791
161.408
59.6881
-34.9443
-115.423
-175.762
-211.658
-220.864
-203.297
-160.927
-97.5134
-18.2631
70.6085
162.434
250.759
330.031
396.186
447.02
482.328
503.875
515.24
521.55
528.997
544.076
572.558
618.351
682.504
762.568
852.548
943.66
1025.99
1090.72
1132
1147.17
1135.42
1096.65
1033.12
953.4
873.853
812.503
778.176
765.511
762.344
761.051
760.335
770.806
787.285
141.405
123.454
98.094
76.0583
73.7941
94.3662
139.655
207.253
291.074
384.539
482.431
580.528
674.27
758.014
825.676
872.435
896.222
897.898
880.076
845.693
797.454
738.278
671.96
603.198
536.815
476.712
425.191
382.888
349.152
322.501
300.985
282.505
265.223
248.011
230.749
214.291
200.139
190.034
185.677
188.571
199.844
219.951
248.304
283.015
320.879
357.624
388.342
408.023
412.15
397.294
361.654
305.401
230.76
141.817
44.1235
-55.8089
-151.087
-235.056
-301.929
-347.341
-368.725
-365.456
-338.761
-291.507
-227.925
-153.299
-73.5535
5.31302
77.9485
140.388
190.634
228.936
257.722
281.248
305.058
335.28
377.777
437.163
515.81
612.998
724.398
842.05
955.101
1051.57
1121.11
1157.75
1160.98
1134.02
1080.71
1004.67
912.723
818.831
741.814
695.201
678.033
676.625
675.506
667.234
663.546
662.939
-147.849
-155.217
-165.924
-164.623
-140.968
-93.9172
-22.1682
70.9511
177.48
288.359
396.486
497.546
588.941
668.158
731.982
777.144
801.74
806.067
792.169
762.578
719.394
664.34
599.426
527.463
451.93
376.334
303.574
235.648
173.726
118.344
69.5399
26.9575
-9.91026
-41.3046
-66.8254
-85.3867
-95.5835
-96.237
-86.7776
-67.3104
-38.4869
-1.42902
42.1727
89.8744
138.391
183.719
221.469
247.302
257.412
248.999
220.683
172.781
107.367
28.0995
-60.145
-151.721
-240.699
-321.345
-388.615
-438.604
-468.888
-478.668
-468.695
-441.054
-398.898
-346.201
-287.502
-227.531
-170.638
-120.075
-77.3079
-41.5933
-9.98911
22.1907
60.5895
110.86
177.69
263.921
369.834
492.696
626.572
762.413
888.591
992.331
1062.4
1092.54
1083.66
1042.65
978.096
896.505
803.558
709.133
629.086
578.365
560.146
562.019
563.942
553.237
539.365
524.672
-410.714
-411.139
-408.17
-384.016
-334.213
-261.194
-165.996
-53.2102
68.4426
188.912
300.108
397.677
480.634
549.501
604.393
644.381
668.274
675.766
667.772
645.76
610.875
563.662
504.517
434.361
354.977
268.877
178.93
88.0815
-0.740357
-84.6835
-161.178
-228.246
-284.642
-329.63
-362.516
-382.348
-388.078
-379.109
-355.828
-319.761
-273.315
-219.354
-160.927
-101.215
-43.6005
8.34062
50.9915
80.9762
95.4883
92.6123
71.5998
33.0522
-21.0521
-87.5203
-162.266
-240.702
-318.125
-390.057
-452.563
-502.566
-538.111
-558.508
-564.282
-556.953
-538.731
-512.26
-480.424
-446.178
-412.227
-380.529
-351.676
-324.4
-295.466
-260.089
-212.825
-148.721
-64.4504
40.8369
165.1
303.471
448.639
591.271
720.383
824.082
891.521
916.273
899.558
850.389
781.198
701.898
618.056
535.198
463.765
416.838
400.392
405.458
411.592
403.202
385.007
362.445
-636.789
-633.312
-618.405
-573.94
-500.062
-403.414
-288.908
-163.016
-34.5165
86.9689
193.57
281.28
350.34
403.719
444.679
475.016
494.894
503.814
501.511
488.044
463.303
426.667
377.198
314.219
237.851
149.246
50.5481
-55.2019
-164.09
-271.432
-372.184
-461.698
-536.442
-594.267
-634.069
-655.23
-657.362
-640.587
-606.081
-556.407
-495.328
-427.241
-356.558
-287.331
-223.155
-167.197
-122.208
-90.44
-73.5172
-72.2932
-86.735
-115.852
-157.716
-209.607
-268.289
-330.331
-392.398
-451.461
-504.936
-550.818
-587.837
-615.578
-634.484
-645.681
-650.662
-650.956
-647.914
-642.615
-635.813
-627.754
-617.831
-604.181
-583.485
-551.223
-502.466
-433.07
-340.935
-226.942
-95.2194
47.3694
192.286
330.353
452.224
548.427
610.067
631.287
612.869
563.931
498.752
429.888
363.425
301.185
247.216
210.219
197.156
203.761
213.311
210.418
194.158
171.43
-817.72
-811.495
-786.199
-724.658
-630.295
-514.015
-385.453
-253.484
-126.609
-12.9137
81.2207
152.828
203.18
236.899
259.653
275.793
287.258
294.009
295.076
289.24
275.086
250.839
214.429
163.909
97.9785
16.3769
-79.9367
-188.679
-306.071
-426.73
-543.971
-650.757
-740.985
-810.48
-857.168
-880.525
-880.906
-859.315
-817.687
-759.28
-688.688
-611.344
-532.74
-457.755
-390.307
-333.297
-288.695
-257.646
-240.545
-237.103
-246.403
-266.973
-296.859
-333.773
-375.305
-419.176
-463.446
-506.61
-547.573
-585.587
-620.242
-651.518
-679.84
-706.003
-730.931
-755.315
-779.305
-802.383
-823.425
-840.839
-852.595
-856.11
-848.095
-824.621
-781.627
-715.905
-626.329
-514.906
-387.131
-251.304
-116.935
7.04047
113.209
195.359
247.833
266.394
251.288
210.141
156.74
104.684
60.6537
23.8375
-7.7753
-31.2642
-40.5624
-35.0329
-24.5212
-21.0479
-30.3129
-46.0788
-947.697
-938.092
-903.469
-828.2
-717.962
-587.355
-450.71
-319.484
-201.873
-103.839
-29.2909
20.6407
48.3235
59.3251
60.7181
58.7317
57.1001
56.8483
57.1093
56.0413
51.2974
40.1288
19.4807
-13.696
-61.9554
-126.907
-208.951
-307.107
-418.711
-539.014
-661.089
-776.535
-877.016
-955.954
-1009.53
-1036.59
-1037.84
-1015.11
-971.09
-909.559
-835.498
-754.799
-673.548
-597.205
-530.01
-474.76
-432.867
-404.563
-389.147
-385.245
-391.053
-404.55
-423.67
-446.452
-471.2
-496.666
-522.185
-547.698
-573.606
-600.532
-629.101
-659.848
-693.258
-729.808
-769.882
-813.498
-859.954
-907.589
-953.806
-995.372
-1028.81
-1050.69
-1057.72
-1046.74
-1014.89
-960.146
-882.216
-783.61
-670.203
-550.756
-435.182
-332.15
-247.411
-183.956
-143.669
-128.299
-137.772
-166.834
-204.165
-236.947
-258.226
-270.155
-279.389
-288.919
-295.142
-293.416
-285.254
-276.896
-276.504
-280.555
-1023.72
-1009.31
-966.077
-880.71
-760.283
-621.97
-483.821
-359.533
-257.119
-180.425
-130.496
-106.092
-103.57
-116.891
-138.546
-161.355
-180.177
-192.599
-198.545
-199.493
-197.887
-196.898
-200.287
-212.121
-236.248
-275.715
-332.399
-406.855
-498.083
-602.994
-715.863
-828.45
-931.254
-1015.56
-1075.25
-1107.63
-1112.88
-1093.15
-1051.71
-992.718
-921.263
-843.226
-764.761
-691.511
-627.893
-576.694
-539.021
-514.509
-501.663
-498.251
-501.713
-509.513
-519.416
-529.671
-539.131
-547.364
-554.73
-562.361
-571.978
-585.532
-604.795
-631.061
-665.049
-706.99
-756.716
-813.596
-876.274
-942.368
-1008.36
-1069.85
-1122.15
-1160.95
-1182.82
-1185.34
-1167.03
-1127.32
-1066.9
-988.454
-897.373
-801.757
-711.019
-633.322
-573.187
-531.058
-505.311
-494.844
-499.246
-515.869
-537.184
-552.804
-556.038
-549.067
-540.957
-539.439
-544.246
-548.466
-545.845
-535.811
-526.01
-517.026
-1046.68
-1026.12
-974.932
-883.58
-759.822
-621.812
-489.49
-377.801
-294.595
-242.058
-218.689
-220.899
-243.762
-281.091
-325.683
-370.3
-409.013
-438.041
-455.778
-462.351
-459.227
-449.056
-435.675
-423.91
-418.998
-425.729
-447.767
-487.397
-545.456
-620.974
-710.422
-807.192
-902.147
-985.43
-1048.78
-1087.24
-1099.46
-1086.98
-1053.07
-1002.03
-938.821
-869.001
-798.355
-732.294
-675.158
-629.702
-596.928
-576.215
-565.663
-562.553
-563.839
-566.628
-568.549
-567.992
-564.21
-557.361
-548.515
-539.623
-533.353
-532.72
-540.581
-559.12
-589.533
-632.004
-685.881
-749.85
-821.924
-899.231
-977.813
-1052.71
-1118.51
-1170.21
-1204.12
-1218.34
-1212.68
-1188.23
-1146.95
-1091.82
-1027.34
-960.09
-897.994
-848.183
-814.224
-794.866
-785.76
-783.067
-785.563
-792.899
-801.942
-806.036
-799.493
-783.495
-766.959
-760.104
-765.89
-777.158
-782.247
-774.415
-758.07
-738.306
-1023.1
-995.456
-937.19
-844.334
-724.877
-596.151
-477.603
-383.845
-322.259
-293.961
-295.759
-322.383
-368.03
-426.727
-492.108
-557.563
-616.965
-665.403
-699.501
-717.375
-718.556
-704.124
-677.014
-642.146
-605.951
-575.245
-555.987
-552.593
-567.866
-602.971
-656.888
-725.568
-801.678
-875.677
-938.032
-981.513
-1002.49
-1000.86
-979.016
-940.802
-890.785
-833.939
-775.388
-719.97
-671.67
-633.112
-605.295
-587.625
-578.194
-574.214
-572.528
-570.143
-564.68
-554.676
-539.696
-520.316
-498.057
-475.312
-455.229
-441.432
-437.543
-446.566
-470.341
-509.279
-562.452
-627.91
-702.97
-784.28
-867.694
-948.217
-1020.32
-1078.75
-1119.63
-1141.32
-1144.64
-1132.25
-1107.67
-1074.55
-1036.72
-998.874
-966.759
-945.852
-938.768
-943.288
-953.282
-962.568
-968.64
-972.645
-975.65
-975.514
-968.466
-954.326
-939.67
-934.435
-943.694
-961.77
-975.034
-972.697
-954.302
-928.786
-966.023
-930.88
-867.09
-777.306
-669.716
-559.158
-462.171
-391.175
-352.408
-346.338
-369.12
-414.91
-477.872
-552.824
-634.713
-718.03
-796.862
-865.413
-918.528
-952.047
-963.06
-950.306
-914.833
-860.641
-794.641
-725.509
-661.893
-610.925
-577.722
-565.532
-575.667
-606.822
-654.329
-710.34
-765.381
-810.7
-840.272
-851.594
-845.247
-823.84
-791.036
-750.948
-707.812
-665.66
-627.906
-596.915
-573.71
-557.92
-547.962
-541.38
-535.306
-526.959
-514.143
-495.597
-471.163
-441.738
-409.137
-375.935
-345.362
-321.141
-307.151
-306.878
-322.746
-355.594
-404.514
-467.116
-540.016
-619.267
-700.523
-779.009
-849.617
-907.428
-948.713
-972.036
-978.846
-973.072
-959.81
-943.825
-928.836
-917.943
-914.476
-921.801
-941.419
-970.64
-1002.45
-1028.87
-1045.66
-1054.22
-1058.74
-1061.6
-1061.84
-1058.38
-1054.26
-1056.67
-1071.02
-1094.11
-1113.9
-1118.61
-1102.84
-1077.85
-893.849
-851.847
-785.232
-703.062
-613.958
-529.02
-459.984
-415.419
-399.569
-412.369
-450.201
-507.813
-580.385
-664.297
-756.362
-852.595
-947.597
-1034.82
-1107.34
-1158.71
-1183.51
-1177.96
-1140.65
-1073.71
-983.395
-879.414
-772.918
-674.163
-591.113
-529.293
-492.09
-480.613
-492.974
-523.84
-565.085
-607.63
-643.649
-668.108
-679.098
-677.21
-664.562
-644.009
-618.663
-591.582
-565.464
-542.309
-523.157
-507.979
-495.757
-484.707
-472.615
-457.246
-436.801
-410.306
-377.851
-340.582
-300.521
-260.32
-223.078
-192.234
-171.41
-164.053
-172.841
-199.015
-241.925
-299.046
-366.456
-439.543
-513.578
-583.955
-646.235
-696.344
-731.218
-749.834
-754.069
-748.696
-740.145
-734.535
-736.097
-747
-768.432
-801.475
-846.317
-900.066
-955.626
-1003.91
-1038.69
-1060.16
-1073.8
-1085.57
-1097.77
-1109.48
-1120.39
-1133.45
-1152.66
-1177.34
-1199.9
-1210.7
-1200.9
-1182.09
-827.683
-781.137
-715.767
-645.754
-580.205
-525.82
-488.536
-472.059
-477.945
-505.505
-551.887
-613.304
-686.817
-771.075
-865.351
-967.707
-1073.65
-1176.07
-1266.24
-1335.37
-1375.71
-1381.22
-1348.19
-1276.41
-1170.42
-1039.63
-896.711
-754.811
-625.095
-515.775
-432.326
-377.854
-352.865
-354.662
-377.269
-412.464
-451.661
-487.776
-516.28
-535.212
-544.541
-545.39
-539.456
-528.656
-514.861
-499.636
-484.016
-468.37
-452.395
-435.223
-415.604
-392.163
-363.736
-329.749
-290.509
-247.31
-202.29
-158.135
-117.785
-84.2592
-60.5919
-49.6973
-54.0086
-74.8746
-111.933
-162.806
-223.344
-288.386
-352.668
-411.498
-461.009
-498.189
-521.092
-529.501
-525.779
-515.223
-505.207
-503.138
-514.212
-540.426
-581.414
-636.088
-703.124
-779.477
-858.589
-931.125
-989.041
-1030.15
-1059.05
-1083.4
-1108.46
-1134.65
-1159.58
-1182.04
-1203.36
-1224.82
-1244.7
-1257.99
-1255.07
-1245.82
-788.146
-741.183
-682.224
-628.802
-590.014
-568.052
-563.06
-573.734
-598.682
-636.513
-685.386
-743.407
-809.884
-886.01
-973.859
-1074.1
-1183.83
-1295.89
-1399.94
-1484.76
-1540.29
-1558.64
-1534.38
-1465.27
-1353.61
-1207.23
-1038.78
-863.19
-694.543
-544.032
-419.495
-325.907
-265.693
-238.438
-240.505
-265.315
-304.586
-350.068
-395.003
-434.791
-466.872
-490.217
-504.787
-511.159
-510.269
-503.187
-490.909
-474.208
-453.557
-429.138
-400.874
-368.516
-331.798
-290.705
-245.776
-198.333
-150.477
-104.846
-64.2457
-31.3438
-8.53894
2.05169
-1.30992
-19.6295
-52.6046
-98.1069
-152.096
-209.168
-263.58
-310.317
-345.75
-367.778
-375.736
-370.554
-355.304
-335.684
-319.63
-315.549
-329.783
-364.798
-419.392
-490.62
-575.473
-670.528
-770.08
-865.432
-947.447
-1011.11
-1058.29
-1095.99
-1131.23
-1166.48
-1199.22
-1225.43
-1243.66
-1256.24
-1267.18
-1277.34
-1279.37
-1279.82
-792.558
-750.403
-703.304
-670.298
-659.405
-668.665
-693.283
-727.589
-767.489
-810.977
-857.357
-906.712
-960.423
-1021.81
-1095.47
-1184.91
-1289.68
-1403.64
-1515.64
-1612.26
-1681.01
-1712.21
-1699.3
-1638.76
-1530.94
-1381.33
-1201.02
-1005.02
-809.232
-627.562
-470.449
-344.909
-255.078
-202.389
-185.298
-199.137
-236.686
-289.459
-349.2
-409
-463.736
-509.99
-545.722
-569.972
-582.616
-584.158
-575.519
-557.846
-532.373
-500.346
-462.945
-421.212
-376.012
-328.107
-278.38
-228.124
-179.219
-134.073
-95.3056
-65.3371
-46.0974
-38.9506
-44.7422
-63.7429
-95.3278
-137.481
-186.462
-237.003
-283.172
-319.608
-342.592
-350.526
-343.819
-324.619
-296.877
-266.689
-242.243
-232.563
-245.047
-283.066
-345.315
-427.492
-524.807
-633.008
-747.1
-859.682
-961.613
-1045.56
-1109.7
-1158.33
-1198.34
-1234.16
-1264.89
-1286
-1294.25
-1292.22
-1288.31
-1288.98
-1291.67
-1298.76
-852.737
-820.396
-789.779
-779.557
-795.405
-831.959
-880.918
-933.421
-983.25
-1028
-1068.25
-1106.04
-1144.37
-1187.7
-1242.04
-1313.21
-1403.78
-1510.09
-1621.77
-1724.2
-1802.65
-1845.47
-1845
-1797.06
-1700.74
-1559.33
-1381.34
-1180.15
-971.812
-771.92
-593.332
-445.313
-333.815
-261.905
-229.787
-234.595
-270.505
-329.492
-402.592
-481.177
-557.848
-626.807
-683.895
-726.459
-753.201
-763.991
-759.635
-741.619
-711.891
-672.689
-626.401
-575.375
-521.731
-467.225
-413.287
-361.259
-312.699
-269.558
-234.074
-208.404
-194.195
-192.315
-202.845
-225.189
-258.076
-299.309
-345.406
-391.513
-431.908
-461.122
-475.228
-472.714
-454.595
-423.972
-385.618
-345.965
-313.183
-296.449
-303.916
-340.047
-404.12
-491.169
-594.787
-709.394
-830.15
-951.088
-1064.15
-1160.94
-1236.24
-1290.4
-1328.31
-1355.37
-1373.33
-1379.44
-1370.5
-1349.1
-1325.88
-1311.47
-1309.4
-1317.96
-973.481
-954.472
-943.051
-955.671
-994.664
-1052.38
-1118.76
-1183.19
-1237.98
-1280.42
-1312.38
-1337.86
-1361.13
-1386.79
-1420.56
-1469.13
-1537.69
-1626.25
-1727.37
-1827.27
-1910.01
-1961.92
-1973.85
-1940.97
-1861.65
-1737.52
-1574.36
-1382.81
-1177.3
-973.636
-786.283
-626.663
-502.732
-419.241
-377.957
-377.586
-413.705
-479.118
-564.766
-660.95
-758.462
-849.376
-927.454
-988.304
-1029.38
-1049.84
-1050.37
-1032.77
-999.673
-954.236
-899.92
-840.255
-778.569
-717.707
-659.856
-606.611
-559.269
-519.181
-487.943
-467.252
-458.493
-462.296
-478.314
-505.281
-541.213
-583.481
-628.664
-672.375
-709.432
-734.64
-744.009
-735.89
-711.42
-674.164
-629.395
-583.669
-544.798
-521.58
-522.384
-552.668
-612.809
-698.068
-800.973
-914.43
-1033
-1151.76
-1264.36
-1362.85
-1439.96
-1492.18
-1521.09
-1531.55
-1527.84
-1510.65
-1478.8
-1435.17
-1390.63
-1357.7
-1345.84
-1350.26
-1152.04
-1147.63
-1155.51
-1188.26
-1244.49
-1315.64
-1391.81
-1462.13
-1518.03
-1556.25
-1579.48
-1593.54
-1604.05
-1615.17
-1630.93
-1656.81
-1699.14
-1761.65
-1841.64
-1928.82
-2008.19
-2064.86
-2087.88
-2071.14
-2012.25
-1911.61
-1772.71
-1603.06
-1414.33
-1220.98
-1037.85
-877.938
-751.185
-664.169
-620.227
-619.483
-658.785
-731.857
-829.912
-942.703
-1059.73
-1171.32
-1269.37
-1347.82
-1402.84
-1432.87
-1438.41
-1421.62
-1385.82
-1335.07
-1273.81
-1206.56
-1137.64
-1070.9
-1009.35
-955.045
-909.227
-872.693
-846.22
-830.75
-827.208
-836.048
-856.812
-887.967
-927.065
-971.031
-1016.33
-1058.93
-1094.32
-1117.91
-1125.98
-1116.74
-1091.16
-1052.76
-1006.86
-959.787
-918.601
-891.107
-885.164
-906.738
-957.531
-1033.9
-1128.31
-1232.53
-1340.04
-1446.19
-1546.33
-1634.15
-1702.19
-1744.33
-1758.54
-1747.79
-1717.71
-1672.87
-1615.57
-1549.64
-1484.62
-1432.78
-1407.89
-1403.78
-1378.77
-1387.89
-1412.42
-1460.06
-1525.91
-1601.95
-1680.25
-1751.34
-1806.31
-1840.74
-1856.94
-1861.87
-1862.6
-1863.27
-1865.76
-1872.7
-1889.31
-1921.65
-1972.26
-2036.57
-2103.29
-2158.27
-2189.18
-2188.02
-2150.99
-2077.23
-1968.34
-1828.99
-1667.7
-1496.48
-1329.28
-1179.72
-1059.31
-976.455
-936.121
-939.817
-985.544
-1067.9
-1178.5
-1306.92
-1441.81
-1572.18
-1688.38
-1782.85
-1850.59
-1889.3
-1899.26
-1882.97
-1844.51
-1788.9
-1721.53
-1647.79
-1572.76
-1501
-1436.2
-1380.93
-1336.59
-1303.61
-1281.98
-1271.66
-1272.82
-1285.53
-1309.32
-1342.77
-1383.39
-1427.95
-1472.83
-1514.23
-1548.3
-1571.23
-1579.82
-1572.4
-1549.65
-1514.7
-1472.49
-1428.75
-1389.44
-1360.82
-1349.37
-1360.78
-1397.79
-1458.47
-1536.42
-1623.26
-1711.56
-1796.29
-1873.88
-1940.18
-1989.17
-2014.04
-2010.06
-1977.45
-1921.64
-1850.16
-1769.22
-1684.14
-1602.43
-1534.45
-1495.98
-1481.12
-1639.09
-1658.72
-1694.99
-1750.69
-1817.97
-1890.52
-1963.84
-2031.5
-2085.17
-2118.56
-2131.82
-2131.35
-2125.35
-2118.84
-2112.55
-2105.96
-2101.36
-2104.78
-2122.64
-2156.85
-2202.11
-2247.56
-2280.99
-2292.68
-2276.71
-2230.48
-2153.78
-2048.91
-1921.43
-1780.51
-1638.26
-1507.9
-1401.78
-1329.79
-1298.49
-1310.74
-1365.64
-1458.56
-1581.58
-1724.24
-1874.72
-2021.1
-2152.57
-2260.4
-2338.56
-2384.09
-2397.03
-2380.19
-2338.4
-2277.69
-2204.51
-2125.11
-2045.18
-1969.67
-1902.62
-1846.9
-1804.1
-1774.5
-1757.48
-1752.04
-1757.33
-1772.72
-1797.55
-1830.61
-1869.82
-1912.22
-1954.37
-1992.8
-2024.22
-2045.65
-2054.64
-2049.82
-2031.66
-2002.74
-1967.32
-1930.28
-1896.27
-1869.62
-1854.79
-1856.15
-1876.77
-1916.44
-1970.93
-2033.05
-2095.39
-2152.41
-2200.95
-2238.59
-2261.72
-2264.68
-2241.65
-2190.28
-2114.31
-2022.5
-1924.2
-1826.36
-1734.28
-1655.64
-1605.84
-1580.3
-1916.14
-1942
-1983.78
-2040.41
-2101.86
-2163.99
-2226.32
-2286.95
-2339.51
-2375.84
-2392.03
-2391.46
-2381.99
-2370.13
-2357.36
-2341.55
-2321.75
-2301.82
-2289.5
-2291.75
-2310
-2338.76
-2368.13
-2387.73
-2389.58
-2368.81
-2323.22
-2253.07
-2161.42
-2054.77
-1942.96
-1838
-1752.21
-1696.39
-1678.36
-1702.23
-1768.07
-1872
-2006.5
-2161.22
-2324.07
-2482.58
-2625.18
-2742.34
-2827.33
-2876.68
-2890.28
-2871.13
-2824.75
-2758.18
-2678.99
-2594.39
-2510.67
-2432.99
-2365.33
-2310.49
-2269.99
-2244.01
-2231.49
-2230.68
-2239.66
-2256.85
-2281.07
-2311.19
-2345.64
-2382.15
-2417.91
-2449.99
-2475.79
-2493.16
-2500.48
-2496.91
-2482.81
-2460.21
-2432.49
-2403.53
-2376.64
-2354.23
-2338.33
-2331.24
-2335.23
-2351.3
-2377.69
-2409.77
-2441.45
-2467.41
-2484.43
-2491.13
-2486.1
-2466.06
-2425.83
-2361.39
-2274.12
-2172.04
-2066.06
-1964.25
-1869.96
-1787.97
-1731.46
-1697.05
-2193.73
-2221.06
-2261.93
-2313.31
-2363.91
-2411.41
-2458.65
-2509.01
-2559.79
-2602.05
-2627.03
-2632.52
-2623.56
-2607.45
-2588.12
-2564.52
-2534.13
-2497.99
-2462.57
-2437.07
-2428.19
-2436.38
-2455.81
-2477.27
-2491.57
-2491.71
-2473.39
-2434.92
-2377.38
-2305.02
-2225.48
-2149.09
-2087.41
-2051.34
-2049.45
-2086.77
-2164.21
-2278.5
-2422.55
-2586.14
-2757.12
-2922.73
-3071.03
-3192.12
-3278.95
-3327.87
-3338.79
-3314.93
-3262.33
-3188.9
-3103.29
-3013.74
-2927.22
-2849.08
-2783.02
-2731.34
-2695.04
-2673.9
-2666.51
-2670.52
-2683.14
-2701.79
-2724.5
-2749.91
-2776.83
-2803.84
-2829.09
-2850.61
-2866.67
-2876.08
-2878.19
-2872.81
-2860.44
-2842.56
-2821.6
-2800.32
-2780.77
-2763.67
-2748.77
-2735.85
-2725.53
-2718.88
-2716.24
-2716.11
-2715.21
-2709.6
-2696.31
-2674.23
-2643.39
-2602.92
-2549.5
-2478.81
-2389.89
-2288.7
-2185.86
-2089.75
-2002.05
-1924.89
-1867.69
-1827.54
-2458.74
-2483
-2517.47
-2559.08
-2596.77
-2628.94
-2659.78
-2697.26
-2743.74
-2791.7
-2828.54
-2845.21
-2841.18
-2822.5
-2795.71
-2763.27
-2724.03
-2677.47
-2627.6
-2582.86
-2552.29
-2540.91
-2547.47
-2565.43
-2585.95
-2600.76
-2603.77
-2591.59
-2563.68
-2522.58
-2473.98
-2426.45
-2390.24
-2375.67
-2391.35
-2442.72
-2531.27
-2654.23
-2804.87
-2973.21
-3147.18
-3313.98
-3461.61
-3580.17
-3662.75
-3705.92
-3709.91
-3678.31
-3617.63
-3536.42
-3444.18
-3350.06
-3261.8
-3185
-3123.09
-3077.56
-3048.45
-3034.69
-3034.25
-3044.22
-3061.16
-3081.65
-3102.87
-3122.96
-3140.84
-3155.81
-3167.17
-3174.15
-3176.21
-3173.32
-3165.93
-3154.77
-3140.73
-3124.91
-3108.77
-3093.84
-3080.93
-3069.41
-3057.19
-3041.75
-3021.5
-2996.55
-2968.22
-2937.91
-2905.84
-2870.82
-2831.03
-2785.45
-2734.52
-2679.02
-2617.76
-2547.16
-2464.71
-2373.69
-2283.19
-2201.06
-2127.86
-2063.26
-2011.87
-1970.12
-2702.5
-2720.11
-2744.4
-2773.44
-2798.77
-2818.25
-2834.6
-2858.08
-2896.15
-2945.2
-2991.69
-3020.83
-3025.09
-3006.58
-2972.76
-2930.31
-2881.95
-2828.21
-2771.22
-2716.94
-2673.67
-2648.31
-2643.07
-2654.66
-2675.98
-2698.85
-2716.28
-2723.69
-2719.35
-2704.49
-2683.28
-2662.57
-2651.05
-2657.87
-2691.02
-2755.82
-2853.89
-2982.81
-3136.18
-3304.37
-3475.54
-3637.14
-3777.37
-3886.61
-3958.43
-3990.06
-3982.4
-3939.72
-3869.06
-3779.45
-3680.92
-3583.23
-3494.73
-3421.34
-3366.28
-3330.22
-3311.99
-3309.21
-3318.76
-3336.99
-3359.88
-3383.4
-3404.03
-3419.33
-3428.11
-3430.17
-3425.82
-3415.65
-3400.49
-3381.63
-3360.84
-3339.99
-3320.7
-3304.05
-3290.69
-3280.83
-3273.97
-3268.26
-3260.35
-3246
-3221.58
-3185.48
-3138.78
-3084.58
-3026.45
-2966.7
-2905.81
-2843.31
-2779.47
-2715.59
-2652.02
-2586.4
-2515.4
-2439.93
-2366.89
-2303.47
-2249.79
-2203.71
-2163.66
-2125.44
-2920.69
-2929.75
-2942.37
-2957.5
-2972.33
-2983.61
-2990.03
-3000.63
-3026.1
-3068.16
-3116.15
-3153.09
-3165.52
-3149.86
-3111.81
-3060.63
-3003.66
-2944.57
-2885.49
-2829.87
-2783.36
-2752.01
-2739.41
-2744.86
-2763.68
-2789.08
-2814.36
-2834.58
-2847.32
-2852.91
-2854.31
-2856.82
-2867.48
-2893.9
-2942.9
-3019.13
-3124
-3255.16
-3406.56
-3569.02
-3731.2
-3881.06
-4007.27
-4100.78
-4155.84
-4170.57
-4146.91
-4090.09
-4007.93
-3909.91
-3806.3
-3707.08
-3620.78
-3553.5
-3508.29
-3485.13
-3481.6
-3493.78
-3517.09
-3546.76
-3578.06
-3606.47
-3628.04
-3639.89
-3640.66
-3630.44
-3610.44
-3582.48
-3548.81
-3512.1
-3475.49
-3442.18
-3414.85
-3395.01
-3382.87
-3377.48
-3376.86
-3377.93
-3376.36
-3366.91
-3344.48
-3305.76
-3250.56
-3182.25
-3106.49
-3029
-2953.28
-2880.34
-2810.34
-2744.26
-2683.08
-2625.37
-2567.57
-2508.54
-2453.2
-2408.28
-2374.87
-2349.72
-2324.64
-2295.11
-3112.12
-3113.03
-3115.01
-3116.09
-3122.09
-3129.18
-3131.08
-3132.01
-3142.4
-3168.66
-3206.06
-3240.26
-3255.55
-3243.33
-3205.26
-3150.22
-3088.39
-3026.99
-2969.66
-2918.55
-2876.38