/*--------------------------------*- C++ -*----------------------------------*\
| =========                 |                                                 |
| \\      /  F ield         | OpenFOAM: The Open Source CFD Toolbox           |
|  \\    /   O peration     | Version:  2406                                  |
|   \\  /    A nd           | Website:  www.openfoam.com                      |
|    \\/     M anipulation  |                                                 |
\*---------------------------------------------------------------------------*/
FoamFile
{
    version     2.0;
    format      ascii;
    arch        "LSB;label=32;scalar=64";
    class       volScalarField;
    location    "6";
    object      p_rgh;
}
// * * * * * * * * * * * * * * * * * * * * * * * * * * * * * * * * * * * * * //

dimensions      [1 -1 -2 0 0 0 0];

internalField   nonuniform List<scalar> 
10000
(
2823.43
2795.47
2735.27
2631.51
2496.57
2346.89
2195.49
2048.05
1909.06
1786.38
1690.27
1628.98
1605.4
1616.96
1657.62
1719.98
1796.67
1880.73
1965.3
2043.41
2108.24
2154.1
2177.45
2177.68
2157.04
2120.16
2073.2
2023.3
1978.01
1944.68
1929.62
1937.12
1968.75
2023.14
2096.33
2182.51
2274.84
2366.24
2450.08
2520.7
2573.81
2606.78
2618.79
2610.92
2585.96
2548.18
2502.76
2455.34
2411.45
2376.27
2354.38
2349.65
2365.02
2402.21
2461.35
2540.83
2637.14
2745.05
2857.93
2968.18
3067.91
3149.61
3207.01
3235.81
3234.31
3203.64
3147.79
3073.1
2987.46
2899.21
2815.9
2743.16
2683.84
2637.63
2601.25
2569.12
2534.46
2490.49
2431.69
2354.79
2259.54
2148.9
2028.81
1907.47
1794.23
1698.41
1628.1
1589.18
1584.51
1613.62
1672.84
1756.13
1856.2
1965.07
2073.39
2169.56
2241.48
2282.53
2297.14
2298.87
2803.85
2779.41
2721.36
2617.77
2476.66
2315.18
2153.17
2003.36
1871.37
1760.21
1674.03
1617.97
1595.69
1607.14
1648.08
1711.27
1788.34
1871.21
1952.79
2026.84
2087.73
2130.63
2152.21
2151.52
2130.51
2093.85
2048.08
2000.61
1958.84
1929.48
1918
1928.06
1960.95
2015.34
2087.33
2171.13
2259.84
2346.46
2424.66
2489.31
2536.82
2565.19
2573.99
2564.29
2538.58
2500.56
2454.84
2406.56
2360.89
2322.67
2296.2
2285.15
2292.43
2320.03
2368.7
2437.61
2524.16
2623.93
2730.9
2837.84
2936.99
3020.72
3082.43
3117.3
3122.98
3099.98
3051.7
2983.99
2904.4
2821.1
2741.64
2671.77
2614.51
2569.75
2534.3
2502.61
2467.88
2423.38
2363.76
2286.09
2190.48
2080.31
1961.84
1843.45
1734.53
1644.19
1580.14
1547.74
1549.36
1583.94
1647.02
1731.54
1829.6
1934.14
2038.91
2135.92
2214.03
2263.53
2283.45
2281.76
2757.14
2735.12
2678.44
2575.76
2430.86
2263.83
2097.9
1948.89
1823.34
1722.91
1649.13
1604.62
1591.43
1608.96
1653
1716.49
1791.09
1868.86
1943.12
2008.47
2060.43
2095.29
2110.63
2106.04
2083.78
2048.65
2007.13
1966.26
1932.7
1912.05
1908.55
1924.73
1961.09
2015.81
2084.94
2162.91
2243.32
2319.88
2387.14
2441.01
2478.88
2499.58
2503.19
2490.85
2464.64
2427.53
2383.17
2335.7
2289.4
2248.36
2216.35
2196.75
2192.48
2205.89
2238.46
2290.39
2360.29
2444.99
2539.59
2637.76
2732.29
2815.78
2881.47
2924.09
2940.58
2930.58
2896.49
2843.19
2777.28
2706.1
2636.59
2574.08
2521.5
2478.84
2443.24
2409.69
2372.07
2324.46
2262.39
2183.72
2089.24
1982.71
1870.49
1760.69
1662.13
1583.06
1530.24
1508.08
1518.2
1558.89
1624.99
1708.73
1801.99
1899
1996.47
2089.75
2169.17
2223.82
2248.94
2252.48
2669.11
2649.5
2595.39
2501.51
2362.6
2197.2
2030.8
1884.62
1769.31
1686.42
1633.64
1608.68
1610.16
1636.33
1683.51
1745.52
1814.52
1882.67
1943.61
1993.09
2028.6
2048.8
2053.16
2042.41
2019.09
1987.8
1954.57
1925.67
1906.46
1900.75
1910.63
1936.63
1977.78
2031.67
2094.57
2161.69
2227.84
2288.07
2338.38
2376.08
2399.94
2409.95
2406.9
2392.11
2367.11
2333.73
2294.15
2250.94
2206.98
2165.24
2128.68
2100.12
2082.31
2077.84
2088.91
2116.96
2162.19
2223.19
2296.81
2378.33
2461.76
2540.57
2608.34
2659.64
2690.74
2700.15
2688.76
2659.63
2617.43
2567.61
2515.5
2465.34
2419.63
2378.64
2340.48
2301.6
2257.65
2204.55
2139.53
2061.79
1972.92
1876.75
1779.06
1686.74
1606.95
1546.13
1509.2
1499.28
1517.39
1561.92
1627.86
1706.72
1789.06
1868.93
1946.32
2023.42
2097.58
2159.13
2194.51
2210.99
2548.42
2525.51
2470.55
2386.03
2262.22
2112.65
1959.38
1825
1723.72
1659.26
1628.21
1624.77
1643.73
1680.91
1732.05
1791.65
1852.89
1908.71
1953.5
1984.21
2000.29
2002.91
1993.94
1975.69
1951.23
1924.72
1901.23
1885.76
1882.08
1892.03
1915.48
1950.77
1995.29
2045.87
2099.02
2151.1
2198.63
2238.6
2268.91
2288.55
2297.62
2297.03
2288.12
2272.14
2249.99
2222.24
2189.36
2152.03
2111.37
2068.98
2026.88
1987.43
1953.39
1927.77
1913.68
1913.91
1930.34
1963.51
2012.23
2073.56
2143.07
2215.3
2284.42
2344.98
2392.64
2424.67
2440.25
2440.35
2427.28
2404.16
2374.21
2340.17
2303.82
2265.74
2225.34
2181.13
2131.27
2074.3
2009.69
1938.27
1862.29
1785.25
1711.5
1645.76
1592.46
1555.15
1536.17
1536.8
1557.63
1598.32
1656.03
1723.92
1792.25
1853.56
1908.14
1963.15
2023.99
2085.81
2130.75
2162.42
2406.38
2374.48
2317.51
2240.44
2136.76
2013.85
1886.72
1774.86
1693.58
1649.19
1639.42
1657.09
1693.95
1742.92
1798.3
1854.88
1907.14
1949.53
1977.65
1989.59
1986.38
1971.29
1948.52
1922.15
1895.91
1873.51
1858.71
1854.86
1864.03
1886.28
1919.67
1960.74
2005.48
2050.01
2091.09
2126.21
2153.7
2172.74
2183.27
2186.02
2182.3
2173.69
2161.69
2147.25
2130.49
2110.71
2086.67
2057.12
2021.29
1979.24
1932.01
1881.55
1830.72
1783.11
1742.85
1714.09
1700.43
1704.32
1726.54
1766.04
1819.99
1884.13
1953.31
2022.16
2085.76
2140.18
2182.87
2212.66
2229.54
2234.29
2228.02
2211.88
2186.93
2154.06
2114.06
2067.7
2015.97
1960.18
1902.17
1844.24
1788.97
1738.97
1696.57
1663.63
1641.26
1629.65
1628.1
1635.66
1652.38
1679.71
1718.9
1767.59
1818.08
1861.29
1894.85
1926.99
1969.65
2023.87
2073.54
2117.01
2252.77
2211.2
2153.15
2081.13
1997.99
1906.74
1814.94
1735.98
1682.81
1662.56
1674.62
1712.15
1765.43
1825.12
1883.92
1936.6
1979.05
2007.69
2019.82
2014.7
1994.4
1963.58
1928.12
1893.66
1864.65
1844.36
1835.2
1838.75
1855.36
1883.67
1920.55
1961.58
2002.01
2037.65
2065.51
2084.05
2093.14
2093.79
2087.84
2077.55
2065.27
2052.99
2042.06
2032.86
2024.61
2015.35
2002.32
1982.54
1953.47
1913.69
1863.18
1803.45
1737.45
1669.39
1604.35
1547.85
1505.11
1480.43
1476.48
1494.04
1531.84
1586.82
1654.54
1729.69
1806.8
1880.77
1947.37
2003.45
2046.94
2076.64
2091.99
2093.02
2080.35
2055.32
2020.05
1977.46
1931.01
1884.46
1841.48
1805.25
1778.08
1761.06
1754.06
1755.85
1764.33
1776.63
1789.35
1799.35
1805.64
1811.02
1821.3
1840.8
1867.25
1892.18
1909.33
1923.58
1948.5
1989.69
2037.3
2085.25
2091
2045.44
1989.33
1922.55
1858.36
1798.32
1745.03
1705.3
1687.08
1695.72
1731.2
1787.73
1855.68
1924.71
1986.4
2035.33
2068.57
2084.58
2082.64
2063.24
2029.09
1985.31
1938.59
1895.55
1861.3
1838.98
1829.97
1834.35
1851
1877.54
1910.29
1944.69
1976.03
2000.4
2015.25
2019.79
2014.85
2002.61
1986.12
1968.7
1953.37
1942.32
1936.6
1935.9
1938.5
1941.37
1940.55
1931.72
1911.01
1875.75
1824.97
1759.67
1682.78
1598.86
1513.79
1434.12
1366.42
1316.51
1288.75
1285.5
1306.99
1351.3
1414.74
1492.24
1577.93
1665.78
1750.11
1826.09
1889.95
1939.04
1971.78
1987.65
1987.32
1972.77
1947.35
1915.66
1883.01
1854.79
1835.66
1828.85
1835.57
1854.85
1883.74
1917.97
1952.72
1983.13
2004.36
2012.08
2004.21
1983.73
1959.64
1943.07
1939.53
1944.55
1949.32
1952.5
1963.7
1989.59
2028.64
2072.58
1922.33
1881.13
1831.3
1773.58
1727.73
1696.06
1679.41
1679.6
1698.83
1738.63
1798.08
1872.33
1952.95
2029.99
2094.71
2141.51
2168.17
2174.76
2162.37
2132.72
2088.77
2035.4
1979.09
1926.66
1883.67
1853.47
1837.14
1833.99
1842.06
1858.45
1879.47
1900.97
1918.98
1930.32
1933.21
1927.41
1914.24
1896.24
1876.73
1859.26
1846.96
1841.95
1844.9
1854.86
1869.34
1884.53
1895.69
1897.74
1886.02
1857.07
1809.27
1743.13
1661.38
1568.67
1471.16
1375.97
1290.43
1221.35
1174.22
1152.68
1158.16
1189.83
1244.86
1318.7
1405.53
1498.88
1592.18
1679.41
1755.6
1817.14
1861.94
1889.48
1900.87
1898.88
1887.89
1873.6
1862.36
1860.23
1871.91
1899.86
1943.59
1999.61
2061.97
2123.46
2177.11
2217.19
2239.27
2239.71
2216.43
2171.8
2115.6
2063.4
2028.35
2012.5
2007.4
2005.32
2007.88
2019.09
2044.83
2077.4
1750.55
1720.04
1680.91
1638.27
1612.59
1607.17
1623.25
1659.79
1714.06
1783.24
1864.4
1953.21
2043.04
2125.61
2192.95
2239.52
2263.29
2265.16
2247.42
2212.69
2163.96
2105.26
2042.01
1980.37
1925.85
1882.2
1850.93
1831.57
1822.33
1820.51
1822.96
1826.37
1827.76
1825
1817.17
1804.64
1788.86
1772.11
1757.16
1746.87
1743.73
1749.31
1763.78
1785.7
1812.1
1838.73
1860.54
1872.26
1869.04
1847.19
1804.8
1742.09
1661.51
1567.52
1466.14
1364.42
1269.79
1189.31
1128.97
1093.07
1083.87
1101.43
1143.8
1207.22
1286.47
1375.34
1467.16
1555.49
1634.76
1700.92
1751.75
1787.06
1808.6
1819.97
1826.28
1833.73
1848.81
1877.29
1923.08
1987.23
2067.3
2157.28
2248.39
2330.72
2395.45
2436.73
2451.9
2440.15
2401.38
2337.85
2258.13
2178.58
2117.23
2082.91
2070.24
2067.07
2065.78
2065.06
2075.53
2092.01
1583.47
1565.52
1540.16
1518.13
1515.86
1536.44
1581.73
1649.32
1733.14
1826.61
1924.5
2022.6
2116.34
2200.08
2267.75
2314.5
2338.29
2339.97
2322.15
2287.76
2239.52
2180.35
2114.03
2045.27
1978.88
1918.78
1867.26
1824.96
1791.22
1764.57
1743.05
1724.58
1707.29
1690.08
1672.82
1656.36
1642.21
1632.1
1627.75
1630.64
1641.91
1662.02
1690.37
1725.09
1762.95
1799.69
1830.41
1850.09
1854.22
1839.36
1803.72
1747.47
1672.83
1583.89
1486.19
1386.26
1290.98
1207.01
1140.14
1094.73
1073.34
1076.61
1103.31
1150.56
1214.14
1288.77
1368.52
1447.38
1520.02
1582.46
1632.7
1671.01
1699.79
1723.32
1747.13
1777.35
1819.85
1879.23
1957.88
2055.07
2166.47
2284.12
2397.17
2493.64
2563.18
2599.82
2603.05
2576.09
2522.78
2446.74
2354.79
2260.9
2183.88
2137.27
2120.1
2118.69
2117.58
2109.3
2105.62
2105.01
1431.56
1424.19
1413.49
1414.79
1438.44
1485.49
1557.24
1650.36
1756.89
1867.77
1975.9
2076.96
2168.35
2247.57
2311.39
2356.55
2381.15
2385.48
2371.58
2341.99
2298.8
2243.75
2178.84
2106.87
2031.34
1955.74
1882.98
1815.06
1753.14
1697.75
1648.95
1606.37
1569.5
1538.11
1512.58
1494.02
1483.83
1483.17
1492.63
1512.1
1540.92
1577.98
1621.58
1669.28
1717.8
1763.13
1800.88
1826.71
1836.82
1828.41
1800.09
1752.19
1686.78
1607.51
1519.26
1427.69
1338.71
1258.06
1190.79
1140.8
1110.52
1100.74
1110.71
1138.36
1180.51
1233.21
1291.91
1351.88
1408.77
1459.33
1502.1
1537.82
1569.42
1601.6
1640
1690.27
1757.1
1843.33
1949.24
2072.11
2205.98
2341.82
2468
2571.74
2641.81
2671.95
2663.07
2622.06
2557.51
2475.92
2382.97
2288.54
2208.5
2157.77
2139.56
2141.43
2143.35
2132.65
2118.77
2104.08
1306.04
1305.61
1308.58
1332.73
1382.54
1455.56
1550.75
1663.54
1785.19
1905.66
2016.86
2114.43
2197.38
2266.25
2321.14
2361.13
2385.02
2392.52
2384.52
2362.51
2327.62
2280.41
2221.27
2151.11
2071.73
1985.63
1895.68
1804.83
1716.01
1632.07
1555.57
1488.5
1432.11
1387.12
1354.23
1334.4
1328.67
1337.64
1360.92
1396.99
1443.44
1497.4
1555.82
1615.53
1673.15
1725.09
1767.74
1797.73
1812.24
1809.36
1788.35
1749.8
1695.7
1629.23
1554.48
1476.05
1398.62
1326.69
1264.19
1214.18
1178.64
1158.24
1152.47
1159.8
1178.02
1204.49
1236.33
1270.57
1304.52
1336.22
1365.07
1392.35
1421.28
1456.66
1503.93
1568.03
1652.3
1757.59
1881.85
2020.22
2165.39
2308.02
2437.13
2540.83
2608.27
2633.02
2616.31
2567.14
2497.95
2418.65
2334.81
2251.95
2180.51
2133.59
2117.14
2122.21
2128.34
2119.95
2101.76
2079.19
1217.3
1220.78
1235.68
1280.15
1354.03
1450.68
1565.18
1691.07
1819.57
1941.06
2047.66
2135.37
2204.43
2257.81
2298.77
2329.11
2348.98
2357.9
2355.6
2342.13
2317.39
2280.76
2231.29
2168.31
2091.94
2003.34
1904.64
1798.89
1690
1582.66
1481.91
1392.39
1317.65
1259.82
1220.02
1198.86
1196.73
1213.5
1248.01
1297.68
1358.76
1426.85
1497.53
1566.76
1630.94
1686.89
1731.88
1763.65
1780.57
1781.8
1767.36
1738.24
1696.37
1644.48
1585.8
1523.76
1461.69
1402.63
1349.15
1303.27
1266.25
1238.51
1219.61
1208.41
1203.43
1203.13
1206.18
1211.47
1218.28
1226.34
1236.26
1249.91
1270.61
1302.87
1351.62
1421.02
1513.15
1627.15
1758.87
1901.46
2046.38
2184.44
2306.31
2402.52
2464.16
2485.38
2466.96
2418.02
2352.84
2283.98
2217.52
2155.27
2101.31
2064.31
2051.25
2057.85
2067.4
2064.51
2048.25
2025.52
1173.71
1179.93
1205.23
1266.77
1361.14
1477.42
1605.98
1737.95
1864.82
1978.52
2072.65
2144.26
2194.61
2228.33
2251.08
2267.22
2278.69
2285.44
2286.51
2280.67
2266.52
2242.27
2205.86
2155.34
2089.41
2007.81
1911.49
1802.75
1685.36
1564.7
1447.46
1340.67
1250.44
1180.95
1134.26
1110.9
1110.52
1132.11
1173.74
1232.15
1302.74
1380.09
1458.69
1533.68
1601.12
1658.13
1702.74
1733.78
1750.89
1754.33
1745.03
1724.46
1694.57
1657.66
1616.13
1572.25
1527.98
1484.82
1443.86
1405.84
1371.19
1339.91
1311.59
1285.43
1260.5
1236.12
1212.12
1189.05
1168
1150.59
1138.84
1135.32
1143.34
1166.81
1209.8
1275.52
1365.1
1476.52
1604.3
1740.13
1874.5
1998.47
2104.64
2186.79
2239.26
2257.82
2242.72
2201.57
2148.17
2096.11
2052.08
2015.27
1983.65
1960.17
1950.87
1956.4
1966.91
1970.38
1961.12
1945.35
1181.07
1190.68
1225.3
1300.57
1410.81
1541.41
1678.06
1809.29
1926.9
2024.93
2099.48
2149.41
2177.09
2188.1
2189.49
2187.5
2185.87
2185.62
2185.88
2184.81
2180.07
2168.9
2148.25
2115.07
2066.81
2001.86
1919.82
1821.66
1710.06
1589.75
1467.68
1352.23
1251.75
1172.82
1119.24
1092.18
1090.93
1113.66
1157.68
1219.21
1293.27
1373.97
1455.22
1531.57
1598.76
1654.01
1695.9
1724.21
1739.62
1743.53
1737.72
1724.22
1705.1
1682.32
1657.57
1632.1
1606.59
1581.07
1555.16
1528.24
1499.67
1468.92
1435.51
1398.96
1358.89
1315.27
1268.82
1221.18
1174.96
1133.4
1099.96
1078.08
1071.06
1082.03
1113.88
1168.62
1246.55
1345.16
1458.57
1578.01
1693.59
1796.62
1881.36
1944.81
1985.1
2000.47
1991
1961.94
1924.61
1891.82
1870.54
1858.62
1849.38
1839.85
1833.63
1835.35
1843.52
1851.88
1852.27
1848.22
1242.39
1256.8
1300.03
1385.4
1505.83
1644.14
1782.29
1906.58
2008.99
2085.69
2135.61
2160.02
2162.54
2149.22
2127.56
2104.76
2085.93
2073.51
2067.57
2066.62
2068.22
2069.21
2065.82
2053.99
2029.86
1990.39
1933.71
1859.25
1768.03
1663.12
1550.25
1437.66
1334.86
1250.55
1190.85
1158.48
1153.23
1172.96
1214.4
1273.39
1344.85
1422.88
1501.35
1574.6
1638.22
1689.42
1727.09
1751.6
1764.45
1767.86
1764.4
1756.6
1746.69
1736.44
1726.98
1718.75
1711.38
1703.75
1694.13
1680.58
1661.32
1635.05
1601.06
1559.12
1509.39
1452.51
1389.84
1323.74
1257.75
1196.26
1143.96
1105.16
1083.29
1080.77
1099.08
1138.79
1199.21
1277.66
1368.74
1464.35
1555.09
1632.79
1692.92
1735.05
1760.8
1771.27
1766.86
1750.24
1728.93
1713.31
1710.07
1717.04
1725.15
1726.67
1721.86
1717.64
1720.27
1730.3
1740.1
1749.08
1356.77
1377.33
1428.52
1519.87
1643.63
1781.64
1913.96
2025.65
2108.85
2161.39
2184.76
2182.55
2159.69
2122.36
2077.77
2033.15
1994.44
1965.41
1947.67
1941.1
1944.22
1954.39
1967.77
1979.54
1984.45
1977.72
1955.68
1916.05
1857.99
1782.48
1693.03
1596.26
1501.3
1418.02
1354.67
1316.21
1303.99
1316.47
1350.38
1401.42
1464.63
1534.45
1605.1
1671.16
1728.29
1773.75
1806.52
1827.24
1837.79
1840.9
1839.61
1836.82
1834.9
1835.46
1839.24
1846.09
1854.94
1863.83
1870.1
1870.73
1862.87
1844.33
1813.92
1771.45
1717.57
1653.6
1581.53
1504.22
1425.64
1350.74
1284.94
1233.24
1199.33
1185.11
1190.77
1215.22
1256.5
1311.63
1376.11
1443.36
1505.46
1555.27
1589.23
1608.58
1617.69
1620.38
1617.89
1610.55
1601.51
1597.41
1603.96
1619.96
1636.49
1643.35
1637.56
1626.29
1621.2
1629.04
1645.38
1665.14
1517.69
1545.33
1603.6
1696.46
1815.91
1944.64
2063.19
2156.95
2218.53
2246.83
2245.03
2218.41
2172.76
2114.06
2048.68
1983.23
1923.83
1875.39
1841.29
1823.42
1822.23
1836.67
1863.78
1898.64
1934.84
1965.55
1984.8
1988.2
1972.92
1937.82
1883.9
1815.22
1739.11
1665.11
1602.76
1559.28
1538.3
1539.93
1561.77
1599.99
1650.01
1706.85
1765.4
1820.82
1869.12
1907.68
1935.5
1953.17
1962.6
1966.58
1968.26
1970.65
1976.11
1986.11
2001.1
2020.48
2042.73
2065.48
2085.56
2099.36
2103.25
2094.23
2070.45
2031.51
1978.34
1912.88
1837.82
1756.51
1673.1
1592.57
1520.47
1462.04
1421.16
1399.47
1396.15
1408.54
1433.12
1466.24
1504.07
1541.92
1574.03
1594.94
1602.02
1597.5
1587.51
1578.22
1572.15
1568.15
1565.14
1565.28
1572.32
1586.46
1601.12
1606.36
1597.1
1579.02
1565.76
1568.09
1586.49
1612.01
1712.11
1747.25
1811.04
1900.82
2008.41
2118.97
2215.96
2286.96
2325.72
2331.79
2309.01
2263.22
2200.26
2125.31
2043.42
1960.1
1881.27
1812.72
1759.6
1726.08
1715.07
1727.82
1763.3
1817.49
1883.49
1952.62
2016.24
2067.21
2100.41
2112.6
2102.46
2071.31
2023.8
1967.79
1912.75
1867.43
1837.86
1826.54
1832.88
1854.29
1887.09
1927.18
1970.32
2012.47
2050.22
2081.21
2104.42
2120.21
2130.17
2136.75
2142.82
2151.17
2163.99
2182.53
2206.97
2236.39
2268.99
2302.2
2332.77
2356.99
2370.98
2371.25
2355.39
2322.54
2273.62
2211.02
2138.12
2058.86
1977.61
1899.12
1828.51
1770.7
1729.42
1706.09
1699.28
1705.06
1718.32
1734.3
1749.29
1760.19
1763.65
1756.33
1736.71
1707.49
1675.68
1649.26
1632.47
1623.91
1619.39
1616.53
1616.29
1619.75
1623.87
1621.46
1607.11
1584.02
1564.23
1559.52
1575.29
1600.28
1921.62
1963.62
2030.24
2112.41
2201.51
2286.45
2355.49
2400.05
2415.9
2403.1
2365.27
2307.66
2235.09
2151.17
2059.11
1962.88
1867.87
1780.65
1708.13
1656.76
1631.96
1637.51
1674.82
1741.76
1832.08
1936.06
2042.55
2141.31
2224.36
2286.18
2323.38
2334.86
2322.5
2291.63
2250.39
2207.84
2171.82
2147.36
2136.37
2138.26
2150.91
2171.46
2196.81
2223.89
2250.01
2273.16
2292.31
2307.49
2319.71
2330.76
2342.86
2358.22
2378.67
2405.16
2437.62
2474.89
2514.95
2555.15
2592.39
2623.24
2644.06
2651.42
2642.63
2616.46
2573.55
2516.43
2449.02
2375.93
2301.89
2231.52
2169.24
2119.13
2084.25
2065.64
2061.4
2066.77
2075.33
2080.94
2079.37
2068.47
2047.04
2014
1969.15
1915.4
1859.84
1811.56
1776.78
1755.31
1741.67
1729.9
1717.7
1705.99
1695.08
1682.02
1662.81
1638.13
1615.57
1604.77
1614.57
1633.38
2125.13
2171.67
2237.04
2307.06
2372.6
2426.99
2464.27
2480.75
2474.87
2447.3
2400.92
2339.51
2265.99
2181.74
2087.46
1985.1
1879.16
1776.74
1686.57
1617.44
1577.1
1571.59
1604.62
1676.4
1782.39
1913.18
2056.1
2198
2327.72
2437.04
2520.49
2574.96
2599.95
2598.15
2575.54
2540.35
2501.15
2465.03
2436.53
2417.6
2408.27
2407.42
2413.35
2424.15
2437.95
2453.17
2468.79
2484.44
2500.41
2517.59
2537.2
2560.65
2589.07
2623.06
2662.3
2705.5
2750.52
2794.68
2835.03
2868.55
2892.22
2903.11
2898.8
2877.94
2840.88
2790
2729.47
2664.42
2600.14
2541.31
2491.8
2454.62
2431.72
2423.31
2427.03
2437.59
2447.6
2449.67
2438.6
2412.38
2371.4
2316.72
2249.69
2173.33
2094.22
2021.68
1963.77
1922.66
1893.75
1869.41
1844.35
1818.16
1793.23
1770.77
1749.45
1727.99
1708.11
1694.83
1697.74
1706.99
2302
2348.97
2407.93
2461.35
2500.14
2522.1
2527.09
2516.42
2491.47
2453.64
2404.76
2346.74
2280.27
2204.14
2116.29
2016.05
1906.32
1794.26
1690.21
1605.39
1549.86
1531.51
1555.78
1624.89
1736.54
1882.92
2051.37
2226.96
2395.61
2546.12
2670.66
2764.24
2824.46
2851.71
2849.65
2824.84
2785.56
2740.08
2695.15
2655.36
2623.28
2599.93
2585.36
2578.99
2579.88
2586.96
2599.24
2615.94
2636.59
2661.01
2689.28
2721.63
2758.35
2799.44
2844.37
2891.82
2939.67
2985.3
3025.9
3058.81
3081.61
3092.2
3088.84
3070.52
3037.55
2992.04
2938.05
2880.98
2826.57
2779.83
2744.4
2722.37
2714.41
2719.6
2734.85
2754.47
2770.52
2774.6
2760.37
2725.35
2670.76
2599.53
2514.68
2419.62
2320.07
2224.72
2142.7
2079.04
2031.86
1994.15
1958.92
1923.67
1890.93
1864.72
1846.48
1833.91
1822.97
1812.81
1810.78
1810.33
2434.93
2477.09
2524.19
2557.19
2568.08
2558.83
2534.21
2499.9
2460
2416.51
2370.13
2320.78
2267.07
2205.68
2132.02
2042.58
1937.81
1823.85
1711.85
1615.23
1546.48
1515.28
1528.19
1588.73
1696.56
1846.16
2026.47
2222.47
2418.26
2599.93
2757.04
2882.58
2972.41
3025.1
3042.19
3028.35
2990.8
2938.03
2878.29
2818.49
2763.75
2717.5
2681.77
2657.52
2644.87
2643.33
2651.97
2669.64
2695.12
2727.14
2764.54
2806.28
2851.48
2899.38
2949.11
2999.37
3048.27
3093.42
3132.18
3162.15
3181.39
3188.54
3182.75
3163.75
3132.16
3090.01
3041.03
2990.49
2944.32
2907.88
2884.9
2876.96
2883.67
2902.87
2930.61
2960.8
2985.25
2994.93
2982.44
2944.42
2882.17
2800
2702.68
2594.48
2480.39
2367.81
2265.88
2181.93
2117.78
2069.15
2029.15
1993.33
1962.59
1941.49
1933.24
1935.27
1939.18
1938.51
1935.82
1928.73
2512.09
2544.43
2575.05
2585.27
2569.42
2532.87
2483.91
2431.41
2381.58
2336.83
2296.58
2258.79
2220.46
2177.13
2122.79
2051.62
1961.05
1854.74
1743.06
1640.63
1562.18
1519.36
1519.83
1567.78
1664.09
1805.5
1983.49
2184.68
2393.02
2592.91
2771.5
2919.52
3031.02
3102.93
3135.04
3130.24
3094.33
3035.34
2962.24
2883.65
2806.98
2738.02
2680.93
2638.37
2611.63
2600.84
2605.19
2623.21
2652.94
2692.14
2738.43
2789.45
2843.1
2897.6
2951.54
3003.57
3052.13
3095.27
3130.76
3156.43
3170.63
3172.51
3161.98
3139.64
3106.75
3065.52
3019.42
2973.32
2932.92
2903.71
2889.6
2892.12
2910.23
2940.86
2979.21
3018.86
3051.65
3068.38
3060.91
3024.78
2960.71
2873.66
2770.04
2655.44
2534.68
2413.74
2300.68
2203.89
2128.59
2074.43
2036.52
2009.46
1991.5
1985.39
1994.33
2015.73
2038.94
2053.36
2055.43
2046.87
2528.69
2547.7
2559.12
2546.5
2507.51
2449.79
2383.41
2318.98
2264.19
2221.75
2189.79
2164.32
2141.04
2115.38
2081.61
2033.04
1964.48
1875.92
1774.8
1674.9
1592.16
1540.26
1528.32
1561.2
1640.52
1764.65
1927.81
2119.36
2324.87
2528.53
2715.89
2875.51
2999.44
3082.93
3124.21
3124.58
3088.46
3023.05
2937.4
2841.22
2743.71
2652.79
2574.72
2513.87
2472.79
2452.32
2451.8
2469.4
2502.5
2547.93
2602.25
2661.91
2723.6
2784.46
2842.31
2895.56
2942.9
2982.99
3014.23
3034.92
3043.68
3039.87
3023.86
2996.89
2960.96
2918.69
2873.51
2829.8
2792.74
2767.53
2758.16
2766.28
2790.75
2828.01
2872.77
2918.5
2957.37
2980.59
2979.79
2949.5
2889.36
2804.1
2701.2
2587.74
2469.17
2350.41
2237.81
2139.32
2062.21
2009.98
1981.08
1970.62
1974.33
1991.52
2023.37
2067
2111.54
2144.47
2156.33
2151.91
2487.47
2491.88
2484
2451.26
2395.02
2323.88
2247.7
2177.38
2121.48
2083.26
2060.03
2045.97
2035.46
2024.34
2008.58
1982.69
1940.37
1877.86
1797.87
1710.69
1631.32
1574.65
1551.63
1568.37
1627.26
1727.9
1866.8
2036.45
2225.18
2418.53
2601.66
2761.57
2888.33
2975.34
3019.28
3020.03
2980.72
2907.65
2809.6
2696.81
2579.78
2468.19
2370.14
2291.69
2236.67
2206.64
2201.1
2217.89
2253.69
2304.44
2365.7
2432.95
2501.87
2568.61
2630.16
2684.46
2730.28
2766.82
2793.29
2808.76
2812.3
2803.46
2782.7
2751.54
2712.44
2668.48
2623.18
2580.58
2545.19
2521.6
2513.53
2522.77
2548.35
2586.75
2632.65
2679.72
2720.91
2748.4
2754.35
2732.77
2681.98
2605.61
2511.2
2406.98
2299.47
2193.32
2093.18
2005.36
1937.32
1895.18
1880.97
1891.72
1921.8
1966.64
2023.94
2089.87
2154.89
2206.73
2231.62
2235.73
2398.08
2388.96
2364.43
2316.79
2250.94
2174.9
2096.6
2025.51
1970.54
1936.11
1919.91
1914.98
1914.25
1913.58
1911.09
1904.15
1887.54
1855.19
1804.59
1740.28
1673.56
1618.58
1587.67
1588.83
1625.86
1699.62
1808.51
1947.85
2109.15
2280.37
2447.57
2597.13
2717.54
2800.4
2840.73
2837.03
2791.31
2708.95
2598.35
2469.93
2335.04
2204.67
2088.47
1994
1926.26
1887.55
1877.59
1893.88
1932.34
1987.95
2055.32
2129.06
2204.09
2275.85
2340.65
2395.91
2440.26
2473.24
2494.87
2505.18
2504.03
2491.32
2467.53
2434.08
2393.46
2348.9
2304.02
2262.62
2228.55
2205.62
2197.03
2204.45
2227.2
2262.15
2304.36
2348.1
2387.41
2416.03
2427.48
2416.07
2379.06
2318.38
2240.42
2153.59
2065.29
1980.56
1902.96
1836.67
1787.68
1762.81
1766.79
1799.4
1855.21
1926.69
2007.63
2092.71
2174.42
2242.4
2280.87
2295.73
2275.1
2255.47
2219.2
2163.5
2096.22
2023.67
1950.35
1882.69
1829.02
1795.63
1782.37
1782.84
1788.84
1795.35
1801.64
1808.23
1812.83
1809.41
1791.55
1757.34
1712.08
1666.63
1633.19
1621.51
1637.48
1683.71
1760.41
1865.28
1992.76
2133.68
2275.93
2406.29
2512.41
2584.4
2615.7
2603.45
2548.55
2455.63
2332.61
2189.95
2039.47
1893.09
1761.62
1653.79
1575.63
1530.1
1517.16
1534
1575.79
1636.5
1709.68
1789.08
1869.01
1944.52
2011.57
2067.29
2110.09
2139.69
2156.71
2162.14
2156.86
2141.47
2116.64
2083.57
2044.36
2001.97
1959.82
1921.39
1889.97
1868.54
1859.55
1864.37
1882.53
1911.45
1946.87
1983.91
2017.92
2044.57
2059.4
2058.04
2037.42
1997.75
1943.26
1881.14
1818.8
1761.78
1713.24
1675.6
1652.48
1649.51
1672.54
1723.92
1799.88
1891.69
1989.99
2087.83
2179.91
2258.55
2308.35
2333.89
2135.39
2109.53
2067.75
2011.12
1949.67
1887.54
1825.21
1764.58
1712.02
1675.69
1659.5
1660.07
1669.54
1681.4
1694.17
1709.98
1729.78
1749.71
1762.03
1759.78
1741.53
1712.77
1683.4
1663.79
1661.95
1682.72
1728.3
1798.46
1890.11
1996.76
2108.57
2213.53
2299.31
2355.14
2373.17
2349.3
2283.46
2179.53
2045.03
1890.31
1727.46
1568.95
1426.35
1309.19
1224.2
1174.85
1161.25
1180.4
1226.78
1293.35
1372.54
1457.14
1540.86
1618.54
1686.2
1741.04
1781.54
1807.52
1820.04
1820.85
1811.87
1794.68
1770.46
1740.34
1705.89
1669.38
1633.62
1601.54
1575.74
1558.37
1551.05
1554.62
1568.72
1591.32
1619.04
1648
1674.89
1697.3
1713.2
1720.29
1716.3
1700.23
1673.84
1641.76
1610.08
1584.12
1567.1
1560.4
1565.43
1585.47
1625.7
1690.14
1777.41
1879.49
1985.47
2087.28
2181.57
2263.56
2320.07
2354.48
1995.14
1967.82
1926.94
1875.56
1824.96
1777.46
1730.22
1679.86
1629.08
1586.82
1561.84
1556.34
1565.31
1581.42
1600.75
1624.36
1654.74
1690.88
1726.3
1751.79
1760.68
1752.49
1733.06
1711.6
1697.3
1697.16
1715.48
1753.95
1811.49
1883.84
1963.38
2039.78
2101.46
2137.53
2139.41
2102.1
2024.66
1910.37
1766.32
1602.73
1431.75
1266.14
1117.84
996.755
909.924
860.996
850.083
873.944
926.546
999.972
1085.58
1175.13
1261.65
1339.79
1405.85
1457.53
1493.83
1514.97
1522.36
1518.35
1505.73
1487.08
1464.36
1438.96
1412.04
1385.03
1359.78
1338.26
1322.2
1312.79
1310.68
1316.06
1328.43
1346.31
1367.27
1388.55
1408.1
1425.2
1440.1
1453.02
1463.34
1469.99
1472.63
1472.76
1473.66
1479.27
1492.56
1514.64
1545.48
1585.95
1639.37
1710.06
1798.98
1900.17
2003.01
2099.12
2186.82
2263.98
2321.18
2361.33
1867.47
1843.21
1808.74
1767.13
1729.44
1697.27
1666.43
1628.95
1582.47
1534.51
1497.67
1481
1485.03
1503.71
1530.5
1562.94
1602.19
1648.74
1698.61
1743.35
1773.92
1785.3
1778.74
1760.78
1740.25
1725.44
1722.44
1734.62
1762.53
1803.63
1852.22
1899.76
1935.97
1950.54
1934.86
1883.49
1794.94
1671.98
1521.34
1353
1179.03
1012.23
864.597
746.037
663.464
620.287
616.3
647.899
708.581
789.789
882.032
976.15
1064.42
1141.21
1203.12
1248.65
1277.76
1291.52
1291.96
1281.99
1265.05
1244.56
1223.34
1203.25
1185.37
1170.4
1159.04
1152.06
1150
1152.89
1160.28
1171.43
1185.48
1201.3
1217.44
1232.37
1245.27
1256.79
1269.02
1284.46
1304.71
1329.66
1357.99
1388.3
1420.37
1455.39
1495.18
1540.76
1591.69
1647.19
1708.45
1779.05
1861.5
1952.52
2043.02
2125.15
2198.35
2262.95
2314.34
2356.09
1761.05
1743.44
1719.15
1690.11
1664.78
1645.29
1628.95
1605.47
1567.39
1518.35
1471.86
1442.72
1438.46
1456.97
1490.79
1533.25
1581.6
1635.34
1692.33
1746.61
1789.88
1815.24
1820.48
1808.89
1787.57
1764.7
1747.27
1739.86
1744.2
1759.06
1780.27
1800.98
1812.5
1805.68
1772.53
1707.73
1609.66
1480.74
1327.37
1159.18
988.006
826.409
686.181
576.937
505.116
473.49
481.148
523.83
594.492
684.098
782.632
880.316
968.823
1042.21
1097.27
1133.33
1151.56
1154.34
1144.79
1126.56
1103.67
1080.15
1059.52
1044.22
1035.44
1033.38
1037.73
1047.9
1063.06
1081.91
1102.71
1123.56
1142.85
1159.5
1172.86
1182.72
1189.58
1195.29
1203.2
1217.55
1241.97
1278.07
1324.77
1378.97
1437.1
1496.85
1557.74
1620.24
1684.08
1747.96
1811.53
1877.15
1948.15
2023.62
2096.66
2160.08
2213.76
2259.84
2299.89
2338.11
1680.2
1671.14
1658.52
1643.39
1628.56
1617.28
1610.86
1600.26
1574.79
1532.73
1484.73
1447.79
1435.37
1451.03
1489.08
1540.26
1597.23
1656.32
1715.4
1771.02
1817.53
1848.88
1861.48
1856.03
1837.21
1811.81
1786.53
1766.31
1753.57
1747.98
1746.58
1744.06
1733.41
1706.99
1657.99
1581.76
1476.89
1345.73
1194.33
1031.87
869.686
719.833
593.617
500.11
445.052
430.321
453.982
510.795
592.963
690.983
794.59
893.813
980.11
1047.39
1092.6
1115.76
1119.29
1107.11
1083.8
1054.13
1022.83
994.416
972.855
961.001
960.232
970.445
990.446
1018.4
1052.08
1088.79
1125.4
1158.71
1186.04
1205.88
1218.02
1223.41
1224.03
1222.96
1224.53
1233.98
1256.41
1295.12
1350.33
1418.64
1494.4
1571.89
1647.61
1720.55
1790.55
1856.63
1917.81
1975.52
2033.32
2092.35
2147.69
2192.61
2226.02
2251.17
2276.25
2305.78
1626.12
1625.2
1623.22
1622.14
1616.14
1609.05
1607.15
1606.22
1595.83
1569.57
1532.17
1497.97
1482.68
1494.9
1532.97
1588.01
1649.84
1711.24
1768.57
1819.68
1861.85
1891.51
1905.73
1903.92
1888.49
1864.13
1836.13
1808.89
1784.92
1764.44
1745.47
1724.09
1694.97
1652.22
1590.5
1506.23
1398.55
1269.89
1126
975.462
828.791
697.212
591.199
519.024
485.585
491.77
534.499
607.356
701.562
807.038
913.393
1010.85
1091.16
1148.52
1180.25
1186.97
1172.19
1141.33
1100.62
1056.22
1013.81
978.394
954.188
944.204
949.845
970.726
1004.91
1049.44
1100.75
1154.86
1207.38
1253.86
1290.41
1314.66
1326.29
1327.06
1320.32
1310.58
1303.12
1303.81
1318.42
1351.49
1404.71
1475.78
1558.52
1645.02
1728.74
1806.49
1877.56
1941.42
1997.2
2045.85
2091.16
2135.92
2177.23
2208.08
2225.21
2231.35
2241.08
2258.06
1598.84
1603.04
1608.37
1619.96
1622.23
1617.86
1616.84
1621.74
1626.36
1622.27
1607.45
1589.41
1581.06
1592.91
1627.53
1679.24
1738.27
1795.78
1846.57
1888.68
1921.43
1943.92
1954.9
1953.67
1941.02
1919.33
1891.89
1861.81
1831.14
1800.38
1768.4
1732.65
1689.48
1634.79
1564.88
1477.39
1372.17
1251.83
1121.76
989.792
865.361
758.453
678.31
632.084
623.672
652.979
715.868
804.79
909.932
1020.53
1126.06
1217.17
1286.39
1328.79
1342.48
1328.89
1292.5
1240.02
1179.2
1117.64
1062.1
1018.12
990.023
980.706
991.34
1021.12
1067.38
1126.07
1192.44
1261.34
1327.43
1385.31
1430.1
1458.41
1469.33
1464.76
1449.12
1428.29
1408.77
1396.97
1398.88
1419.46
1461.64
1524.66
1603.39
1689.36
1774.02
1851.8
1920.73
1980.23
2029.6
2069.61
2104.23
2138.01
2170.06
2193.31
2201.11
2194.44
2191.65
2195.45
1598.79
1602.94
1610.58
1631.49
1642.22
1642.41
1642.35
1650.93
1668.72
1688.91
1704.35
1713.98
1723.53
1741.03
1771.2
1812.64
1859.18
1903.57
1940.81
1969.14
1989.02
2001.34
2006.37
2003.71
1993.03
1974.61
1949.52
1919.21
1884.94
1847.35
1806.19
1760.3
1707.77
1646.33
1573.88
1489.26
1392.99
1287.74
1178.43
1071.95
976.39
900.158
850.857
834.149
852.696
905.422
987.333
1090.04
1202.91
1314.59
1414.43
1493.59
1545.68
1567.17
1557.57
1519.5
1458.55
1382.54
1300.41
1220.99
1151.95
1099.31
1067.34
1058.54
1073.56
1110.96
1167.28
1237.41
1315.42
1395.19
1470.68
1536.06
1585.96
1616.3
1625.34
1614.62
1588.82
1554.94
1520.67
1493.27
1478.82
1482.24
1506.87
1553.45
1618.63
1695.05
1773.56
1846.98
1911.73
1966.49