/*--------------------------------*- C++ -*----------------------------------*\
| =========                 |                                                 |
| \\      /  F ield         | OpenFOAM: The Open Source CFD Toolbox           |
|  \\    /   O peration     | Version:  2406                                  |
|   \\  /    A nd           | Website:  www.openfoam.com                      |
|    \\/     M anipulation  |                                                 |
\*---------------------------------------------------------------------------*/
FoamFile
{
    version     2.0;
    format      ascii;
    arch        "LSB;label=32;scalar=64";
    class       surfaceScalarField;
    location    "6";
    object      phi;
}
// * * * * * * * * * * * * * * * * * * * * * * * * * * * * * * * * * * * * * //

dimensions      [0 3 -1 0 0 0 0];

oriented        oriented;

internalField   nonuniform List<scalar> 
19800
(
4.75674e-13
3.8498e-13
9.61848e-13
8.18074e-13
1.49233e-12
9.72002e-13
1.91659e-12
9.92124e-13
2.16619e-12
9.8805e-13
2.23288e-12
9.98057e-13
2.15785e-12
9.89773e-13
1.97045e-12
9.08811e-13
1.67754e-12
7.34607e-13
1.28449e-12
4.97403e-13
8.1701e-13
2.54255e-13
3.21828e-13
5.30581e-14
-1.4852e-13
-8.55273e-14
-5.50967e-13
-1.63353e-13
-8.58949e-13
-1.89719e-13
-1.06136e-12
-1.70094e-13
-1.15716e-12
-1.04394e-13
-1.15004e-12
7.45487e-15
-1.0463e-12
1.58559e-13
-8.56709e-13
3.32253e-13
-5.99845e-13
5.05237e-13
-3.03575e-13
6.54371e-13
-2.62086e-15
7.62635e-13
2.66996e-13
8.2113e-13
4.73943e-13
8.27271e-13
5.95509e-13
7.82128e-13
6.18915e-13
6.89748e-13
5.41313e-13
5.58853e-13
3.69882e-13
4.04666e-13
1.22134e-13
2.48304e-13
-1.74801e-13
1.13063e-13
-4.87025e-13
1.9356e-14
-7.78725e-13
-1.91997e-14
-1.01765e-12
2.9116e-15
-1.17958e-12
8.40056e-14
-1.25069e-12
2.16933e-13
-1.22795e-12
3.90487e-13
-1.11791e-12
5.90222e-13
-9.34648e-13
7.99186e-13
-6.97515e-13
9.99191e-13
-4.28948e-13
1.17291e-12
-1.52598e-13
1.30653e-12
1.08338e-13
1.39237e-12
3.32754e-13
1.43043e-12
5.0329e-13
1.42852e-12
6.07746e-13
1.4006e-12
6.39787e-13
1.36409e-12
5.98629e-13
1.33703e-12
4.87956e-13
1.33594e-12
3.14719e-13
1.37465e-12
8.8558e-14
1.46353e-12
-1.7797e-13
1.60871e-12
-4.68784e-13
1.81096e-12
-7.64021e-13
2.06476e-12
-1.0407e-12
2.35803e-12
-1.27439e-12
2.67315e-12
-1.44149e-12
2.9889e-12
-1.52192e-12
3.28294e-12
-1.50161e-12
3.53418e-12
-1.37485e-12
3.72474e-12
-1.14605e-12
3.84142e-12
-8.30454e-13
3.87673e-12
-4.53592e-13
3.82944e-12
-4.89876e-14
3.70462e-12
3.45586e-13
3.51312e-12
6.92941e-13
3.2706e-12
9.61699e-13
2.99612e-12
1.1311e-12
2.71065e-12
1.19455e-12
2.43515e-12
1.16109e-12
2.18864e-12
1.05437e-12
1.98616e-12
9.08828e-13
1.83714e-12
7.63856e-13
1.74448e-12
6.56867e-13
1.70455e-12
6.16712e-13
1.7079e-12
6.58715e-13
1.74058e-12
7.82122e-13
1.78563e-12
9.70264e-13
1.82474e-12
1.19321e-12
1.84027e-12
1.41244e-12
1.81734e-12
1.58689e-12
1.74611e-12
1.67939e-12
1.62325e-12
1.66257e-12
1.45272e-12
1.52297e-12
1.24525e-12
1.26293e-12
1.01704e-12
9.0004e-13
7.87612e-13
4.64873e-13
5.77145e-13
-2.68062e-15
4.03376e-13
-4.58574e-13
2.79361e-13
-8.6138e-13
2.13208e-13
-1.17933e-12
2.10017e-13
-1.39377e-12
2.72709e-13
-1.49524e-12
3.97195e-13
-1.47504e-12
5.6248e-13
-1.32392e-12
7.2407e-13
-1.05069e-12
8.26719e-13
-7.07495e-13
8.3104e-13
-3.84077e-13
7.33502e-13
-1.59739e-13
5.47407e-13
2.52782e-13
9.89179e-13
7.94772e-13
1.95644e-12
1.6323e-12
2.97878e-12
1.94046e-12
3.84679e-12
1.98051e-12
4.38297e-12
1.93785e-12
4.50799e-12
1.87262e-12
4.27532e-12
1.76993e-12
3.78493e-12
1.58482e-12
3.11732e-12
1.29105e-12
2.31999e-12
9.06316e-13
1.43312e-12
4.85233e-13
5.13679e-13
9.31478e-14
-3.62976e-13
-2.19118e-13
-1.1194e-12
-4.25325e-13
-1.6954e-12
-5.1929e-13
-2.05907e-12
-5.04783e-13
-2.20617e-12
-3.88821e-13
-2.15149e-12
-1.81773e-13
-1.91955e-12
9.83939e-14
-1.54047e-12
4.22929e-13
-1.05183e-12
7.54124e-13
-5.02468e-13
1.05195e-12
4.74735e-14
1.28201e-12
5.32807e-13
1.42089e-12
8.94132e-13
1.45746e-12
1.08828e-12
1.39157e-12
1.09419e-12
1.23298e-12
9.13354e-13
1.00129e-12
5.67136e-13
7.26015e-13
9.34645e-14
4.44604e-13
-4.56441e-13
1.97624e-13
-1.02239e-12
2.20607e-14
-1.54173e-12
-5.4873e-14
-1.95757e-12
-1.94719e-14
-2.22684e-12
1.27797e-13
-2.32576e-12
3.73982e-13
-2.25148e-12
6.96458e-13
-2.01992e-12
1.06597e-12
-1.66101e-12
1.44965e-12
-1.21298e-12
1.81413e-12
-7.17261e-13
2.12908e-12
-2.14691e-13
2.37102e-12
2.56728e-13
2.52688e-12
6.63298e-13
2.59642e-12
9.76985e-13
2.59254e-12
1.17698e-12
2.53931e-12
1.25101e-12
2.46796e-12
1.19565e-12
2.41214e-12
1.01528e-12
2.40361e-12
7.2035e-13
2.46899e-12
3.25968e-13
2.62771e-12
-1.48083e-13
2.89042e-12
-6.76179e-13
3.2577e-12
-1.22556e-12
3.71918e-12
-1.75628e-12
4.25352e-12
-2.2233e-12
4.82986e-12
-2.58053e-12
5.41075e-12
-2.78624e-12
5.95601e-12
-2.80873e-12
6.42684e-12
-2.63152e-12
6.78963e-12
-2.25735e-12
7.01889e-12
-1.71016e-12
7.09937e-12
-1.03439e-12
7.02716e-12
-2.91067e-13
6.80984e-12
4.49224e-13
6.46572e-12
1.11562e-12
6.02223e-12
1.64717e-12
5.51368e-12
2.0022e-12
4.9785e-12
2.16519e-12
4.45591e-12
2.14979e-12
3.98224e-12
1.99706e-12
3.58724e-12
1.76883e-12
3.29068e-12
1.5369e-12
3.10005e-12
1.37006e-12
3.00979e-12
1.3214e-12
3.00213e-12
1.41848e-12
3.04941e-12
1.65836e-12
3.11752e-12
2.00814e-12
3.17008e-12
2.4106e-12
3.173e-12
2.79368e-12
3.09912e-12
3.08207e-12
2.93209e-12
3.20916e-12
2.66903e-12
3.12758e-12
2.32115e-12
2.81657e-12
1.91244e-12
2.28483e-12
1.47645e-12
1.56897e-12
1.05175e-12
7.28658e-13
6.76165e-13
-1.60214e-13
3.80842e-13
-1.01405e-12
1.86054e-13
-1.75357e-12
1.01222e-13
-2.31899e-12
1.287e-13
-2.68175e-12
2.66574e-13
-2.84157e-12
5.03498e-13
-2.80488e-12
8.05422e-13
-2.56592e-12
1.10836e-12
-2.12301e-12
1.33072e-12
-1.53069e-12
1.40705e-12
-9.16617e-13
1.30761e-12
-3.99806e-13
1.01913e-12
4.58268e-13
1.17895e-12
1.29399e-12
2.32945e-12
2.57449e-12
3.53272e-12
3.03044e-12
4.58337e-12
3.02666e-12
5.23002e-12
2.84362e-12
5.35519e-12
2.6071e-12
5.0075e-12
2.33701e-12
4.32417e-12
1.99288e-12
3.43898e-12
1.53691e-12
2.4421e-12
9.77515e-13
1.39333e-12
3.73889e-13
3.50706e-13
-1.91394e-13
-6.15622e-13
-6.46017e-13
-1.43027e-12
-9.47316e-13
-2.03041e-12
-1.08222e-12
-2.38125e-12
-1.05601e-12
-2.48071e-12
-8.81607e-13
-2.35274e-12
-5.76546e-13
-2.03561e-12
-1.67008e-13
-1.57309e-12
3.07258e-13
-1.01265e-12
7.93461e-13
-4.08707e-13
1.23367e-12
1.75355e-13
1.57644e-12
6.71506e-13
1.78625e-12
1.01792e-12
1.84714e-12
1.17139e-12
1.76114e-12
1.11512e-12
1.54531e-12
8.59384e-13
1.22984e-12
4.36626e-13
8.57168e-13
-1.04811e-13
4.79587e-13
-7.06178e-13
1.53367e-13
-1.30321e-12
-6.99873e-14
-1.83195e-12
-1.52621e-13
-2.23611e-12
-7.63015e-14
-2.47465e-12
1.56079e-13
-2.52738e-12
5.22995e-13
-2.39664e-12
9.89118e-13
-2.10472e-12
1.51078e-12
-1.68806e-12
2.0411e-12
-1.19012e-12
2.53456e-12
-6.54913e-13
2.95137e-12
-1.22769e-13
3.26164e-12
3.71488e-13
3.44938e-12
7.98553e-13
3.5153e-12
1.13424e-12
3.47752e-12
1.35972e-12
3.36935e-12
1.46233e-12
3.2343e-12
1.43634e-12
3.11966e-12
1.28261e-12
3.07027e-12
1.00749e-12
3.12375e-12
6.21655e-13
3.30748e-12
1.40342e-13
3.63674e-12
-4.14926e-13
4.11336e-12
-1.01401e-12
4.7248e-12
-1.61694e-12
5.444e-12
-2.17514e-12
6.23102e-12
-2.6355e-12
7.03629e-12
-2.94658e-12
7.80537e-12
-3.06576e-12
8.4842e-12
-2.96617e-12
9.02413e-12
-2.6423e-12
9.38615e-12
-2.11319e-12
9.54422e-12
-1.4225e-12
9.4875e-12
-6.34482e-13
9.2214e-12
1.737e-13
8.76728e-12
9.22633e-13
8.16088e-12
1.54241e-12
7.44959e-12
1.98345e-12
6.68859e-12
2.22451e-12
5.93599e-12
2.27619e-12
5.24715e-12
2.17926e-12
4.6685e-12
1.99746e-12
4.23164e-12
1.80593e-12
3.94898e-12
1.67693e-12
3.81183e-12
1.66583e-12
3.79153e-12
1.80023e-12
3.84347e-12
2.07464e-12
3.91347e-12
2.45144e-12
3.94529e-12
2.86767e-12
3.88867e-12
3.24587e-12
3.70667e-12
3.50689e-12
3.38145e-12
3.58269e-12
2.91732e-12
3.42731e-12
2.34057e-12
3.02409e-12
1.69583e-12
2.38791e-12
1.04008e-12
1.5624e-12
4.34645e-13
6.14043e-13
-6.39747e-14
-3.74292e-13
-4.13823e-13
-1.31062e-12
-5.94691e-13
-2.10562e-12
-6.08536e-13
-2.69213e-12
-4.70492e-13
-3.0454e-12
-1.96722e-13
-3.1841e-12
1.97529e-13
-3.13986e-12
6.81054e-13
-2.91664e-12
1.18256e-12
-2.494e-12
1.59075e-12
-1.88999e-12
1.79182e-12
-1.20037e-12
1.72151e-12
-5.60228e-13
1.36539e-12
6.18572e-13
1.19762e-12
1.74307e-12
2.37059e-12
3.48053e-12
3.55492e-12
4.1035e-12
4.62711e-12
4.07843e-12
5.29345e-12
3.72363e-12
5.40122e-12
3.225e-12
4.96966e-12
2.6735e-12
4.14949e-12
2.08483e-12
3.12182e-12
1.4423e-12
2.02724e-12
7.43181e-13
9.52139e-13
2.37262e-14
-4.8882e-14
-6.47145e-13
-9.27312e-13
-1.19402e-12
-1.6311e-12
-1.56066e-12
-2.11248e-12
-1.72178e-12
-2.34355e-12
-1.67992e-12
-2.32735e-12
-1.45501e-12
-2.09707e-12
-1.076e-12
-1.70488e-12
-5.79129e-13
-1.20817e-12
-1.08884e-14
-6.61411e-13
5.70617e-13
-1.16105e-13
1.10073e-12
3.7533e-13
1.51934e-12
7.59133e-13
1.7829e-12
9.87059e-13
1.8717e-12
1.02782e-12
1.79031e-12
8.76124e-13
1.56344e-12
5.5399e-13
1.23089e-12
1.04386e-13
8.43807e-13
-4.18348e-13
4.61014e-13
-9.56776e-13
1.43678e-13
-1.45568e-12
-5.26792e-14
-1.86567e-12
-8.71798e-14
-2.14695e-12
5.92889e-14
-2.27361e-12
3.81197e-13
-2.23721e-12
8.50339e-13
-2.04792e-12
1.42154e-12
-1.73204e-12
2.04013e-12
-1.32648e-12
2.6495e-12
-8.71567e-13
3.1975e-12
-4.04419e-13
3.64153e-12
4.52644e-14
3.95227e-12
4.56097e-13
4.11648e-12
8.13082e-13
4.13883e-12
1.10457e-12
4.0422e-12
1.32e-12
3.86578e-12
1.44945e-12
3.66049e-12
1.4845e-12
3.48233e-12
1.41931e-12
3.38505e-12
1.25091e-12
3.41388e-12
9.7924e-13
3.60118e-12
6.07849e-13
3.96417e-12
1.46155e-13
4.50398e-12
-3.87294e-13
5.20547e-12
-9.62126e-13
6.03773e-12
-1.53585e-12
6.95581e-12
-2.05687e-12
7.9039e-12
-2.47051e-12
8.81995e-12
-2.72678e-12
9.6411e-12
-2.78831e-12
1.03092e-11
-2.63715e-12
1.0776e-11
-2.27924e-12
1.10072e-11
-1.74547e-12
1.09855e-11
-1.08878e-12
1.0713e-11
-3.77156e-13
1.0211e-11
3.16477e-13
9.51922e-12
9.25602e-13
8.69205e-12
1.40061e-12
7.79451e-12
1.71638e-12
6.89616e-12
1.8756e-12
6.06411e-12
1.90734e-12
5.35538e-12
1.86084e-12
4.80934e-12
1.79562e-12
4.44165e-12
1.76924e-12
4.24109e-12
1.82528e-12
4.17053e-12
1.98396e-12
4.1722e-12
2.23769e-12
4.17647e-12
2.55241e-12
4.11285e-12
2.87419e-12
3.92109e-12
3.13907e-12
3.56113e-12
3.28414e-12
3.01996e-12
3.25801e-12
2.31464e-12
3.0293e-12
1.49042e-12
2.59179e-12
6.14654e-13
1.96505e-12
-2.32461e-13
1.19022e-12
-9.6877e-13
3.2388e-13
-1.52209e-12
-5.66289e-13
-1.84275e-12
-1.40263e-12
-1.91469e-12
-2.10237e-12
-1.75911e-12
-2.59625e-12
-1.42411e-12
-2.85906e-12
-9.61975e-13
-2.92662e-12
-4.09859e-13
-2.86684e-12
2.05287e-13
-2.71518e-12
8.35982e-13
-2.43973e-12
1.38768e-12
-1.99015e-12
1.73618e-12
-1.36072e-12
1.7807e-12
-6.89579e-13
1.46423e-12
6.8048e-13
1.16849e-12
2.08457e-12
2.28267e-12
4.19544e-12
3.33035e-12
4.94746e-12
4.27865e-12
4.9099e-12
4.8638e-12
4.4081e-12
4.92905e-12
3.66277e-12
4.45659e-12
2.82141e-12
3.57651e-12
1.96357e-12
2.48502e-12
1.11532e-12
1.36005e-12
2.81752e-13
3.20077e-13
-5.19374e-13
-5.72246e-13
-1.24353e-12
-1.28512e-12
-1.82935e-12
-1.79544e-12
-2.22125e-12
-2.08253e-12
-2.38861e-12
-2.13635e-12
-2.33201e-12
-1.96994e-12
-2.07688e-12
-1.62454e-12
-1.66203e-12
-1.16258e-12
-1.13189e-12
-6.52512e-13
-5.35238e-13
-1.54753e-13
7.27567e-14
2.83684e-13
6.31646e-13
6.26113e-13
1.08326e-12
8.41338e-13
1.38335e-12
9.04255e-13
1.5114e-12
8.03012e-13
1.47361e-12
5.47176e-13
1.29906e-12
1.69935e-13
1.03236e-12
-2.7812e-13
7.26692e-13
-7.40298e-13
4.38603e-13
-1.16446e-12
2.23416e-13
-1.50929e-12
1.29557e-13
-1.74615e-12
1.91714e-13
-1.85882e-12
4.2457e-13
-1.8432e-12
8.19471e-13
-1.70727e-12
1.34543e-12
-1.47038e-12
1.95428e-12
-1.16073e-12
2.58847e-12
-8.10864e-13
3.18954e-12
-4.51858e-13
3.70568e-12
-1.07966e-13
4.09722e-12
2.06636e-13
4.33995e-12
4.87757e-13
4.42662e-12
7.37799e-13
4.3673e-12
9.60526e-13
4.18874e-12
1.15628e-12
3.93263e-12
1.31956e-12
3.65187e-12
1.43927e-12
3.40478e-12
1.50078e-12
3.24807e-12
1.48821e-12
3.22995e-12
1.38637e-12
3.385e-12
1.18293e-12
3.73131e-12
8.71469e-13
4.26973e-12
4.55523e-13
4.98429e-12
-4.75798e-14
5.84328e-12
-6.05035e-13
6.80106e-12
-1.17032e-12
7.80096e-12
-1.6885e-12
8.77937e-12
-2.10401e-12
9.67078e-12
-2.36917e-12
1.04133e-11
-2.45185e-12
1.09538e-11
-2.34103e-12
1.12531e-11
-2.04917e-12
1.12891e-11
-1.61079e-12
1.10601e-11
-1.07702e-12
1.0585e-11
-5.07071e-13
9.90303e-12
4.1867e-14
9.06962e-12
5.23888e-13
8.15184e-12
9.1098e-13
7.22158e-12
1.19574e-12
6.34799e-12
1.39008e-12
5.58942e-12
1.52042e-12
4.98558e-12
1.62061e-12
4.55109e-12
1.72349e-12
4.27201e-12
1.85297e-12
4.10676e-12
2.01797e-12
3.99192e-12
2.20994e-12
3.85253e-12
2.40452e-12
3.6149e-12
2.56679e-12
3.21979e-12
2.65853e-12
2.63337e-12
2.64541e-12
1.85433e-12
2.50308e-12
9.15668e-13
2.22152e-12
-1.19148e-13
1.80713e-12
-1.165e-12
1.28139e-12
-2.12677e-12
6.75561e-13
-2.91177e-12
2.3982e-14
-3.44155e-12
-6.37823e-13
-3.66466e-12
-1.26655e-12
-3.56984e-12
-1.8029e-12
-3.19516e-12
-2.18018e-12
-2.62161e-12
-2.35999e-12
-1.94511e-12
-2.37111e-12
-1.23832e-12
-2.30216e-12
-5.33108e-13
-2.22713e-12
1.54725e-13
-2.12624e-12
7.77326e-13
-1.89363e-12
1.23697e-12
-1.41466e-12
1.42467e-12
-7.79151e-13
1.24575e-12
6.05385e-13
1.14273e-12
2.30124e-12
2.14389e-12
4.63533e-12
2.99883e-12
5.45203e-12
3.7135e-12
5.39972e-12
4.12229e-12
4.80167e-12
4.10161e-12
3.88146e-12
3.6102e-12
2.80954e-12
2.7386e-12
1.71306e-12
1.66372e-12
6.68288e-13
5.74385e-13
-2.91939e-13
-3.86004e-13
-1.1525e-12
-1.1387e-12
-1.89118e-12
-1.65724e-12
-2.47124e-12
-1.94284e-12
-2.85237e-12
-2.00578e-12
-3.00906e-12
-1.86128e-12
-2.943e-12
-1.53675e-12
-2.68271e-12
-1.0798e-12
-2.27308e-12
-5.57334e-13
-1.76316e-12
-4.33566e-14
-1.20008e-12
3.97765e-13
-6.2967e-13
7.22546e-13
-9.88302e-14
9.08888e-13
3.46623e-13
9.49329e-13
6.69931e-13
8.45293e-13
8.53082e-13
6.07621e-13
9.02139e-13
2.61331e-13
8.45194e-13
-1.51975e-13
7.24675e-13
-5.78739e-13
5.88394e-13
-9.64131e-13
4.82736e-13
-1.26354e-12
4.48523e-13
-1.44982e-12
5.18005e-13
-1.51447e-12
7.11559e-13
-1.4646e-12
1.03419e-12
-1.31827e-12
1.47326e-12
-1.10044e-12
1.99891e-12
-8.39569e-13
2.56776e-12
-5.64353e-13
3.12905e-12
-3.00192e-13
3.63209e-12
-6.54848e-14
4.03318e-12
1.31435e-13
4.30097e-12
2.93652e-13
4.41946e-12
4.34336e-13
4.38871e-12
5.72413e-13
4.224e-12
7.26094e-13
3.95418e-12
9.06291e-13
3.61968e-12
1.11221e-12
3.26973e-12
1.33042e-12
2.9582e-12
1.53717e-12
2.73803e-12
1.70235e-12
2.65516e-12
1.79385e-12
2.74334e-12
1.78171e-12
3.02095e-12
1.64251e-12
3.48991e-12
1.36422e-12
4.13623e-12
9.50686e-13
4.93125e-12
4.24335e-13
5.8334e-12
-1.74484e-13
6.7906e-12
-7.9194e-13
7.74353e-12
-1.36813e-12
8.63001e-12
-1.8458e-12
9.38992e-12
-2.17867e-12
9.97031e-12
-2.33788e-12
1.03302e-11
-2.31566e-12
1.04447e-11
-2.12562e-12
1.03078e-11
-1.7993e-12
9.93436e-12
-1.37966e-12
9.35858e-12
-9.12853e-13
8.63122e-12
-4.40295e-13
7.81385e-12
6.94799e-15
6.97189e-12
4.10399e-13
6.16683e-12
7.6312e-13
5.4487e-12
1.06639e-12
4.84931e-12
1.32548e-12
4.3771e-12
1.54568e-12
4.01472e-12
1.72919e-12
3.72043e-12
1.87341e-12
3.43409e-12
1.97105e-12
3.08739e-12
2.01204e-12
2.61673e-12
1.98671e-12
1.97616e-12
1.88906e-12
1.14783e-12
1.71889e-12
1.47797e-13
1.48228e-12
-9.73984e-13
1.19116e-12
-2.1399e-12
8.62283e-13
-3.25585e-12
5.14959e-13
-4.22483e-12
1.65462e-13
-4.95903e-12
-1.80148e-13
-5.38894e-12
-5.27834e-13
-5.4712e-12
-8.82971e-13
-5.19961e-12
-1.22677e-12
-4.61823e-12
-1.50511e-12
-3.82529e-12
-1.65694e-12
-2.95091e-12
-1.67389e-12
-2.10924e-12
-1.63005e-12
-1.35422e-12
-1.62544e-12
-6.80844e-13
-1.67277e-12
-7.70606e-14
-1.64381e-12
4.2273e-13
-1.35272e-12
7.36822e-13
-8.03215e-13
7.55106e-13
4.04626e-13
1.10674e-12
2.42289e-12
1.96547e-12
4.82278e-12
2.61315e-12
5.62734e-12
3.03616e-12
5.53339e-12
3.1984e-12
4.87756e-12
3.03747e-12
3.86968e-12
2.51806e-12
2.66953e-12
1.69517e-12
1.42098e-12
7.06047e-13
2.37569e-13
-2.78725e-13
-8.13598e-13
-1.1107e-12
-1.70535e-12
-1.69855e-12
-2.42815e-12
-2.01342e-12
-2.97126e-12
-2.07153e-12
-3.31879e-12
-1.91021e-12
-3.45954e-12
-1.5715e-12
-3.39964e-12
-1.09954e-12
-3.1676e-12
-5.46769e-13
-2.808e-12
2.16504e-14
-2.36882e-12
5.33586e-13
-1.89144e-12
9.25028e-13
-1.40849e-12
1.15521e-12
-9.47733e-13
1.21235e-12
-5.35368e-13
1.10823e-12
-1.9409e-13
8.68299e-13
6.3528e-14
5.25152e-13
2.41123e-13
1.17873e-13
3.59225e-13
-3.06869e-13
4.49725e-13
-6.97474e-13
5.47303e-13
-1.00546e-12
6.82052e-13
-1.19567e-12
8.75488e-13
-1.25351e-12
1.13946e-12
-1.18625e-12
1.47615e-12
-1.01869e-12
1.87797e-12
-7.8596e-13
2.32756e-12
-5.26321e-13
2.7986e-12
-2.7521e-13
3.25821e-12
-6.08287e-14
3.67063e-12
9.90509e-14
4.00177e-12
1.99071e-13
4.22374e-12
2.46899e-13
4.31865e-12
2.62183e-13
4.28088e-12
2.73545e-13
4.11751e-12
3.13451e-13
3.84706e-12
4.11311e-13
3.49747e-12
5.86163e-13
3.10392e-12
8.41004e-13
2.70682e-12
1.16061e-12
2.34939e-12
1.51337e-12
2.07439e-12
1.85629e-12
1.91993e-12
2.14122e-12
1.91539e-12
2.32125e-12
2.07833e-12
2.35673e-12
2.41314e-12
2.22094e-12
2.91116e-12
1.90512e-12
3.55154e-12
1.42175e-12
4.30244e-12
8.04789e-13
5.1226e-12
1.06068e-13
5.9635e-12
-6.11526e-13
6.77251e-12
-1.28273e-12
7.49686e-12
-1.84854e-12
8.08805e-12
-2.26344e-12
8.50621e-12
-2.50021e-12
8.72413e-12
-2.55185e-12
8.73054e-12
-2.43041e-12
8.53207e-12
-2.16281e-12
8.15312e-12
-1.78482e-12
7.63315e-12
-1.33453e-12
7.02145e-12
-8.47303e-13
6.37004e-12
-3.53429e-13
5.72614e-12
1.21688e-13
5.12543e-12
5.55822e-13
4.58695e-12
9.284e-13
4.11019e-12
1.22035e-12
3.6747e-12
1.41556e-12
3.24264e-12
1.50338e-12
2.76472e-12
1.48125e-12
2.1893e-12
1.35671e-12
1.47334e-12
1.14808e-12
5.93273e-13
8.83121e-13
-4.46726e-13
5.95309e-13
-1.61103e-12
3.18344e-13
-2.83465e-12
8.08283e-14
-4.03141e-12
-9.68527e-14
-5.10713e-12
-2.04067e-13
-5.97462e-12
-2.43035e-13
-6.56565e-12
-2.35612e-13
-6.83575e-12
-2.27325e-13
-6.76373e-12
-2.75159e-13
-6.35356e-12
-4.12768e-13
-5.64577e-12
-6.14706e-13
-4.73145e-12
-8.02437e-13
-3.74715e-12
-9.09847e-13
-2.83324e-12
-9.55447e-13
-2.07317e-12
-1.0295e-12
-1.46197e-12
-1.1782e-12
-9.40409e-13
-1.29258e-12
-4.68323e-13
-1.17638e-12
-7.40638e-14
-7.47932e-13
1.45205e-13
1.42265e-13
1.01762e-12
2.47177e-12
1.72424e-12
4.81757e-12
2.17005e-12
5.54458e-12
2.30095e-12
5.37166e-12
2.19257e-12
4.6701e-12
1.85302e-12
3.63894e-12
1.28084e-12
2.41246e-12
5.16814e-13
1.12378e-12
-3.43005e-13
-1.00379e-13
-1.16645e-12
-1.16867e-12
-1.82377e-12
-2.03821e-12
-2.22474e-12
-2.70393e-12
-2.33764e-12
-3.17705e-12
-2.18463e-12
-3.46896e-12
-1.82067e-12
-3.58846e-12
-1.30995e-12
-3.54908e-12
-7.12487e-13
-3.37653e-12
-8.43266e-14
-3.10815e-12
5.15727e-13
-2.78367e-12
1.02457e-12
-2.43421e-12
1.38418e-12
-2.07719e-12
1.55691e-12
-1.71951e-12
1.53592e-12
-1.36463e-12
1.34389e-12
-1.01697e-12
1.02248e-12
-6.80697e-13
6.20796e-13
-3.55219e-13
1.88836e-13
-3.2249e-14
-2.24363e-13
3.02432e-13
-5.72318e-13
6.6343e-13
-8.1586e-13
1.05982e-12
-9.30363e-13
1.49185e-12
-9.11662e-13
1.95098e-12
-7.77169e-13
2.42185e-12
-5.61445e-13
2.8848e-12
-3.08261e-13
3.31799e-12
-6.20462e-14
3.69933e-12
1.39317e-13
4.00832e-12
2.69731e-13
4.22784e-12
3.18145e-13
4.34544e-12
2.89773e-13
4.3544e-12
2.0514e-13
4.25448e-12
9.70549e-14
4.05249e-12
5.8715e-15
3.76215e-12
-2.65676e-14
3.40312e-12
3.60663e-14
2.99931e-12
2.17399e-13
2.5772e-12
5.22407e-13
2.1646e-12
9.3446e-13
1.78985e-12
1.41648e-12
1.48086e-12
1.91596e-12
1.26336e-12
2.37237e-12
1.15874e-12
2.72518e-12
1.18187e-12
2.92134e-12
1.33976e-12
2.92186e-12
1.63114e-12
2.70721e-12
2.04664e-12
2.28096e-12
2.569e-12
1.67059e-12
3.17336e-12
9.2475e-13
3.82796e-12
1.07146e-13
4.49563e-12
-7.1179e-13
5.13624e-12
-1.4636e-12
5.70993e-12
-2.08943e-12
6.18063e-12
-2.54569e-12
6.51966e-12
-2.80736e-12
6.70893e-12
-2.86888e-12
6.74347e-12
-2.74259e-12
6.63244e-12
-2.45508e-12
6.39782e-12
-2.04233e-12
6.07048e-12
-1.54504e-12
5.68404e-12
-1.00539e-12
5.26803e-12
-4.65597e-13
4.8419e-12
3.25678e-14
4.41135e-12
4.48708e-13
3.96749e-12
7.466e-13
3.48863e-12
8.98947e-13
2.94432e-12
8.92937e-13
2.30117e-12
7.34781e-13
1.5301e-12
4.51506e-13
6.14183e-13
8.90773e-14
-4.44113e-13
-2.9356e-13
-1.61802e-12
-6.33995e-13
-2.85526e-12
-8.77847e-13
-4.08154e-12
-9.88699e-13
-5.20935e-12
-9.52788e-13
-6.15167e-12
-7.77429e-13
-6.83795e-12
-4.88101e-13
-7.22675e-12
-1.30873e-13
-7.30828e-12
2.20754e-13
-7.09539e-12
4.70688e-13
-6.61202e-12
5.34813e-13
-5.89395e-12
3.9659e-13
-5.00625e-12
1.33963e-13
-4.05798e-12
-1.30683e-13
-3.18361e-12
-3.31653e-13
-2.4844e-12
-5.066e-13
-1.97129e-12
-7.14565e-13
-1.56558e-12
-8.96605e-13
-1.17003e-12
-9.10155e-13
-7.55545e-13
-6.19158e-13
-3.87549e-13
-9.24901e-14
8.45181e-13
2.44323e-12
1.39397e-12
4.6559e-12
1.64522e-12
5.26412e-12
1.52346e-12
4.98697e-12
1.16976e-12
4.23612e-12
6.50683e-13
3.21355e-12
1.26178e-14
2.03298e-12
-6.95321e-13
8.0487e-13
-1.40651e-12
-3.53239e-13
-2.03409e-12
-1.34439e-12
-2.4855e-12
-2.11717e-12
-2.68839e-12
-2.66834e-12
-2.61377e-12
-3.02609e-12
-2.28335e-12
-3.22754e-12
-1.75782e-12
-3.30421e-12
-1.11353e-12
-3.28007e-12
-4.21626e-13
-3.17761e-12
2.59679e-13
-3.02221e-12
8.80145e-13
-2.83903e-12
1.39038e-12
-2.64459e-12
1.74344e-12
-2.44036e-12
1.90633e-12
-2.21383e-12
1.87251e-12
-1.94653e-12
1.66573e-12
-1.62313e-12
1.33252e-12
-1.23626e-12
9.29285e-13
-7.8569e-13
5.11448e-13
-2.75152e-13
1.28036e-13
2.89411e-13
-1.80358e-13
8.98796e-13
-3.83902e-13
1.53817e-12
-4.67486e-13
2.1859e-12
-4.34426e-13
2.81482e-12
-3.06867e-13
3.39524e-12
-1.21512e-13
3.89852e-12
7.8009e-14
4.30009e-12
2.49428e-13
4.582e-12
3.58707e-13
4.73486e-12
3.84859e-13
4.75863e-12
3.22902e-13
4.662e-12
1.8493e-13
4.4602e-12
-1.1246e-15
4.17233e-12
-1.95197e-13
3.81909e-12
-3.5081e-13
3.42123e-12
-4.21878e-13
2.99866e-12
-3.69792e-13
2.56958e-12
-1.70122e-13
2.14992e-12
1.81901e-13
1.7532e-12
6.68359e-13
1.39124e-12
1.24926e-12
1.07513e-12
1.86708e-12
8.15879e-13
2.45431e-12
6.24372e-13
2.94224e-12
5.1065e-13
3.26934e-12
4.83062e-13
3.38845e-12
5.47589e-13
3.27233e-12
7.07259e-13
2.91737e-12
9.61345e-13
2.34479e-12
1.30427e-12
1.59863e-12
1.72455e-12
7.40488e-13
2.20441e-12
-1.58162e-13
2.72036e-12
-1.02436e-12
3.24495e-12
-1.79134e-12
3.74901e-12
-2.40451e-12
4.20444e-12
-2.82559e-12
4.58699e-12
-3.03506e-12
4.87896e-12
-3.03285e-12
5.07133e-12
-2.83729e-12
5.16441e-12
-2.48225e-12
5.16622e-12
-2.01308e-12
5.08859e-12
-1.48234e-12
4.94185e-12
-9.46034e-13
4.72985e-12
-4.60404e-13
4.44723e-12
-7.83489e-14
4.07966e-12
1.55486e-13
3.60718e-12
2.11187e-13
3.0093e-12
8.05048e-14
2.27068e-12
-2.1803e-13
1.38642e-12
-6.3794e-13
3.66326e-13
-1.10901e-12
-7.62498e-13
-1.54696e-12
-1.9549e-12
-1.86788e-12
-3.1492e-12
-2.00494e-12
-4.27132e-12
-1.923e-12
-5.242e-12
-1.62494e-12
-5.98831e-12
-1.14637e-12
-6.45862e-12
-5.43091e-13
-6.63644e-12
1.16331e-13
-6.54417e-12
7.45266e-13
-6.23046e-12
1.23245e-12
-5.74633e-12
1.46311e-12
-5.12949e-12
1.37916e-12
-4.41402e-12
1.03768e-12
-3.6584e-12
5.95517e-13
-2.95649e-12
2.04579e-13
-2.40181e-12
-8.90745e-14
-2.02237e-12
-3.26709e-13
-1.74846e-12
-5.10194e-13
-1.46007e-12
-5.94929e-13
-1.08909e-12
-4.39094e-13
-6.67475e-13
-2.18254e-13
5.93092e-13
2.31448e-12
9.68437e-13
4.33075e-12
1.02455e-12
4.80319e-12
7.01256e-13
4.42378e-12
1.58719e-13
3.62745e-12
-5.01027e-13
2.62835e-12
-1.18865e-12
1.53501e-12
-1.8349e-12
4.37754e-13
-2.38871e-12
-5.67173e-13
-2.8049e-12
-1.39484e-12
-3.03701e-12
-1.99708e-12
-3.04435e-12
-2.3744e-12
-2.80887e-12
-2.56732e-12
-2.34903e-12
-2.6342e-12
-1.71965e-12
-2.6288e-12
-9.96013e-13
-2.58856e-12
-2.51686e-13
-2.53548e-12
4.55934e-13
-2.48271e-12
1.08543e-12
-2.43807e-12
1.60242e-12
-2.40114e-12
1.97402e-12
-2.35806e-12
2.17378e-12
-2.28066e-12
2.19289e-12
-2.13288e-12
2.04784e-12
-1.88144e-12
1.7781e-12
-1.50522e-12
1.43576e-12
-9.99133e-13
1.07353e-12
-3.73041e-13
7.36874e-13
3.5141e-13
4.60642e-13
1.14352e-12
2.6772e-13
1.96543e-12
1.67296e-13
2.77447e-12
1.53022e-13
3.52662e-12
2.03335e-13
4.18087e-12
2.85567e-13
4.70295e-12
3.63059e-13
5.06804e-12
4.02653e-13
5.26261e-12
3.80253e-13
5.28575e-12
2.83963e-13
5.1498e-12
1.1563e-13
4.87911e-12
-1.08586e-13
4.50649e-12
-3.58988e-13
4.06796e-12
-5.95275e-13
3.59754e-12
-7.7177e-13
3.12348e-12
-8.44124e-13
2.66647e-12
-7.76252e-13
2.23932e-12
-5.46504e-13
1.84767e-12
-1.52421e-13
1.49135e-12
3.86667e-13
1.16645e-12
1.03005e-12
8.67987e-13
1.71954e-12
5.92451e-13
2.38644e-12
3.39647e-13
2.96017e-12
1.13508e-13
3.37678e-12
-7.79699e-14
3.58619e-12
-2.23357e-13
3.55756e-12
-3.08856e-13
3.28279e-12
-3.19962e-13
2.77772e-12
-2.43749e-13
2.08072e-12
-7.14803e-14
1.24836e-12
1.9915e-13
3.48676e-13
5.62794e-13
-5.46589e-13
1.00648e-12
-1.36931e-12
1.51067e-12
-2.06085e-12
2.05088e-12
-2.5763e-12
2.59972e-12
-2.88758e-12
3.12926e-12
-2.98561e-12
3.61364e-12
-2.88147e-12
4.03133e-12
-2.60572e-12
4.36638e-12
-2.20563e-12
4.60753e-12
-1.74041e-12
4.74572e-12
-1.27528e-12
4.77078e-12
-8.75115e-13
4.66936e-12
-5.98087e-13
4.42538e-12
-4.89001e-13
4.02351e-12
-5.72308e-13
3.45442e-12
-8.45666e-13
2.72013e-12
-1.27584e-12
1.83762e-12
-1.79907e-12
8.39746e-13
-2.32707e-12
-2.26671e-13
-2.75906e-12
-1.30476e-12
-2.99891e-12
-2.33239e-12
-2.97537e-12
-3.2465e-12
-2.6607e-12
-3.98727e-12
-2.07995e-12
-4.50407e-12
-1.30355e-12
-4.76569e-12
-4.24774e-13
-4.77345e-12
4.62923e-13
-4.56881e-12
1.26961e-12
-4.22398e-12
1.89421e-12
-3.81337e-12
2.22268e-12
-3.38252e-12
2.1736e-12
-2.94171e-12
1.77323e-12
-2.49423e-12
1.18211e-12
-2.07228e-12
6.14584e-13
-1.73527e-12
2.06065e-13
-1.51842e-12
-4.09033e-14
-1.37956e-12
-1.80312e-13
-1.21367e-12
-2.80425e-13
-9.44379e-13
-2.39217e-13
-5.8538e-13
-1.83477e-13
2.93078e-13
2.06141e-12
4.70401e-13
3.8059e-12
3.24068e-13
4.13721e-12
-1.60262e-13
3.68324e-12
-8.28661e-13
2.86682e-12
-1.56622e-12
1.91167e-12
-2.25832e-12
9.33501e-13
-2.819e-12
1.20965e-14
-3.20484e-12
-7.8025e-13
-3.40424e-12
-1.38177e-12
-3.41675e-12
-1.75847e-12
-3.24079e-12
-1.91803e-12
-2.87707e-12
-1.90894e-12
-2.34143e-12
-1.80348e-12
-1.6743e-12
-1.67334e-12
-9.36439e-13
-1.57046e-12
-1.92343e-13
-1.52089e-12
5.06696e-13
-1.52999e-12
1.12803e-12
-1.59049e-12
1.65074e-12
-1.68605e-12
2.05606e-12
-1.78986e-12
2.32549e-12
-1.86319e-12
2.44778e-12
-1.85896e-12
2.42769e-12
-1.73099e-12
2.28872e-12
-1.44486e-12
2.0676e-12
-9.8559e-13
1.80478e-12
-3.60015e-13
1.53638e-12
4.05072e-13
1.29019e-12
1.26686e-12
1.08448e-12
2.17126e-12
9.27208e-13
3.05859e-12
8.14744e-13
3.87021e-12
7.31912e-13
4.55515e-12
6.55282e-13
5.07495e-12
5.59634e-13
5.40582e-12
4.2493e-13
5.53872e-12
2.4084e-13
5.47903e-12
7.88384e-15
5.24619e-12
-2.63423e-13
4.87273e-12
-5.53593e-13
4.40103e-12
-8.34878e-13
3.87758e-12
-1.07271e-12
3.34602e-12
-1.229e-12
2.84112e-12
-1.26734e-12
2.38524e-12
-1.15903e-12
1.98761e-12
-8.8852e-13
1.64577e-12
-4.57494e-13
1.34824e-12
1.13126e-13
1.07804e-12
7.83581e-13
8.16731e-13
1.49857e-12
5.48406e-13
2.19323e-12
2.62996e-13
2.80095e-12
-4.1643e-14
3.26124e-12
-3.59006e-13
3.52649e-12
-6.74353e-13
3.56679e-12
-9.66022e-13
3.37273e-12
-1.20763e-12
2.9564e-12
-1.37119e-12
2.35024e-12
-1.43081e-12
1.60369e-12
-1.36648e-12
7.7758e-13
-1.16683e-12
-6.26875e-14
-8.30559e-13
-8.53832e-13
-3.66573e-13
-1.54015e-12
2.06823e-13
-2.07738e-12
8.63105e-13
-2.43553e-12
1.56913e-12
-2.60138e-12
2.28744e-12
-2.58075e-12
2.97926e-12
-2.39976e-12
3.60773e-12
-2.10375e-12
4.14045e-12
-1.75311e-12
4.55033e-12
-1.41607e-12
4.815e-12
-1.15988e-12
4.91578e-12
-1.04153e-12
4.83788e-12
-1.0994e-12
4.57262e-12
-1.34639e-12
4.12163e-12
-1.76518e-12
3.5011e-12
-2.30689e-12
2.74419e-12
-2.89399e-12
1.89972e-12
-3.42829e-12
1.02686e-12
-3.80354e-12
1.87016e-13
-3.92251e-12
-5.64516e-13
-3.71738e-12
-1.18407e-12
-3.17057e-12
-1.64057e-12
-2.32777e-12
-1.9141e-12
-1.29242e-12
-1.99725e-12
-1.96752e-13
-1.90323e-12
8.36931e-13
-1.67626e-12
1.71701e-12
-1.39074e-12
2.36871e-12
-1.12809e-12
2.70943e-12
-9.38959e-13
2.66363e-12
-8.19653e-13
2.23241e-12
-7.28938e-13
1.55375e-12
-6.35593e-13
8.65418e-13
-5.50151e-13
3.71965e-13
-5.0232e-13
1.30593e-13
-4.85437e-13
5.65933e-14
-4.39335e-13
-1.57207e-14
-3.12801e-13
-5.5149e-14
-1.25653e-13
2.13868e-14
-1.43834e-14
1.66984e-12
-5.64354e-14
3.04133e-12
-4.11133e-13
3.22115e-12
-1.03201e-12
2.72933e-12
-1.77336e-12
1.93603e-12
-2.52106e-12
1.06001e-12
-3.1573e-12
2.27326e-13
-3.59405e-12
-4.85224e-13
-3.7964e-12
-1.02651e-12
-3.77868e-12
-1.36271e-12
-3.58002e-12
-1.48142e-12
-3.23821e-12
-1.40091e-12
-2.77771e-12
-1.17359e-12
-2.21502e-12
-8.76636e-13
-1.57256e-12
-5.91391e-13
-8.86447e-13
-3.81585e-13
-2.00586e-13
-2.80952e-13
4.47096e-13
-2.94074e-13
1.03377e-12
-4.05344e-13
1.54927e-12
-5.8752e-13
1.98654e-12
-8.05067e-13
2.33511e-12
-1.01402e-12
2.58277e-12
-1.16326e-12
2.72265e-12
-1.20046e-12
2.75879e-12
-1.08145e-12
2.70574e-12
-7.79206e-13
2.58346e-12
-2.89322e-13
2.4117e-12
3.68931e-13
2.20708e-12
1.15483e-12
1.98274e-12
2.01075e-12
1.74818e-12
2.86909e-12
1.50757e-12
3.66122e-12
1.25804e-12
4.32724e-12
9.90505e-13
4.8234e-12
6.94456e-13
5.1253e-12
3.64492e-13
5.22692e-12
4.79775e-15
5.13769e-12
-3.70678e-13
4.88017e-12
-7.41363e-13
4.48842e-12
-1.08359e-12
4.00592e-12
-1.37244e-12
3.48113e-12
-1.58225e-12
2.96084e-12
-1.68735e-12
2.48302e-12
-1.66452e-12
2.07156e-12
-1.49693e-12
1.73417e-12
-1.17824e-12
1.46353e-12
-7.15905e-13
1.24055e-12
-1.32658e-13
1.03897e-12
5.33885e-13
8.30523e-13
1.2339e-12
5.89975e-13
1.91022e-12
2.99548e-13
2.50474e-12
-4.80584e-14
2.96526e-12
-4.48295e-13
3.25122e-12
-8.84925e-13
3.33757e-12
-1.33145e-12
3.2168e-12
-1.75358e-12
2.89917e-12
-2.11276e-12
2.41171e-12
-2.37056e-12
1.79563e-12
-2.49331e-12
1.10203e-12
-2.45619e-12
3.86301e-13
-2.24586e-12
-2.97708e-13
-1.86138e-12
-9.02704e-13
-1.31401e-12
-1.39129e-12
-6.26406e-13
-1.73803e-12
1.68338e-13
-1.93121e-12
1.0282e-12
-1.97486e-12
1.90483e-12
-1.89081e-12
2.74757e-12
-1.71915e-12
3.50813e-12
-1.5155e-12
4.14493e-12
-1.34425e-12
4.62568e-12
-1.26841e-12
4.92833e-12
-1.33842e-12
5.04109e-12
-1.58199e-12
4.96288e-12
-1.99718e-12
4.70504e-12
-2.54984e-12
4.29351e-12
-3.17576e-12
3.76997e-12
-3.78759e-12
3.18972e-12
-4.28522e-12
2.6151e-12
-4.5684e-12
2.10502e-12
-4.55092e-12
1.70351e-12
-4.17713e-12
1.43198e-12
-3.44089e-12
1.28944e-12
-2.40164e-12
1.26046e-12
-1.18442e-12
1.32458e-12
4.80329e-14
1.45801e-12
1.14534e-12
1.62499e-12
2.01045e-12
1.76954e-12
2.59794e-12