/*--------------------------------*- C++ -*----------------------------------*\
| =========                 |                                                 |
| \\      /  F ield         | OpenFOAM: The Open Source CFD Toolbox           |
|  \\    /   O peration     | Version:  2406                                  |
|   \\  /    A nd           | Website:  www.openfoam.com                      |
|    \\/     M anipulation  |                                                 |
\*---------------------------------------------------------------------------*/
FoamFile
{
    version     2.0;
    format      ascii;
    arch        "LSB;label=32;scalar=64";
    class       volVectorField;
    location    "6";
    object      U;
}
// * * * * * * * * * * * * * * * * * * * * * * * * * * * * * * * * * * * * * //

dimensions      [0 1 -1 0 0 0 0];

internalField   nonuniform List<vector> 
10000
(
(2.5669e-09 2.15322e-09 0)
(7.12416e-09 4.70646e-09 0)
(1.23371e-08 5.5401e-09 0)
(1.7264e-08 5.54187e-09 0)
(2.07418e-08 5.32366e-09 0)
(2.23235e-08 5.16485e-09 0)
(2.22212e-08 4.94861e-09 0)
(2.08471e-08 4.39342e-09 0)
(1.84058e-08 3.36507e-09 0)
(1.49412e-08 2.01794e-09 0)
(1.05853e-08 6.73557e-10 0)
(5.69745e-09 -3.86473e-10 0)
(7.89841e-10 -1.04229e-09 0)
(-3.63998e-09 -1.31721e-09 0)
(-7.23273e-09 -1.28821e-09 0)
(-9.80021e-09 -1.01191e-09 0)
(-1.12886e-08 -5.05754e-10 0)
(-1.17187e-08 2.22945e-10 0)
(-1.11437e-08 1.13569e-09 0)
(-9.64745e-09 2.1415e-09 0)
(-7.37345e-09 3.11103e-09 0)
(-4.55354e-09 3.914e-09 0)
(-1.50548e-09 4.4554e-09 0)
(1.40797e-09 4.68955e-09 0)
(3.84059e-09 4.61121e-09 0)
(5.51562e-09 4.2388e-09 0)
(6.25315e-09 3.60769e-09 0)
(5.97528e-09 2.77716e-09 0)
(4.70498e-09 1.84002e-09 0)
(2.56762e-09 9.19478e-10 0)
(-2.10092e-10 1.48598e-10 0)
(-3.31699e-09 -3.58749e-10 0)
(-6.39641e-09 -5.30635e-10 0)
(-9.09967e-09 -3.44546e-10 0)
(-1.11379e-08 1.78962e-10 0)
(-1.23178e-08 9.88241e-10 0)
(-1.25556e-08 2.01075e-09 0)
(-1.18718e-08 3.15923e-09 0)
(-1.0374e-08 4.33623e-09 0)
(-8.23381e-09 5.44073e-09 0)
(-5.66419e-09 6.37873e-09 0)
(-2.89875e-09 7.07687e-09 0)
(-1.74312e-10 7.49577e-09 0)
(2.28528e-09 7.63858e-09 0)
(4.28554e-09 7.55113e-09 0)
(5.67702e-09 7.31293e-09 0)
(6.36648e-09 7.022e-09 0)
(6.3191e-09 6.77873e-09 0)
(5.55104e-09 6.6741e-09 0)
(4.11702e-09 6.78341e-09 0)
(2.10058e-09 7.16359e-09 0)
(-3.87751e-10 7.85017e-09 0)
(-3.20558e-09 8.85207e-09 0)
(-6.17317e-09 1.01461e-08 0)
(-9.07475e-09 1.16744e-08 0)
(-1.16699e-08 1.33482e-08 0)
(-1.37141e-08 1.50569e-08 0)
(-1.49839e-08 1.66807e-08 0)
(-1.53039e-08 1.81027e-08 0)
(-1.45713e-08 1.92197e-08 0)
(-1.27771e-08 1.99506e-08 0)
(-1.00194e-08 2.02426e-08 0)
(-6.50453e-09 2.00762e-08 0)
(-2.53316e-09 1.94675e-08 0)
(1.53047e-09 1.84672e-08 0)
(5.30238e-09 1.7157e-08 0)
(8.4306e-09 1.56435e-08 0)
(1.06468e-08 1.4049e-08 0)
(1.18098e-08 1.25006e-08 0)
(1.19312e-08 1.1117e-08 0)
(1.1179e-08 9.99477e-09 0)
(9.85196e-09 9.19631e-09 0)
(8.33074e-09 8.74274e-09 0)
(7.01153e-09 8.61254e-09 0)
(6.23626e-09 8.74598e-09 0)
(6.23271e-09 9.05379e-09 0)
(7.07599e-09 9.4277e-09 0)
(8.67622e-09 9.75257e-09 0)
(1.07936e-08 9.91921e-09 0)
(1.30759e-08 9.83848e-09 0)
(1.5114e-08 9.45375e-09 0)
(1.65057e-08 8.75056e-09 0)
(1.69196e-08 7.75884e-09 0)
(1.61461e-08 6.54976e-09 0)
(1.41286e-08 5.22524e-09 0)
(1.09694e-08 3.90555e-09 0)
(6.91496e-09 2.71199e-09 0)
(2.32527e-09 1.75071e-09 0)
(-2.36924e-09 1.09779e-09 0)
(-6.72933e-09 7.97364e-10 0)
(-1.03786e-08 8.6902e-10 0)
(-1.30634e-08 1.31538e-09 0)
(-1.46535e-08 2.10386e-09 0)
(-1.50658e-08 3.11601e-09 0)
(-1.42047e-08 4.11231e-09 0)
(-1.20336e-08 4.76839e-09 0)
(-8.84858e-09 4.83744e-09 0)
(-5.38938e-09 4.26026e-09 0)
(-2.56129e-09 3.14523e-09 0)
(-8.60306e-10 1.38871e-09 0)
(5.4831e-09 5.76059e-09 0)
(1.46496e-08 1.20365e-08 0)
(2.47742e-08 1.43432e-08 0)
(3.4603e-08 1.47292e-08 0)
(4.19075e-08 1.46846e-08 0)
(4.52595e-08 1.46544e-08 0)
(4.45847e-08 1.43286e-08 0)
(4.07825e-08 1.31386e-08 0)
(3.48412e-08 1.08355e-08 0)
(2.74027e-08 7.68715e-09 0)
(1.88693e-08 4.30363e-09 0)
(9.70242e-09 1.287e-09 0)
(5.72668e-10 -9.95897e-10 0)
(-7.72714e-09 -2.4335e-09 0)
(-1.44816e-08 -3.05437e-09 0)
(-1.92184e-08 -2.90792e-09 0)
(-2.17632e-08 -2.0226e-09 0)
(-2.21841e-08 -4.40738e-10 0)
(-2.06909e-08 1.7169e-09 0)
(-1.75606e-08 4.21983e-09 0)
(-1.31289e-08 6.75543e-09 0)
(-7.82522e-09 9.00217e-09 0)
(-2.20073e-09 1.07014e-08 0)
(3.10181e-09 1.16931e-08 0)
(7.43891e-09 1.19088e-08 0)
(1.02813e-08 1.13503e-08 0)
(1.13004e-08 1.00812e-08 0)
(1.04e-08 8.23861e-09 0)
(7.70061e-09 6.04591e-09 0)
(3.50642e-09 3.80042e-09 0)
(-1.7278e-09 1.82843e-09 0)
(-7.43329e-09 4.23685e-10 0)
(-1.2981e-08 -2.04721e-10 0)
(-1.77575e-08 4.27652e-11 0)
(-2.12497e-08 1.15859e-09 0)
(-2.31164e-08 3.04595e-09 0)
(-2.32249e-08 5.53927e-09 0)
(-2.16476e-08 8.42189e-09 0)
(-1.86241e-08 1.14431e-08 0)
(-1.45068e-08 1.43396e-08 0)
(-9.70327e-09 1.6865e-08 0)
(-4.63135e-09 1.88244e-08 0)
(3.10836e-10 2.01073e-08 0)
(4.76226e-09 2.07102e-08 0)
(8.41188e-09 2.07378e-08 0)
(1.10131e-08 2.03843e-08 0)
(1.23993e-08 1.9898e-08 0)
(1.24926e-08 1.95417e-08 0)
(1.13002e-08 1.95606e-08 0)
(8.89879e-09 2.01596e-08 0)
(5.41744e-09 2.14901e-08 0)
(1.02952e-09 2.36369e-08 0)
(-4.04038e-09 2.66054e-08 0)
(-9.50172e-09 3.03115e-08 0)
(-1.49892e-08 3.45801e-08 0)
(-2.00718e-08 3.91583e-08 0)
(-2.42845e-08 4.37419e-08 0)
(-2.71766e-08 4.80091e-08 0)
(-2.83694e-08 5.16545e-08 0)
(-2.76121e-08 5.44185e-08 0)
(-2.48295e-08 5.61099e-08 0)
(-2.01534e-08 5.66211e-08 0)
(-1.39304e-08 5.59351e-08 0)
(-6.69922e-09 5.41257e-08 0)
(8.6519e-10 5.13489e-08 0)
(8.0353e-09 4.78287e-08 0)
(1.41317e-08 4.38383e-08 0)
(1.86244e-08 3.96775e-08 0)
(2.12172e-08 3.56471e-08 0)
(2.18995e-08 3.20211e-08 0)
(2.09537e-08 2.90189e-08 0)
(1.89122e-08 2.67818e-08 0)
(1.64676e-08 2.53586e-08 0)
(1.43493e-08 2.4703e-08 0)
(1.31896e-08 2.46822e-08 0)
(1.34071e-08 2.50937e-08 0)
(1.51293e-08 2.56891e-08 0)
(1.81707e-08 2.61996e-08 0)
(2.20649e-08 2.6368e-08 0)
(2.6144e-08 2.59802e-08 0)
(2.96463e-08 2.48965e-08 0)
(3.18397e-08 2.30731e-08 0)
(3.21355e-08 2.05713e-08 0)
(3.01835e-08 1.75497e-08 0)
(2.59216e-08 1.42457e-08 0)
(1.95839e-08 1.09418e-08 0)
(1.16625e-08 7.92705e-09 0)
(2.85205e-09 5.45055e-09 0)
(-6.03014e-09 3.69299e-09 0)
(-1.41402e-08 2.7628e-09 0)
(-2.07562e-08 2.72472e-09 0)
(-2.54273e-08 3.60709e-09 0)
(-2.80327e-08 5.33767e-09 0)
(-2.86436e-08 7.62437e-09 0)
(-2.72558e-08 9.88232e-09 0)
(-2.37866e-08 1.1409e-08 0)
(-1.84324e-08 1.16706e-08 0)
(-1.21573e-08 1.05468e-08 0)
(-6.37323e-09 8.04765e-09 0)
(-2.19194e-09 3.6257e-09 0)
(6.55244e-09 1.04167e-08 0)
(1.74494e-08 2.09345e-08 0)
(2.94205e-08 2.47421e-08 0)
(4.11406e-08 2.49794e-08 0)
(5.00283e-08 2.3987e-08 0)
(5.39959e-08 2.26896e-08 0)
(5.27153e-08 2.10419e-08 0)
(4.72729e-08 1.85585e-08 0)
(3.91691e-08 1.48783e-08 0)
(2.95727e-08 1.01431e-08 0)
(1.92044e-08 4.95355e-09 0)
(8.61092e-09 8.60908e-11 0)
(-1.58146e-09 -3.8217e-09 0)
(-1.0627e-08 -6.41816e-09 0)
(-1.78028e-08 -7.60692e-09 0)
(-2.25989e-08 -7.43296e-09 0)
(-2.48291e-08 -5.99146e-09 0)
(-2.46194e-08 -3.41743e-09 0)
(-2.23016e-08 6.93423e-11 0)
(-1.82995e-08 4.11982e-09 0)
(-1.30708e-08 8.27046e-09 0)
(-7.12157e-09 1.20191e-08 0)
(-1.04288e-09 1.49278e-08 0)
(4.49406e-09 1.6696e-08 0)
(8.81727e-09 1.71848e-08 0)
(1.13802e-08 1.64004e-08 0)
(1.18727e-08 1.44737e-08 0)
(1.02652e-08 1.16534e-08 0)
(6.78312e-09 8.30387e-09 0)
(1.84422e-09 4.88398e-09 0)
(-4.00329e-09 1.89143e-09 0)
(-1.01321e-08 -2.17647e-10 0)
(-1.58875e-08 -1.10674e-09 0)
(-2.06534e-08 -6.08752e-10 0)
(-2.39302e-08 1.26346e-09 0)
(-2.54043e-08 4.33873e-09 0)
(-2.49872e-08 8.32629e-09 0)
(-2.28107e-08 1.28581e-08 0)
(-1.91819e-08 1.75292e-08 0)
(-1.45148e-08 2.19362e-08 0)
(-9.25853e-09 2.57177e-08 0)
(-3.84164e-09 2.85961e-08 0)
(1.35793e-09 3.04177e-08 0)
(6.02001e-09 3.11803e-08 0)
(9.8779e-09 3.10397e-08 0)
(1.2716e-08 3.02868e-08 0)
(1.43758e-08 2.93023e-08 0)
(1.47649e-08 2.84981e-08 0)
(1.38599e-08 2.82634e-08 0)
(1.16989e-08 2.8925e-08 0)
(8.3674e-09 3.07209e-08 0)
(3.99305e-09 3.3783e-08 0)
(-1.24448e-09 3.81235e-08 0)
(-7.09059e-09 4.36244e-08 0)
(-1.31949e-08 5.0037e-08 0)
(-1.91093e-08 5.69976e-08 0)
(-2.43147e-08 6.40599e-08 0)
(-2.82738e-08 7.074e-08 0)
(-3.0501e-08 7.65646e-08 0)
(-3.06352e-08 8.11164e-08 0)
(-2.85047e-08 8.40708e-08 0)
(-2.41736e-08 8.52228e-08 0)
(-1.79595e-08 8.45036e-08 0)
(-1.04147e-08 8.19855e-08 0)
(-2.26584e-09 7.78755e-08 0)
(5.68002e-09 7.24986e-08 0)
(1.26519e-08 6.6272e-08 0)
(1.80323e-08 5.96713e-08 0)
(2.14546e-08 5.31899e-08 0)
(2.2864e-08 4.72913e-08 0)
(2.25269e-08 4.23597e-08 0)
(2.0986e-08 3.86541e-08 0)
(1.89634e-08 3.6275e-08 0)
(1.72257e-08 3.51516e-08 0)
(1.64375e-08 3.50519e-08 0)
(1.70306e-08 3.56149e-08 0)
(1.91207e-08 3.63976e-08 0)
(2.24835e-08 3.69338e-08 0)
(2.65979e-08 3.67952e-08 0)
(3.0736e-08 3.56521e-08 0)
(3.40881e-08 3.33206e-08 0)
(3.58922e-08 2.97951e-08 0)
(3.55601e-08 2.52492e-08 0)
(3.27679e-08 2.00163e-08 0)
(2.75086e-08 1.45412e-08 0)
(2.00826e-08 9.32247e-09 0)
(1.10553e-08 4.83252e-09 0)
(1.18595e-09 1.44522e-09 0)
(-8.62972e-09 -6.25539e-10 0)
(-1.74549e-08 -1.31996e-09 0)
(-2.44644e-08 -6.73774e-10 0)
(-2.91769e-08 1.25251e-09 0)
(-3.15884e-08 4.34266e-09 0)
(-3.20116e-08 8.25415e-09 0)
(-3.06706e-08 1.22789e-08 0)
(-2.74223e-08 1.53952e-08 0)
(-2.21872e-08 1.67015e-08 0)
(-1.54945e-08 1.57111e-08 0)
(-8.71022e-09 1.23125e-08 0)
(-2.95913e-09 5.54019e-09 0)
(6.62387e-09 1.52911e-08 0)
(1.7795e-08 3.04818e-08 0)
(2.97473e-08 3.59078e-08 0)
(4.14817e-08 3.57767e-08 0)
(5.06005e-08 3.31252e-08 0)
(5.46363e-08 2.95181e-08 0)
(5.28615e-08 2.55122e-08 0)
(4.62679e-08 2.09407e-08 0)
(3.66832e-08 1.55013e-08 0)
(2.58108e-08 9.19546e-09 0)
(1.47907e-08 2.50752e-09 0)
(4.28662e-09 -3.78029e-09 0)
(-5.22089e-09 -8.89632e-09 0)
(-1.32341e-08 -1.23209e-08 0)
(-1.92349e-08 -1.38506e-08 0)
(-2.28202e-08 -1.35212e-08 0)
(-2.38561e-08 -1.14985e-08 0)
(-2.25333e-08 -8.01616e-09 0)
(-1.93024e-08 -3.39067e-09 0)
(-1.47334e-08 1.93801e-09 0)
(-9.39614e-09 7.39968e-09 0)
(-3.81938e-09 1.23626e-08 0)
(1.47959e-09 1.62506e-08 0)
(5.9636e-09 1.86553e-08 0)
(9.10514e-09 1.9391e-08 0)
(1.04866e-08 1.84901e-08 0)
(9.91414e-09 1.61642e-08 0)
(7.4752e-09 1.27713e-08 0)
(3.51037e-09 8.79112e-09 0)
(-1.47466e-09 4.79616e-09 0)
(-6.90514e-09 1.39376e-09 0)
(-1.22066e-08 -8.60384e-10 0)
(-1.68473e-08 -1.55552e-09 0)
(-2.03731e-08 -4.94234e-10 0)
(-2.24477e-08 2.28426e-09 0)
(-2.28953e-08 6.52712e-09 0)
(-2.17265e-08 1.18224e-08 0)
(-1.91323e-08 1.7666e-08 0)
(-1.54422e-08 2.35268e-08 0)
(-1.10566e-08 2.89029e-08 0)
(-6.37418e-09 3.3369e-08 0)
(-1.73447e-09 3.66182e-08 0)
(2.6078e-09 3.84957e-08 0)
(6.47553e-09 3.90247e-08 0)
(9.74097e-09 3.84112e-08 0)
(1.22964e-08 3.70239e-08 0)
(1.40398e-08 3.53448e-08 0)
(1.48779e-08 3.39016e-08 0)
(1.47381e-08 3.31983e-08 0)
(1.35752e-08 3.36578e-08 0)
(1.13727e-08 3.5585e-08 0)
(8.14417e-09 3.91458e-08 0)
(3.94861e-09 4.43554e-08 0)
(-1.08035e-09 5.10725e-08 0)
(-6.70108e-09 5.90012e-08 0)
(-1.25463e-08 6.77077e-08 0)
(-1.81358e-08 7.66535e-08 0)
(-2.29236e-08 8.52433e-08 0)
(-2.6369e-08 9.28799e-08 0)
(-2.80189e-08 9.90186e-08 0)
(-2.75845e-08 1.03214e-07 0)
(-2.49996e-08 1.05161e-07 0)
(-2.04504e-08 1.04716e-07 0)
(-1.43667e-08 1.01921e-07 0)
(-7.37176e-09 9.69946e-08 0)
(-1.93457e-10 9.03233e-08 0)
(6.44701e-09 8.24287e-08 0)
(1.19492e-08 7.3926e-08 0)
(1.59276e-08 6.54697e-08 0)
(1.82682e-08 5.76882e-08 0)
(1.91382e-08 5.11135e-08 0)
(1.89471e-08 4.61119e-08 0)
(1.82627e-08 4.28302e-08 0)
(1.76964e-08 4.11696e-08 0)
(1.77766e-08 4.07957e-08 0)
(1.88369e-08 4.1186e-08 0)
(2.09433e-08 4.17071e-08 0)
(2.38796e-08 4.17079e-08 0)
(2.7188e-08 4.06185e-08 0)
(3.0257e-08 3.80363e-08 0)
(3.24286e-08 3.37934e-08 0)
(3.31117e-08 2.79859e-08 0)
(3.18769e-08 2.0968e-08 0)
(2.85316e-08 1.33005e-08 0)
(2.31449e-08 5.67864e-09 0)
(1.60333e-08 -1.16978e-09 0)
(7.69429e-09 -6.58672e-09 0)
(-1.24201e-09 -1.01052e-08 0)
(-1.00443e-08 -1.15341e-08 0)
(-1.78834e-08 -1.09816e-08 0)
(-2.39539e-08 -8.74648e-09 0)
(-2.77369e-08 -5.14776e-09 0)
(-2.92964e-08 -4.27442e-10 0)
(-2.92362e-08 5.1276e-09 0)
(-2.81549e-08 1.08838e-08 0)
(-2.6083e-08 1.57693e-08 0)
(-2.24716e-08 1.85217e-08 0)
(-1.69958e-08 1.83133e-08 0)
(-1.03982e-08 1.47332e-08 0)
(-3.53561e-09 6.72961e-09 0)
(6.37385e-09 1.93461e-08 0)
(1.73361e-08 3.88478e-08 0)
(2.82556e-08 4.5825e-08 0)
(3.8593e-08 4.5516e-08 0)
(4.66442e-08 4.11724e-08 0)
(5.00849e-08 3.48906e-08 0)
(4.79359e-08 2.78815e-08 0)
(4.08432e-08 2.0636e-08 0)
(3.05951e-08 1.31712e-08 0)
(1.91898e-08 5.47603e-09 0)
(8.15494e-09 -2.1958e-09 0)
(-1.62397e-09 -9.26672e-09 0)
(-9.71728e-09 -1.5029e-08 0)
(-1.58796e-08 -1.88979e-08 0)
(-1.98929e-08 -2.05768e-08 0)
(-2.1588e-08 -2.00765e-08 0)
(-2.09643e-08 -1.76251e-08 0)
(-1.82953e-08 -1.35672e-08 0)
(-1.41194e-08 -8.31227e-09 0)
(-9.11932e-09 -2.34822e-09 0)
(-3.95944e-09 3.74252e-09 0)
(8.17682e-10 9.31277e-09 0)
(4.79885e-09 1.37502e-08 0)
(7.64755e-09 1.65996e-08 0)
(9.07553e-09 1.7653e-08 0)
(8.8841e-09 1.69662e-08 0)
(7.05228e-09 1.48169e-08 0)
(3.79745e-09 1.16402e-08 0)
(-4.4441e-10 7.97399e-09 0)
(-5.11455e-09 4.41432e-09 0)
(-9.65029e-09 1.56485e-09 0)
(-1.35742e-08 -3.36767e-11 0)
(-1.65332e-08 1.42133e-11 0)
(-1.83031e-08 1.8881e-09 0)
(-1.87831e-08 5.51859e-09 0)
(-1.79942e-08 1.06022e-08 0)
(-1.60772e-08 1.66575e-08 0)
(-1.3278e-08 2.31052e-08 0)
(-9.91167e-09 2.93511e-08 0)
(-6.30795e-09 3.48589e-08 0)
(-2.75228e-09 3.92037e-08 0)
(5.60215e-10 4.21086e-08 0)
(3.54142e-09 4.34659e-08 0)
(6.19124e-09 4.33479e-08 0)
(8.55074e-09 4.20063e-08 0)
(1.06482e-08 3.98538e-08 0)
(1.24605e-08 3.74213e-08 0)
(1.3903e-08 3.52943e-08 0)
(1.48429e-08 3.40385e-08 0)
(1.51228e-08 3.41319e-08 0)
(1.45823e-08 3.59161e-08 0)
(1.30774e-08 3.95705e-08 0)
(1.05062e-08 4.51041e-08 0)
(6.84604e-09 5.23566e-08 0)
(2.19555e-09 6.10074e-08 0)
(-3.19432e-09 7.05933e-08 0)
(-8.91922e-09 8.05397e-08 0)
(-1.44577e-08 9.02045e-08 0)
(-1.92396e-08 9.89322e-08 0)
(-2.27306e-08 1.0611e-07 0)
(-2.45173e-08 1.1122e-07 0)
(-2.43751e-08 1.13887e-07 0)
(-2.23103e-08 1.13912e-07 0)
(-1.85652e-08 1.11295e-07 0)
(-1.35833e-08 1.06246e-07 0)
(-7.93666e-09 9.91669e-08 0)
(-2.22851e-09 9.06211e-08 0)
(3.00796e-09 8.12865e-08 0)
(7.39272e-09 7.18899e-08 0)
(1.0747e-08 6.31339e-08 0)
(1.31001e-08 5.5615e-08 0)
(1.46571e-08 4.97448e-08 0)
(1.57368e-08 4.56839e-08 0)
(1.66903e-08 4.33073e-08 0)
(1.78165e-08 4.22123e-08 0)
(1.92881e-08 4.17757e-08 0)
(2.1108e-08 4.12511e-08 0)
(2.31037e-08 3.98924e-08 0)
(2.49662e-08 3.70767e-08 0)
(2.63138e-08 3.24152e-08 0)
(2.67703e-08 2.58219e-08 0)
(2.60298e-08 1.75436e-08 0)
(2.3915e-08 8.1274e-09 0)
(2.04054e-08 -1.64881e-09 0)
(1.56493e-08 -1.08886e-08 0)
(9.92061e-09 -1.86895e-08 0)
(3.55873e-09 -2.42758e-08 0)
(-3.094e-09 -2.71227e-08 0)
(-9.65341e-09 -2.7093e-08 0)
(-1.56077e-08 -2.4489e-08 0)
(-2.02805e-08 -1.99687e-08 0)
(-2.30814e-08 -1.42715e-08 0)
(-2.39333e-08 -7.93139e-09 0)
(-2.34961e-08 -1.22971e-09 0)
(-2.27251e-08 5.51546e-09 0)
(-2.19513e-08 1.15365e-08 0)
(-2.0453e-08 1.56749e-08 0)
(-1.69766e-08 1.68049e-08 0)
(-1.14062e-08 1.41573e-08 0)
(-3.87748e-09 6.67678e-09 0)
(6.12665e-09 2.21512e-08 0)
(1.67169e-08 4.46944e-08 0)
(2.60372e-08 5.27057e-08 0)
(3.41012e-08 5.2276e-08 0)
(3.99852e-08 4.66975e-08 0)
(4.20888e-08 3.82177e-08 0)
(3.946e-08 2.84942e-08 0)
(3.23642e-08 1.85915e-08 0)
(2.22513e-08 9.03795e-09 0)
(1.1079e-08 1.32101e-12 0)
(5.8697e-10 -8.37419e-09 0)
(-8.10238e-09 -1.57655e-08 0)
(-1.44959e-08 -2.16726e-08 0)
(-1.85077e-08 -2.55956e-08 0)
(-2.02197e-08 -2.72365e-08 0)
(-1.97592e-08 -2.65988e-08 0)
(-1.73286e-08 -2.39565e-08 0)
(-1.32973e-08 -1.9737e-08 0)
(-8.25106e-09 -1.44189e-08 0)
(-2.92117e-09 -8.49182e-09 0)
(1.97278e-09 -2.47428e-09 0)
(5.8785e-09 3.08124e-09 0)
(8.47122e-09 7.63657e-09 0)
(9.6138e-09 1.07726e-08 0)
(9.28117e-09 1.22898e-08 0)
(7.53125e-09 1.22533e-08 0)
(4.53794e-09 1.09607e-08 0)
(6.37543e-10 8.86361e-09 0)
(-3.67887e-09 6.4841e-09 0)
(-7.84708e-09 4.35367e-09 0)
(-1.13505e-08 2.96872e-09 0)
(-1.38206e-08 2.74725e-09 0)
(-1.50799e-08 3.97674e-09 0)
(-1.51286e-08 6.76328e-09 0)
(-1.41016e-08 1.10012e-08 0)
(-1.22223e-08 1.63795e-08 0)
(-9.76553e-09 2.24263e-08 0)
(-7.02504e-09 2.85819e-08 0)
(-4.2798e-09 3.42812e-08 0)
(-1.75637e-09 3.90299e-08 0)
(4.07044e-10 4.24608e-08 0)
(2.18475e-09 4.43661e-08 0)
(3.66466e-09 4.4708e-08 0)
(5.01895e-09 4.36153e-08 0)
(6.44694e-09 4.13718e-08 0)
(8.10562e-09 3.83971e-08 0)
(1.00513e-08 3.52138e-08 0)
(1.22117e-08 3.23967e-08 0)
(1.4395e-08 3.05078e-08 0)
(1.63231e-08 3.00293e-08 0)
(1.76752e-08 3.13102e-08 0)
(1.81311e-08 3.45353e-08 0)
(1.74135e-08 3.97161e-08 0)
(1.53348e-08 4.66965e-08 0)
(1.18464e-08 5.51655e-08 0)
(7.07782e-09 6.46754e-08 0)
(1.34846e-09 7.46696e-08 0)
(-4.85782e-09 8.45194e-08 0)
(-1.09547e-08 9.35727e-08 0)
(-1.63377e-08 1.01207e-07 0)
(-2.04728e-08 1.06882e-07 0)
(-2.29731e-08 1.10189e-07 0)
(-2.36512e-08 1.10891e-07 0)
(-2.25398e-08 1.08951e-07 0)
(-1.98756e-08 1.04544e-07 0)
(-1.6047e-08 9.80483e-08 0)
(-1.15174e-08 9.00081e-08 0)
(-6.73959e-09 8.10834e-08 0)
(-2.08516e-09 7.19783e-08 0)
(2.19646e-09 6.33641e-08 0)
(5.98266e-09 5.57996e-08 0)
(9.25373e-09 4.96557e-08 0)
(1.20518e-08 4.50557e-08 0)
(1.44383e-08 4.18424e-08 0)
(1.64557e-08 3.95901e-08 0)
(1.8104e-08 3.76629e-08 0)
(1.9331e-08 3.53214e-08 0)
(2.00448e-08 3.18535e-08 0)
(2.0139e-08 2.67111e-08 0)
(1.9531e-08 1.96182e-08 0)
(1.81858e-08 1.06415e-08 0)
(1.61341e-08 1.95817e-10 0)
(1.34657e-08 -1.10012e-08 0)
(1.03295e-08 -2.2036e-08 0)
(6.91167e-09 -3.19193e-08 0)
(3.4052e-09 -3.97195e-08 0)
(-7.29939e-11 -4.46634e-08 0)
(-3.53062e-09 -4.62564e-08 0)
(-7.06244e-09 -4.44037e-08 0)
(-1.06281e-08 -3.95367e-08 0)
(-1.38485e-08 -3.2583e-08 0)
(-1.60629e-08 -2.47071e-08 0)
(-1.68508e-08 -1.68528e-08 0)
(-1.6568e-08 -9.43434e-09 0)
(-1.62374e-08 -2.49244e-09 0)
(-1.65671e-08 3.79599e-09 0)
(-1.69145e-08 8.71862e-09 0)
(-1.55616e-08 1.12823e-08 0)
(-1.14526e-08 1.03999e-08 0)
(-3.9025e-09 5.22292e-09 0)
(5.86106e-09 2.38058e-08 0)
(1.58578e-08 4.77696e-08 0)
(2.33891e-08 5.60408e-08 0)
(2.88032e-08 5.53596e-08 0)
(3.18458e-08 4.90278e-08 0)
(3.19342e-08 3.92376e-08 0)
(2.84834e-08 2.76721e-08 0)
(2.15566e-08 1.57454e-08 0)
(1.21699e-08 4.43472e-09 0)
(1.96609e-09 -5.74971e-09 0)
(-7.37073e-09 -1.46108e-08 0)
(-1.46022e-08 -2.20028e-08 0)
(-1.91369e-08 -2.769e-08 0)
(-2.09508e-08 -3.13824e-08 0)
(-2.03499e-08 -3.28825e-08 0)
(-1.77524e-08 -3.22242e-08 0)
(-1.35887e-08 -2.96964e-08 0)
(-8.33513e-09 -2.5759e-08 0)
(-2.58207e-09 -2.09097e-08 0)
(2.96362e-09 -1.5602e-08 0)
(7.59302e-09 -1.02362e-08 0)
(1.07612e-08 -5.195e-09 0)
(1.22035e-08 -8.48893e-10 0)
(1.19327e-08 2.4941e-09 0)
(1.01507e-08 4.67583e-09 0)
(7.1557e-09 5.74708e-09 0)
(3.30822e-09 5.96176e-09 0)
(-9.59502e-10 5.70655e-09 0)
(-5.14432e-09 5.40959e-09 0)
(-8.72732e-09 5.46586e-09 0)
(-1.12726e-08 6.19608e-09 0)
(-1.25226e-08 7.82669e-09 0)
(-1.24436e-08 1.04745e-08 0)
(-1.12073e-08 1.41286e-08 0)
(-9.12834e-09 1.86385e-08 0)
(-6.58742e-09 2.37192e-08 0)
(-3.96422e-09 2.89806e-08 0)
(-1.58552e-09 3.39781e-08 0)
(3.1256e-10 3.82736e-08 0)
(1.6108e-09 4.14959e-08 0)
(2.32081e-09 4.3389e-08 0)
(2.58376e-09 4.38397e-08 0)
(2.65049e-09 4.28836e-08 0)
(2.84003e-09 4.06931e-08 0)
(3.47717e-09 3.75588e-08 0)
(4.8177e-09 3.38669e-08 0)
(6.97981e-09 3.00757e-08 0)
(9.90264e-09 2.66821e-08 0)
(1.33452e-08 2.41762e-08 0)
(1.69227e-08 2.29888e-08 0)
(2.01657e-08 2.34429e-08 0)
(2.25853e-08 2.57213e-08 0)
(2.37356e-08 2.98545e-08 0)
(2.32725e-08 3.57235e-08 0)
(2.10099e-08 4.30724e-08 0)
(1.69625e-08 5.1523e-08 0)
(1.13666e-08 6.05961e-08 0)
(4.6623e-09 6.97393e-08 0)
(-2.55971e-09 7.83653e-08 0)
(-9.63971e-09 8.5898e-08 0)
(-1.59389e-08 9.18206e-08 0)
(-2.09214e-08 9.57226e-08 0)
(-2.42163e-08 9.73413e-08 0)
(-2.56518e-08 9.65936e-08 0)
(-2.5259e-08 9.35929e-08 0)
(-2.32441e-08 8.86439e-08 0)
(-1.99341e-08 8.2211e-08 0)
(-1.57108e-08 7.48628e-08 0)
(-1.09499e-08 6.71999e-08 0)
(-5.98279e-09 5.97777e-08 0)
(-1.08628e-09 5.30341e-08 0)
(3.5047e-09 4.72294e-08 0)
(7.57862e-09 4.24056e-08 0)
(1.09364e-08 3.83709e-08 0)
(1.33988e-08 3.47187e-08 0)
(1.48263e-08 3.08884e-08 0)
(1.51482e-08 2.62626e-08 0)
(1.43857e-08 2.02914e-08 0)
(1.26696e-08 1.26127e-08 0)
(1.02351e-08 3.1518e-09 0)
(7.39978e-09 -7.8334e-09 0)
(4.50981e-09 -1.97584e-08 0)
(1.88759e-09 -3.17914e-08 0)
(-2.18853e-10 -4.29705e-08 0)
(-1.64727e-09 -5.23556e-08 0)
(-2.34931e-09 -5.91397e-08 0)
(-2.43405e-09 -6.27296e-08 0)
(-2.25325e-09 -6.27761e-08 0)
(-2.36269e-09 -5.92605e-08 0)
(-3.28469e-09 -5.26164e-08 0)
(-5.07813e-09 -4.38342e-08 0)
(-7.1592e-09 -3.4299e-08 0)
(-8.67961e-09 -2.5326e-08 0)
(-9.36198e-09 -1.7608e-08 0)
(-9.86827e-09 -1.10683e-08 0)
(-1.1058e-08 -5.32675e-09 0)
(-1.26451e-08 -3.42436e-10 0)
(-1.29621e-08 3.29707e-09 0)
(-1.04149e-08 4.53846e-09 0)
(-3.58384e-09 2.76135e-09 0)
(5.34389e-09 2.46274e-08 0)
(1.43663e-08 4.85886e-08 0)
(2.01211e-08 5.63757e-08 0)
(2.29515e-08 5.50885e-08 0)
(2.30282e-08 4.8278e-08 0)
(2.07591e-08 3.79708e-08 0)
(1.61323e-08 2.5658e-08 0)
(9.28723e-09 1.27538e-08 0)
(9.16707e-10 5.04831e-10 0)
(-7.7765e-09 -1.02728e-08 0)
(-1.5409e-08 -1.92215e-08 0)
(-2.08276e-08 -2.62755e-08 0)
(-2.34106e-08 -3.14439e-08 0)
(-2.31333e-08 -3.47029e-08 0)
(-2.04248e-08 -3.60347e-08 0)
(-1.59162e-08 -3.55317e-08 0)
(-1.02446e-08 -3.34691e-08 0)
(-3.9868e-09 -3.02658e-08 0)
(2.2874e-09 -2.63739e-08 0)
(7.96057e-09 -2.21643e-08 0)
(1.24036e-08 -1.78924e-08 0)
(1.51141e-08 -1.3733e-08 0)
(1.58602e-08 -9.83775e-09 0)
(1.47311e-08 -6.34721e-09 0)
(1.2069e-08 -3.35059e-09 0)
(8.34611e-09 -8.28038e-10 0)
(4.06809e-09 1.36833e-09 0)
(-2.63898e-10 3.47796e-09 0)
(-4.16406e-09 5.75716e-09 0)
(-7.19113e-09 8.40966e-09 0)
(-9.01278e-09 1.15478e-08 0)
(-9.47819e-09 1.51877e-08 0)
(-8.65741e-09 1.92607e-08 0)
(-6.82341e-09 2.36273e-08 0)
(-4.38531e-09 2.80889e-08 0)
(-1.80075e-09 3.24018e-08 0)
(5.05667e-10 3.62972e-08 0)
(2.20517e-09 3.95078e-08 0)
(3.10704e-09 4.17964e-08 0)
(3.18115e-09 4.2984e-08 0)
(2.55968e-09 4.29748e-08 0)
(1.51723e-09 4.17712e-08 0)
(4.31583e-10 3.94769e-08 0)
(-2.71409e-10 3.62856e-08 0)
(-1.84987e-10 3.2461e-08 0)
(1.00479e-09 2.8317e-08 0)
(3.45006e-09 2.4201e-08 0)
(7.09408e-09 2.04776e-08 0)
(1.16617e-08 1.75073e-08 0)
(1.66917e-08 1.56169e-08 0)
(2.16027e-08 1.50661e-08 0)
(2.57724e-08 1.60211e-08 0)
(2.86174e-08 1.854e-08 0)
(2.96641e-08 2.25711e-08 0)
(2.86102e-08 2.79585e-08 0)
(2.53709e-08 3.44496e-08 0)
(2.0104e-08 4.17049e-08 0)
(1.31999e-08 4.9313e-08 0)
(5.23603e-09 5.68146e-08 0)
(-3.09823e-09 6.37354e-08 0)
(-1.10905e-08 6.96248e-08 0)
(-1.80896e-08 7.40972e-08 0)
(-2.35735e-08 7.68699e-08 0)
(-2.7195e-08 7.77966e-08 0)
(-2.88022e-08 7.68904e-08 0)
(-2.84349e-08 7.43271e-08 0)
(-2.62969e-08 7.04247e-08 0)
(-2.27111e-08 6.55946e-08 0)
(-1.80696e-08 6.02743e-08 0)
(-1.2792e-08 5.48534e-08 0)
(-7.30322e-09 4.96097e-08 0)
(-2.02505e-09 4.46658e-08 0)
(2.62729e-09 3.99713e-08 0)
(6.26342e-09 3.531e-08 0)
(8.55504e-09 3.0334e-08 0)
(9.29179e-09 2.46216e-08 0)
(8.43337e-09 1.77614e-08 0)
(6.14659e-09 9.44663e-09 0)
(2.80377e-09 -4.29751e-10 0)
(-1.05265e-09 -1.17104e-08 0)
(-4.79432e-09 -2.3944e-08 0)
(-7.81238e-09 -3.642e-08 0)
(-9.63864e-09 -4.825e-08 0)
(-1.0016e-08 -5.85139e-08 0)
(-8.91889e-09 -6.6409e-08 0)
(-6.50989e-09 -7.13806e-08 0)
(-3.14457e-09 -7.31454e-08 0)
(5.78397e-10 -7.16522e-08 0)
(3.7631e-09 -6.70259e-08 0)
(5.42726e-09 -5.96535e-08 0)
(4.99294e-09 -5.03404e-08 0)
(2.80222e-09 -4.03714e-08 0)
(-1.1872e-11 -3.11758e-08 0)
(-2.38351e-09 -2.37091e-08 0)
(-4.21614e-09 -1.79871e-08 0)
(-6.15464e-09 -1.32728e-08 0)
(-8.30162e-09 -8.84092e-09 0)
(-9.59253e-09 -4.66663e-09 0)
(-8.40588e-09 -1.56663e-09 0)
(-2.98378e-09 1.16038e-10 0)
(4.38077e-09 2.47323e-08 0)
(1.19199e-08 4.77191e-08 0)
(1.59409e-08 5.44703e-08 0)
(1.64732e-08 5.22436e-08 0)
(1.39389e-08 4.49635e-08 0)
(9.43516e-09 3.46291e-08 0)
(3.53376e-09 2.24635e-08 0)
(-3.33589e-09 9.69978e-09 0)
(-1.06089e-08 -2.41373e-09 0)
(-1.74981e-08 -1.29012e-08 0)
(-2.30637e-08 -2.12734e-08 0)
(-2.64371e-08 -2.74869e-08 0)
(-2.7084e-08 -3.17449e-08 0)
(-2.49747e-08 -3.42962e-08 0)
(-2.05533e-08 -3.53404e-08 0)
(-1.4548e-08 -3.50622e-08 0)
(-7.72426e-09 -3.37001e-08 0)
(-7.35105e-10 -3.15729e-08 0)
(5.8859e-09 -2.90117e-08 0)
(1.16433e-08 -2.62613e-08 0)
(1.60435e-08 -2.34159e-08 0)
(1.86643e-08 -2.04441e-08 0)
(1.92932e-08 -1.72661e-08 0)
(1.8019e-08 -1.38278e-08 0)
(1.52124e-08 -1.01169e-08 0)
(1.14112e-08 -6.13664e-09 0)
(7.1917e-09 -1.86987e-09 0)
(3.08556e-09 2.72177e-09 0)
(-4.52602e-10 7.66538e-09 0)
(-3.06299e-09 1.29326e-08 0)
(-4.51252e-09 1.84158e-08 0)
(-4.73822e-09 2.39327e-08 0)
(-3.87187e-09 2.92529e-08 0)
(-2.2208e-09 3.41291e-08 0)
(-2.04152e-10 3.83254e-08 0)
(1.732e-09 4.16413e-08 0)
(3.19367e-09 4.39305e-08 0)
(3.89791e-09 4.51126e-08 0)
(3.71116e-09 4.51744e-08 0)
(2.66926e-09 4.41625e-08 0)
(9.77039e-10 4.21728e-08 0)
(-1.01618e-09 3.93428e-08 0)
(-2.86454e-09 3.58447e-08 0)
(-4.08985e-09 3.18766e-08 0)
(-4.25301e-09 2.765e-08 0)
(-3.02521e-09 2.33784e-08 0)
(-2.51377e-10 1.92697e-08 0)
(4.00488e-09 1.55261e-08 0)
(9.44809e-09 1.2344e-08 0)
(1.55776e-08 9.90997e-09 0)
(2.17508e-08 8.38849e-09 0)
(2.72681e-08 7.9075e-09 0)
(3.14612e-08 8.54668e-09 0)
(3.37727e-08 1.03315e-08 0)
(3.38202e-08 1.32306e-08 0)
(3.14443e-08 1.71532e-08 0)
(2.67344e-08 2.1945e-08 0)
(2.00248e-08 2.73858e-08 0)
(1.18579e-08 3.3196e-08 0)
(2.91644e-09 3.90518e-08 0)
(-6.05969e-09 4.46104e-08 0)
(-1.43568e-08 4.95397e-08 0)
(-2.13571e-08 5.35507e-08 0)
(-2.65893e-08 5.64278e-08 0)
(-2.97616e-08 5.80566e-08 0)
(-3.07768e-08 5.84392e-08 0)
(-2.97308e-08 5.7691e-08 0)
(-2.68916e-08 5.60118e-08 0)
(-2.26639e-08 5.3633e-08 0)
(-1.75458e-08 5.07557e-08 0)
(-1.20881e-08 4.74941e-08 0)
(-6.86002e-09 4.3845e-08 0)
(-2.41685e-09 3.96855e-08 0)
(7.41075e-10 3.48016e-08 0)
(2.22747e-09 2.8934e-08 0)
(1.83884e-09 2.18378e-08 0)
(-3.79036e-10 1.33434e-08 0)
(-4.09857e-09 3.4197e-09 0)
(-8.72057e-09 -7.77897e-09 0)
(-1.34479e-08 -1.98798e-08 0)
(-1.74047e-08 -3.22974e-08 0)
(-1.98052e-08 -4.42673e-08 0)
(-2.01147e-08 -5.49367e-08 0)
(-1.81723e-08 -6.3488e-08 0)
(-1.41847e-08 -6.9308e-08 0)
(-8.63233e-09 -7.21105e-08 0)
(-2.13941e-09 -7.1974e-08 0)
(4.51767e-09 -6.92111e-08 0)
(1.03289e-08 -6.41995e-08 0)
(1.40773e-08 -5.72983e-08 0)
(1.4799e-08 -4.90141e-08 0)
(1.24579e-08 -4.02124e-08 0)
(8.24492e-09 -3.2088e-08 0)
(3.87491e-09 -2.56535e-08 0)
(4.08604e-10 -2.1108e-08 0)
(-2.23026e-09 -1.76669e-08 0)
(-4.40332e-09 -1.41812e-08 0)
(-5.9468e-09 -1.01194e-08 0)
(-5.76055e-09 -5.92803e-09 0)
(-2.20562e-09 -1.81325e-09 0)
(2.95862e-09 2.39776e-08 0)
(8.51191e-09 4.53157e-08 0)
(1.07297e-08 5.07622e-08 0)
(9.25422e-09 4.74589e-08 0)
(4.68856e-09 3.96861e-08 0)
(-1.5447e-09 2.95232e-08 0)
(-8.45e-09 1.80673e-08 0)
(-1.52553e-08 6.31138e-09 0)
(-2.13728e-08 -4.66021e-09 0)
(-2.63287e-08 -1.39135e-08 0)
(-2.96618e-08 -2.09294e-08 0)
(-3.09142e-08 -2.56874e-08 0)
(-2.97674e-08 -2.85384e-08 0)
(-2.62121e-08 -2.99691e-08 0)
(-2.06315e-08 -3.04121e-08 0)
(-1.37113e-08 -3.01712e-08 0)
(-6.23093e-09 -2.94645e-08 0)
(1.14022e-09 -2.84796e-08 0)
(7.91342e-09 -2.73813e-08 0)
(1.37213e-08 -2.62486e-08 0)
(1.82269e-08 -2.50165e-08 0)
(2.11191e-08 -2.34723e-08 0)
(2.22042e-08 -2.13339e-08 0)
(2.15164e-08 -1.83521e-08 0)
(1.93476e-08 -1.43861e-08 0)
(1.61772e-08 -9.41849e-09 0)
(1.25491e-08 -3.53214e-09 0)
(8.96655e-09 3.11988e-09 0)
(5.8372e-09 1.03248e-08 0)
(3.45418e-09 1.78096e-08 0)
(1.98225e-09 2.52457e-08 0)
(1.43752e-09 3.22719e-08 0)
(1.67577e-09 3.853e-08 0)
(2.41375e-09 4.37011e-08 0)
(3.28859e-09 4.75358e-08 0)
(3.93626e-09 4.98773e-08 0)
(4.06041e-09 5.06793e-08 0)
(3.47617e-09 5.00135e-08 0)
(2.13192e-09 4.80573e-08 0)
(1.18913e-10 4.50636e-08 0)
(-2.32936e-09 4.13174e-08 0)
(-4.85472e-09 3.70977e-08 0)
(-7.0152e-09 3.26511e-08 0)
(-8.34625e-09 2.81796e-08 0)
(-8.43112e-09 2.38361e-08 0)
(-6.96872e-09 1.97253e-08 0)
(-3.83028e-09 1.59106e-08 0)
(9.01992e-10 1.24278e-08 0)
(6.92282e-09 9.30405e-09 0)
(1.37257e-08 6.57486e-09 0)
(2.06593e-08 4.2932e-09 0)
(2.70088e-08 2.53037e-09 0)
(3.20843e-08 1.37106e-09 0)
(3.53018e-08 9.06408e-10 0)
(3.62469e-08 1.22523e-09 0)
(3.47201e-08 2.40121e-09 0)
(3.07604e-08 4.47532e-09 0)
(2.46455e-08 7.43701e-09 0)
(1.68622e-08 1.12105e-08 0)
(8.04929e-09 1.56515e-08 0)
(-1.07779e-09 2.05557e-08 0)
(-9.80518e-09 2.56757e-08 0)
(-1.74878e-08 3.07428e-08 0)
(-2.36001e-08 3.54915e-08 0)
(-2.77718e-08 3.96863e-08 0)
(-2.98144e-08 4.3146e-08 0)
(-2.97378e-08 4.57597e-08 0)
(-2.77539e-08 4.74848e-08 0)
(-2.42596e-08 4.83227e-08 0)
(-1.97982e-08 4.82775e-08 0)
(-1.5005e-08 4.7314e-08 0)
(-1.05444e-08 4.53323e-08 0)
(-7.04675e-09 4.21741e-08 0)
(-5.0421e-09 3.76578e-08 0)
(-4.89152e-09 3.16338e-08 0)
(-6.71573e-09 2.40389e-08 0)
(-1.03407e-08 1.49428e-08 0)
(-1.52732e-08 4.56988e-09 0)
(-2.07342e-08 -6.69521e-09 0)
(-2.57463e-08 -1.83275e-08 0)
(-2.92862e-08 -2.96886e-08 0)
(-3.04741e-08 -4.0074e-08 0)
(-2.87874e-08 -4.87663e-08 0)
(-2.42081e-08 -5.51346e-08 0)
(-1.72455e-08 -5.87587e-08 0)
(-8.75979e-09 -5.95787e-08 0)
(2.84366e-10 -5.79376e-08 0)
(8.97652e-09 -5.44732e-08 0)
(1.63601e-08 -4.98271e-08 0)
(2.13112e-08 -4.44201e-08 0)
(2.27368e-08 -3.84621e-08 0)
(2.02881e-08 -3.22684e-08 0)
(1.49576e-08 -2.64888e-08 0)
(8.81752e-09 -2.19239e-08 0)
(3.77583e-09 -1.88997e-08 0)
(5.34568e-10 -1.68299e-08 0)
(-1.3205e-09 -1.45286e-08 0)
(-2.54884e-09 -1.12104e-08 0)
(-2.93128e-09 -7.04601e-09 0)
(-1.37705e-09 -2.32543e-09 0)
(1.23914e-09 2.21044e-08 0)
(4.44997e-09 4.11351e-08 0)
(4.69187e-09 4.51921e-08 0)
(1.38157e-09 4.09759e-08 0)
(-4.66282e-09 3.28411e-08 0)
(-1.1957e-08 2.30034e-08 0)
(-1.93076e-08 1.25733e-08 0)
(-2.57078e-08 2.39036e-09 0)
(-3.0509e-08 -6.70314e-09 0)
(-3.34583e-08 -1.39592e-08 0)
(-3.45218e-08 -1.89507e-08 0)
(-3.37001e-08 -2.17127e-08 0)
(-3.09758e-08 -2.26964e-08 0)
(-2.64147e-08 -2.25705e-08 0)
(-2.02942e-08 -2.19727e-08 0)
(-1.31405e-08 -2.13539e-08 0)
(-5.60961e-09 -2.09467e-08 0)
(1.69798e-09 -2.08344e-08 0)
(8.36305e-09 -2.10088e-08 0)
(1.41305e-08 -2.13786e-08 0)