/*--------------------------------*- C++ -*----------------------------------*\
| =========                 |                                                 |
| \\      /  F ield         | OpenFOAM: The Open Source CFD Toolbox           |
|  \\    /   O peration     | Version:  2406                                  |
|   \\  /    A nd           | Website:  www.openfoam.com                      |
|    \\/     M anipulation  |                                                 |
\*---------------------------------------------------------------------------*/
FoamFile
{
    version     2.0;
    format      ascii;
    arch        "LSB;label=32;scalar=64";
    class       volScalarField;
    location    "0.9";
    object      epsilon;
}
// * * * * * * * * * * * * * * * * * * * * * * * * * * * * * * * * * * * * * //

dimensions      [0 2 -3 0 0 0 0];

internalField   nonuniform List<scalar> 
2268
(
0.00430133
0.0190683
0.0318546
0.0424671
0.0513405
0.0587758
0.0649839
0.0701206
0.0743048
0.077627
0.0801535
0.0819269
0.0829635
0.083248
0.0827228
0.0812704
0.0786824
0.0746099
0.0684844
0.0594227
0.0462024
0.0276551
0.00508682
0.00765807
0.0130583
0.0185355
0.0232035
0.027109
0.0303602
0.0330511
0.0352566
0.0370354
0.038433
0.0394829
0.0402071
0.040615
0.0407019
0.0404443
0.0397938
0.038666
0.0369234
0.0343501
0.0306233
0.0253176
0.0181018
0.010197
0.0124548
0.0135963
0.0171088
0.0203372
0.0230967
0.0254068
0.0273175
0.0288781
0.0301305
0.0311086
0.031838
0.0323358
0.0326105
0.0326601
0.0324703
0.0320116
0.0312337
0.0300591
0.0283754
0.0260316
0.0228627
0.0189038
0.0178295
0.0169117
0.0149224
0.0172905
0.0197565
0.0219406
0.0237944
0.0253357
0.0265959
0.0276062
0.0283935
0.0289789
0.029377
0.0295957
0.0296352
0.029487
0.029133
0.0285438
0.0276798
0.0264949
0.0249543
0.0230889
0.0212875
0.0255957
0.0209263
0.0163994
0.0179232
0.0198567
0.0216531
0.0232082
0.0245131
0.0255846
0.0264451
0.0271161
0.027615
0.0279549
0.0281435
0.0281828
0.0280689
0.0277929
0.0273421
0.0267067
0.0258953
0.0249757
0.024184
0.0243723
0.0338281
0.0245479
0.0178627
0.0187088
0.0202272
0.021727
0.0230577
0.0241881
0.0251226
0.025876
0.0264649
0.0269042
0.0272052
0.0273758
0.0274197
0.0273371
0.0271268
0.0267902
0.0263424
0.0258389
0.0254442
0.025635
0.0280137
0.0439164
0.0278348
0.0192563
0.0195364
0.0207141
0.0219725
0.0231225
0.024114
0.0249407
0.0256109
0.0261371
0.0265315
0.0268045
0.0269638
0.0270149
0.0269614
0.0268089
0.0265703
0.0262811
0.0260344
0.0260783
0.0271502
0.0321237
0.0607061
0.0308332
0.0205614
0.0203565
0.0212471
0.0223026
0.0233012
0.0241772
0.0249151
0.0255174
0.0259929
0.0263519
0.0266036
0.0267558
0.0268153
0.0267889
0.0266875
0.0265332
0.0263766
0.0263363
0.0267129
0.0284251
0.0359433
0.104715
0.00551976
0.0301245
0.0493175
0.0622164
0.0704846
0.0755941
0.0785003
0.079763
0.0796926
0.078446
0.0760829
0.0725956
0.0679244
0.0619619
0.0545487
0.0454567
0.0343521
0.0207449
0.00468931
0.00984177
0.0190181
0.0265612
0.0317807
0.035217
0.0373933
0.0386637
0.0392438
0.0392563
0.0387636
0.0377872
0.0363187
0.0343259
0.0317535
0.0285226
0.0245267
0.0196328
0.0137437
0.00750667
0.016955
0.0193285
0.0235708
0.026734
0.0289261
0.0303696
0.0312378
0.0316465
0.0316657
0.0313315
0.0306548
0.0296267
0.0282213
0.0263978
0.0241012
0.0212679
0.017852
0.0139816
0.0119773
0.0242493
0.0213679
0.0234531
0.025374
0.0268472
0.0278789
0.0285225
0.0288304
0.0288397
0.0285704
0.0280265
0.0271983
0.026064
0.0245917
0.0227427
0.0204844
0.0178369
0.0151153
0.0161574
0.0320634
0.0241327
0.0242542
0.0251663
0.0260876
0.0268097
0.0272843
0.0275124
0.0275049
0.0272687
0.0268026
0.0260958
0.0251298
0.0238796
0.0223202
0.0204445
0.0183273
0.0164434
0.0199343
0.0418302
0.0274144
0.025427
0.0254354
0.0258933
0.026359
0.026692
0.0268502
0.0268225
0.0266046
0.0261905
0.0255687
0.0247231
0.0236351
0.0222911
0.0207059
0.0189995
0.0177841
0.023343
0.0583073
0.031062
0.0266839
0.0259001
0.0259713
0.026221
0.0264322
0.0265276
0.0264782
0.0262704
0.0258939
0.0253366
0.0245846
0.0236244
0.0224529
0.0211028
0.0197326
0.0190735
0.0264348
0.0996027
0.0343514
0.0277664
0.0264063
0.0261785
0.0262513
0.0263583
0.0263977
0.0263267
0.0261243
0.0257764
0.0252706
0.0245948
0.0237403
0.0227123
0.0215595
0.0204723
0.020288
0.0292529
0.0351633
0.0224581
0.0215906
0.0220957
0.0228798
0.023676
0.0243979
0.0250179
0.0255308
0.0259404
0.026254
0.0264793
0.0266244
0.0266977
0.02671
0.0266787
0.0266361
0.0266474
0.0268497
0.0275507
0.0295155
0.0349825
0.051978
0.0400151
0.0246107
0.0230494
0.0231643
0.0236753
0.0242674
0.0248338
0.0253351
0.0257587
0.0261035
0.0263734
0.0265749
0.0267157
0.0268054
0.0268572
0.0268918
0.0269443
0.0270769
0.0274036
0.0281362
0.0296749
0.032768
0.0386585
0.0440614
0.0263955
0.0242811
0.0240962
0.0244
0.0248373
0.0252853
0.0256961
0.0260516
0.0263471
0.0265842
0.0267679
0.0269055
0.0270066
0.0270845
0.027159
0.0272609
0.0274391
0.0277708
0.0283746
0.0294181
0.0310866
0.0333986
0.0474336
0.0278675
0.0253048
0.0248855
0.0250298
0.0253484
0.0257054
0.0260463
0.0263491
0.0266063
0.0268177
0.0269872
0.0271211
0.0272281
0.0273203
0.0274146
0.0275348
0.0277148
0.0280008
0.0284502
0.0291197
0.0300244
0.0310438
0.0502346
0.0290751
0.0261466
0.025542
0.0255626
0.0257897
0.0260766
0.0263634
0.0266252
0.0268523
0.0270432
0.0272006
0.0273297
0.0274382
0.027536
0.0276364
0.0277566
0.0279181
0.0281465
0.0284661
0.0288892
0.0293931
0.0298873
0.0525494
0.0300596
0.0268325
0.0260808
0.0260053
0.0261618
0.0263946
0.0266397
0.0268695
0.0270729
0.0272473
0.0273941
0.0275176
0.0276242
0.0277218
0.0278203
0.0279315
0.0280685
0.0282444
0.028468
0.028737
0.0290277
0.0292864
0.0544504
0.0308568
0.0273867
0.0265185
0.026368
0.0264703
0.0266616
0.0268745
0.0270795
0.0272642
0.027425
0.0275626
0.0276803
0.027783
0.027877
0.0279696
0.0280686
0.0281818
0.0283157
0.0284725
0.0286466
0.0288208
0.028965
0.0559999
0.0314974
0.0278308
0.0268705
0.0266621
0.0267226
0.0268823
0.0270705
0.0272563
0.0274264
0.0275762
0.0277057
0.0278175
0.0279155
0.0280044
0.0280896
0.0281763
0.0282693
0.0283716
0.028483
0.0285986
0.0287072
0.028792
0.0572528
0.0320081
0.0281837
0.0271512
0.026898
0.0269269
0.0270624
0.0272319
0.027403
0.0275616
0.0277025
0.0278253
0.0279316
0.0280246
0.028108
0.0281858
0.0282616
0.0283383
0.0284176
0.0284987
0.0285779
0.0286483
0.0287007
0.0582568
0.0324116
0.0284618
0.0273731
0.0270857
0.0270906
0.027208
0.0273634
0.0275232
0.0276729
0.0278068
0.0279238
0.0280253
0.0281136
0.0281918
0.0282629
0.0283296
0.028394
0.0284568
0.0285176
0.0285738
0.0286214
0.0286552
0.059054
0.0327277
0.0286791
0.027547
0.0272338
0.0272206
0.0273246
0.0274694
0.0276209
0.0277638
0.0278921
0.0280044
0.0281017
0.0281859
0.0282595
0.028325
0.0283844
0.0284394
0.0284906
0.0285377
0.0285792
0.0286129
0.0286357
0.059681
0.032973
0.0288473
0.0276821
0.0273496
0.0273232
0.0274173
0.0275543
0.0276995
0.0278373
0.0279613
0.0280699
0.0281637
0.0282444
0.0283142
0.028375
0.0284288
0.0284769
0.0285199
0.0285577
0.0285898
0.0286147
0.0286308
0.0601693
0.0331615
0.0289764
0.0277863
0.0274394
0.0274034
0.0274904
0.0276218
0.0277624
0.0278964
0.0280171
0.0281228
0.0282138
0.0282917
0.0283583
0.0284156
0.0284651
0.028508
0.0285452
0.0285769
0.0286026
0.0286219
0.0286339
0.0605458
0.0333051
0.0290746
0.027866
0.0275087
0.0274658
0.0275476
0.027675
0.0278124
0.0279436
0.0280619
0.0281654
0.0282542
0.0283299
0.0283941
0.0284485
0.0284948
0.0285341
0.0285672
0.0285945
0.0286162
0.0286318
0.0286411
0.0608332
0.0334135
0.0291487
0.0279264
0.0275616
0.0275139
0.0275922
0.0277168
0.0278519
0.0279812
0.0280977
0.0281995
0.0282868
0.0283607
0.028423
0.0284754
0.0285193
0.0285559
0.0285862
0.0286106
0.0286294
0.0286427
0.0286502
0.0610506
0.0334944
0.0292041
0.0279719
0.0276018
0.0275507
0.0276266
0.0277495
0.027883
0.0280109
0.0281263
0.0282269
0.0283129
0.0283856
0.0284465
0.0284973
0.0285395
0.0285742
0.0286025
0.0286249
0.0286418
0.0286535
0.0286599
0.0612134
0.0335544
0.0292452
0.0280058
0.0276322
0.0275788
0.0276532
0.0277748
0.0279073
0.0280344
0.0281489
0.0282487
0.0283339
0.0284057
0.0284656
0.0285152
0.0285562
0.0285896
0.0286164
0.0286375
0.0286532
0.0286638
0.0286695
0.0613342
0.0335984
0.0292754
0.028031
0.0276549
0.0276
0.0276734
0.0277943
0.0279263
0.0280528
0.0281668
0.028266
0.0283507
0.0284218
0.028481
0.0285299
0.02857
0.0286024
0.0286283
0.0286484
0.0286633
0.0286732
0.0286784
0.061423
0.0336305
0.0292975
0.0280496
0.0276717
0.027616
0.0276888
0.0278093
0.0279409
0.0280671
0.0281808
0.0282798
0.028364
0.0284348
0.0284935
0.0285419
0.0285813
0.0286132
0.0286384
0.0286579
0.0286722
0.0286816
0.0286865
0.0614878
0.0336536
0.0293135
0.0280631
0.0276842
0.027628
0.0277005
0.0278208
0.0279522
0.0280783
0.0281918
0.0282906
0.0283747
0.0284452
0.0285036
0.0285516
0.0285907
0.0286221
0.028647
0.028666
0.0286799
0.0286891
0.0286937
0.0615345
0.0336702
0.029325
0.0280729
0.0276934
0.0276368
0.0277092
0.0278295
0.0279609
0.0280869
0.0282004
0.0282992
0.0283831
0.0284534
0.0285117
0.0285595
0.0285984
0.0286295
0.0286541
0.0286729
0.0286865
0.0286955
0.0287
0.0615681
0.033682
0.0293331
0.02808
0.0277001
0.0276434
0.0277158
0.027836
0.0279675
0.0280936
0.0282071
0.0283058
0.0283898
0.02846
0.0285182
0.0285659
0.0286046
0.0286356
0.02866
0.0286786
0.0286921
0.028701
0.0287054
0.0615919
0.0336903
0.0293389
0.0280851
0.0277049
0.0276482
0.0277206
0.027841
0.0279725
0.0280987
0.0282123
0.028311
0.028395
0.0284652
0.0285234
0.028571
0.0286096
0.0286406
0.0286649
0.0286834
0.0286968
0.0287056
0.02871
0.0616087
0.0336961
0.029343
0.0280887
0.0277084
0.0276517
0.0277242
0.0278446
0.0279763
0.0281025
0.0282162
0.028315
0.028399
0.0284693
0.0285275
0.0285751
0.0286137
0.0286446
0.0286688
0.0286873
0.0287007
0.0287094
0.0287138
0.0616205
0.0337001
0.0293459
0.0280912
0.0277109
0.0276542
0.0277268
0.0278474
0.0279791
0.0281055
0.0282192
0.0283181
0.0284022
0.0284725
0.0285307
0.0285783
0.0286169
0.0286478
0.028672
0.0286905
0.0287038
0.0287126
0.0287169
0.0616287
0.0337029
0.0293479
0.028093
0.0277127
0.0276561
0.0277287
0.0278494
0.0279813
0.0281077
0.0282215
0.0283205
0.0284046
0.028475
0.0285332
0.0285809
0.0286195
0.0286504
0.0286746
0.0286931
0.0287064
0.0287151
0.0287195
0.0616344
0.0337049
0.0293492
0.0280943
0.0277139
0.0276574
0.0277301
0.0278508
0.0279828
0.0281093
0.0282232
0.0283223
0.0284064
0.0284769
0.0285352
0.0285829
0.0286215
0.0286524
0.0286767
0.0286951
0.0287085
0.0287172
0.0287215
0.0616383
0.0337062
0.0293502
0.0280952
0.0277148
0.0276583
0.0277311
0.0278519
0.0279839
0.0281105
0.0282245
0.0283236
0.0284078
0.0284783
0.0285367
0.0285844
0.0286231
0.028654
0.0286783
0.0286967
0.0287101
0.0287188
0.0287232
0.0616409
0.033707
0.0293508
0.0280958
0.0277154
0.027659
0.0277318
0.0278527
0.0279848
0.0281114
0.0282255
0.0283246
0.0284089
0.0284794
0.0285378
0.0285856
0.0286243
0.0286552
0.0286795
0.028698
0.0287113
0.0287201
0.0287244
0.0616427
0.0337076
0.0293513
0.0280962
0.0277159
0.0276594
0.0277324
0.0278532
0.0279854
0.0281121
0.0282262
0.0283254
0.0284097
0.0284803
0.0285387
0.0285865
0.0286252
0.0286562
0.0286804
0.0286989
0.0287123
0.028721
0.0287254
0.0616439
0.033708
0.0293516
0.0280964
0.0277162
0.0276598
0.0277327
0.0278536
0.0279858
0.0281125
0.0282267
0.0283259
0.0284103
0.0284809
0.0285393
0.0285871
0.0286259
0.0286569
0.0286812
0.0286997
0.0287131
0.0287218
0.0287262
0.0616447
0.0337083
0.0293517
0.0280966
0.0277164
0.02766
0.027733
0.0278539
0.0279861
0.0281129
0.028227
0.0283263
0.0284107
0.0284813
0.0285398
0.0285876
0.0286264
0.0286574
0.0286817
0.0287002
0.0287136
0.0287224
0.0287268
0.0616453
0.0337085
0.0293519
0.0280968
0.0277165
0.0276601
0.0277331
0.0278541
0.0279863
0.0281131
0.0282273
0.0283266
0.028411
0.0284817
0.0285401
0.028588
0.0286268
0.0286578
0.0286821
0.0287007
0.0287141
0.0287228
0.0287272
0.0616456
0.0337086
0.029352
0.0280969
0.0277166
0.0276603
0.0277333
0.0278543
0.0279865
0.0281133
0.0282275
0.0283268
0.0284112
0.0284819
0.0285404
0.0285883
0.028627
0.0286581
0.0286824
0.028701
0.0287144
0.0287231
0.0287275
0.0616458
0.0337087
0.029352
0.0280969
0.0277167
0.0276603
0.0277333
0.0278543
0.0279866
0.0281134
0.0282276
0.0283269
0.0284114
0.0284821
0.0285406
0.0285884
0.0286273
0.0286583
0.0286826
0.0287012
0.0287146
0.0287233
0.0287277
0.061646
0.0337087
0.0293521
0.0280969
0.0277167
0.0276604
0.0277334
0.0278544
0.0279867
0.0281135
0.0282277
0.028327
0.0284115
0.0284822
0.0285407
0.0285886
0.0286274
0.0286584
0.0286828
0.0287013
0.0287148
0.0287235
0.0287279
0.0616461
0.0337088
0.0293521
0.028097
0.0277167
0.0276604
0.0277334
0.0278545
0.0279867
0.0281135
0.0282278
0.0283271
0.0284116
0.0284823
0.0285408
0.0285887
0.0286275
0.0286585
0.0286829
0.0287015
0.0287149
0.0287236
0.028728
0.0616462
0.0337088
0.0293521
0.028097
0.0277167
0.0276604
0.0277335
0.0278545
0.0279868
0.0281136
0.0282278
0.0283272
0.0284116
0.0284823
0.0285408
0.0285887
0.0286276
0.0286586
0.028683
0.0287015
0.0287149
0.0287237
0.0287281
0.0616462
0.0337088
0.0293521
0.028097
0.0277168
0.0276604
0.0277335
0.0278545
0.0279868
0.0281136
0.0282279
0.0283272
0.0284117
0.0284824
0.0285409
0.0285888
0.0286276
0.0286587
0.028683
0.0287016
0.028715
0.0287237
0.0287281
0.0616462
0.0337088
0.0293521
0.028097
0.0277168
0.0276605
0.0277335
0.0278545
0.0279868
0.0281136
0.0282279
0.0283272
0.0284117
0.0284824
0.0285409
0.0285888
0.0286276
0.0286587
0.0286831
0.0287016
0.028715
0.0287238
0.0287281
0.0616462
0.0337088
0.0293521
0.028097
0.0277168
0.0276605
0.0277335
0.0278545
0.0279868
0.0281136
0.0282279
0.0283272
0.0284117
0.0284824
0.0285409
0.0285888
0.0286277
0.0286587
0.0286831
0.0287016
0.028715
0.0287238
0.0287281
0.0616462
0.0337088
0.0293521
0.028097
0.0277168
0.0276605
0.0277335
0.0278545
0.0279868
0.0281136
0.0282279
0.0283272
0.0284117
0.0284824
0.0285409
0.0285888
0.0286277
0.0286587
0.0286831
0.0287016
0.028715
0.0287238
0.0287281
0.129974
0.101863
0.101561
0.128399
0.0459401
0.0465008
0.0464629
0.0458483
0.0350041
0.035468
0.0354578
0.0349765
0.0315869
0.0317686
0.0317633
0.0315715
0.0301159
0.0301921
0.0301885
0.030105
0.0293961
0.0294315
0.0294285
0.029387
0.0290224
0.0290401
0.0290374
0.0290142
0.0288239
0.0288332
0.0288307
0.0288163
0.0287193
0.0287242
0.0287218
0.028712
0.0286664
0.0286689
0.0286666
0.0286595
0.0286426
0.0286438
0.0286416
0.0286359
0.0286351
0.0286355
0.0286333
0.0286287
0.0286367
0.0286365
0.0286344
0.0286304
0.0286429
0.0286425
0.0286405
0.0286368
0.0286514
0.0286508
0.0286488
0.0286454
0.0286607
0.02866
0.0286581
0.0286548
0.02867
0.0286693
0.0286673
0.0286642
0.0286788
0.028678
0.028676
0.028673
0.0286868
0.028686
0.028684
0.0286811
0.028694
0.0286931
0.0286912
0.0286882
0.0287002
0.0286993
0.0286974
0.0286945
0.0287056
0.0287047
0.0287028
0.0286999
0.0287101
0.0287092
0.0287073
0.0287044
0.0287139
0.028713
0.0287111
0.0287082
0.0287171
0.0287162
0.0287143
0.0287114
0.0287196
0.0287187
0.0287168
0.0287139
0.0287217
0.0287208
0.0287189
0.028716
0.0287233
0.0287224
0.0287205
0.0287176
0.0287246
0.0287237
0.0287218
0.0287189
0.0287256
0.0287247
0.0287228
0.0287199
0.0287263
0.0287254
0.0287235
0.0287206
0.0287269
0.028726
0.0287241
0.0287212
0.0287273
0.0287264
0.0287245
0.0287216
0.0287276
0.0287267
0.0287249
0.0287219
0.0287279
0.028727
0.0287251
0.0287222
0.028728
0.0287271
0.0287252
0.0287223
0.0287281
0.0287272
0.0287254
0.0287224
0.0287282
0.0287273
0.0287254
0.0287225
0.0287282
0.0287274
0.0287255
0.0287225
0.0287283
0.0287274
0.0287255
0.0287226
0.0287283
0.0287274
0.0287255
0.0287226
0.0287282
0.0287274
0.0287255
0.0287225
0.0504084
0.0338206
0.0287959
0.0271241
0.0265827
0.0264398
0.0264113
0.0263743
0.0262714
0.0260729
0.0257606
0.0253212
0.0247455
0.024031
0.0231947
0.0223055
0.0215974
0.0220589
0.0333185
0.0381736
0.0321132
0.0291147
0.0277173
0.0270915
0.0268169
0.0266813
0.0265754
0.0264403
0.0262431
0.0259636
0.0255887
0.0251122
0.0245381
0.0238943
0.02327
0.0229443
0.0240762
0.0378681
0.0332327
0.0307354
0.0290325
0.0280278
0.0274732
0.0271698
0.0269866
0.0268426
0.0266886
0.0264939
0.0262394
0.0259133
0.0255121
0.0250445
0.0245467
0.0241228
0.0240888
0.0257508
0.0416583
0.0309722
0.0298288
0.0288619
0.0281815
0.0277413
0.0274605
0.0272673
0.0271086
0.0269472
0.0267579
0.0265241
0.0262363
0.0258932
0.0255075
0.0251214
0.024851
0.0250438
0.0271325
0.0448151
0.0298476
0.0292751
0.0287136
0.0282611
0.0279285
0.0276888
0.0275059
0.0273472
0.0271868
0.0270054
0.0267898
0.0265325
0.0262348
0.0259122
0.025612
0.0254602
0.025831
0.0282659
0.0474371
0.0292592
0.0289494
0.0286121
0.0283097
0.0280627
0.0278656
0.0277013
0.0275508
0.0273966
0.0272247
0.027025
0.0267925
0.0265303
0.0262565
0.0260224
0.0259625
0.0264736
0.0291902
0.0496049
0.0289434
0.0287637
0.0285527
0.0283467
0.0281629
0.0280028
0.0278587
0.0277198
0.0275744
0.0274126
0.0272269
0.0270144
0.02678
0.0265439
0.0263607
0.0263719
0.0269939
0.0299391
0.0513869
0.0287734
0.0286622
0.0285241
0.0283797
0.0282408
0.0281103
0.0279849
0.027858
0.0277221
0.02757
0.0273965
0.0272002
0.0269875
0.0267804
0.0266363
0.0267025
0.0274116
0.0305414
0.0528417
0.0286839
0.0286106
0.0285157
0.0284108
0.0283032
0.0281954
0.0280858
0.0279702
0.0278433
0.0277001
0.0275368
0.0273536
0.0271577
0.0269728
0.0268584
0.0269669
0.0277443
0.0310222
0.0540203
0.0286396
0.0285882
0.0285197
0.0284404
0.0283545
0.0282636
0.0281667
0.0280607
0.0279419
0.0278064
0.0276517
0.0274787
0.0272959
0.0271278
0.027036
0.0271768
0.0280071
0.031403
0.0549672
0.0286209
0.0285827
0.0285307
0.0284681
0.0283972
0.0283188
0.0282317
0.0281337
0.0280217
0.0278927
0.0277449
0.0275799
0.027407
0.0272516
0.0271767
0.0273419
0.0282131
0.0317019
0.0557214
0.0286166
0.0285866
0.028545
0.0284935
0.0284331
0.0283637
0.0282842
0.0281926
0.0280861
0.0279623
0.02782
0.0276612
0.0274958
0.0273498
0.0272874
0.0274709
0.0283732
0.0319346
0.0563166
0.0286202
0.0285954
0.0285606
0.0285165
0.0284633
0.0284005
0.0283267
0.02824
0.0281379
0.0280182
0.0278801
0.0277261
0.0275661
0.027427
0.0273738
0.0275708
0.0284967
0.0321141
0.056782
0.0286278
0.0286063
0.0285761
0.028537
0.0284889
0.0284308
0.0283613
0.0282783
0.0281795
0.028063
0.0279281
0.0277776
0.0276216
0.0274874
0.0274409
0.0276477
0.028591
0.0322514
0.0571424
0.0286373
0.028618
0.0285907
0.0285551
0.0285105
0.0284558
0.0283893
0.0283091
0.0282129
0.0280988
0.0279663
0.0278182
0.0276651
0.0275344
0.0274925
0.0277064
0.0286626
0.0323554
0.0574189
0.0286472
0.0286294
0.0286042
0.0285709
0.0285287
0.0284764
0.0284122
0.028334
0.0282397
0.0281273
0.0279965
0.0278502
0.027699
0.0275707
0.027532
0.0277509
0.0287164
0.0324335
0.057629
0.0286569
0.0286401
0.0286162
0.0285846
0.0285441
0.0284935
0.0284308
0.0283541
0.0282611
0.02815
0.0280203
0.0278752
0.0277253
0.0275986
0.027562
0.0277843
0.0287566
0.0324917
0.0577872
0.028666
0.0286499
0.0286269
0.0285963
0.028557
0.0285075
0.028446
0.0283703
0.0282782
0.028168
0.0280391
0.0278947
0.0277456
0.0276199
0.0275847
0.0278094
0.0287864
0.0325347
0.0579052
0.0286742
0.0286585
0.0286362
0.0286063
0.0285678
0.0285191
0.0284584
0.0283834
0.0282919
0.0281821
0.0280537
0.0279098
0.0277612
0.027636
0.0276018
0.0278279
0.0288083
0.0325662
0.0579925
0.0286815
0.0286661
0.0286442
0.0286148
0.0285768
0.0285286
0.0284684
0.0283938
0.0283027
0.0281933
0.0280651
0.0279214
0.0277731
0.0276483
0.0276145
0.0278416
0.0288242
0.032589
0.0580564
0.0286878
0.0286726
0.0286509
0.0286219
0.0285843
0.0285364
0.0284764
0.0284022
0.0283113
0.028202
0.028074
0.0279304
0.0277822
0.0276574
0.0276239
0.0278517
0.0288358
0.0326055
0.0581029
0.0286933
0.0286782
0.0286567
0.0286278
0.0285904
0.0285427
0.0284829
0.0284088
0.028318
0.0282088
0.0280808
0.0279372
0.027789
0.0276643
0.0276308
0.0278589
0.0288441
0.0326173
0.0581364
0.0286978
0.0286828
0.0286614
0.0286327
0.0285953
0.0285478
0.0284881
0.028414
0.0283233
0.0282141
0.0280861
0.0279424
0.0277941
0.0276694
0.0276359
0.0278642
0.0288501
0.0326256
0.0581604
0.0287017
0.0286867
0.0286653
0.0286366
0.0285994
0.0285519
0.0284922
0.0284182
0.0283274
0.0282182
0.0280901
0.0279464
0.027798
0.0276731
0.0276396
0.027868
0.0288543
0.0326315
0.0581774
0.0287048
0.0286898
0.0286685
0.0286399
0.0286026
0.0285551
0.0284955
0.0284214
0.0283306
0.0282213
0.0280932
0.0279493
0.0278008
0.0276759
0.0276423
0.0278707
0.0288572
0.0326356
0.0581894
0.0287073
0.0286924
0.0286711
0.0286424
0.0286052
0.0285577
0.028498
0.0284239
0.028333
0.0282237
0.0280954
0.0279515
0.0278029
0.0276779
0.0276443
0.0278726
0.0288593
0.0326385
0.0581978
0.0287094
0.0286944
0.0286731
0.0286445
0.0286072
0.0285597
0.0285
0.0284258
0.0283349
0.0282255
0.0280972
0.0279531
0.0278045
0.0276793
0.0276456
0.027874
0.0288608
0.0326405
0.0582036
0.028711
0.0286961
0.0286747
0.0286461
0.0286088
0.0285612
0.0285015
0.0284273
0.0283363
0.0282268
0.0280984
0.0279543
0.0278056
0.0276804
0.0276466
0.0278749
0.0288618
0.0326418
0.0582076
0.0287123
0.0286973
0.028676
0.0286473
0.02861
0.0285624
0.0285026
0.0284284
0.0283374
0.0282278
0.0280994
0.0279552
0.0278064
0.0276811
0.0276473
0.0278756
0.0288624
0.0326428
0.0582103
0.0287133
0.0286983
0.0286769
0.0286482
0.0286109
0.0285633
0.0285035
0.0284292
0.0283382
0.0282286
0.0281001
0.0279559
0.027807
0.0276816
0.0276478
0.027876
0.0288629
0.0326434
0.0582122
0.028714
0.028699
0.0286777
0.028649
0.0286116
0.028564
0.0285041
0.0284298
0.0283387
0.0282291
0.0281006
0.0279563
0.0278074
0.027682
0.0276481
0.0278764
0.0288632
0.0326438
0.0582135
0.0287146
0.0286996
0.0286782
0.0286495
0.0286121
0.0285645
0.0285046
0.0284303
0.0283392
0.0282295
0.0281009
0.0279566
0.0278077
0.0276823
0.0276484
0.0278766
0.0288634
0.0326441
0.0582143
0.028715
0.0287
0.0286786
0.0286499
0.0286125
0.0285649
0.028505
0.0284306
0.0283395
0.0282298
0.0281012
0.0279569
0.0278079
0.0276824
0.0276485
0.0278767
0.0288636
0.0326443
0.0582149
0.0287153
0.0287003
0.0286789
0.0286502
0.0286128
0.0285651
0.0285052
0.0284308
0.0283397
0.02823
0.0281014
0.027957
0.027808
0.0276826
0.0276486
0.0278768
0.0288637
0.0326444
0.0582153
0.0287156
0.0287006
0.0286792
0.0286504
0.028613
0.0285653
0.0285054
0.028431
0.0283399
0.0282301
0.0281015
0.0279572
0.0278081
0.0276827
0.0276487
0.0278769
0.0288638
0.0326445
0.0582155
0.0287157
0.0287007
0.0286793
0.0286506
0.0286132
0.0285655
0.0285055
0.0284311
0.02834
0.0282302
0.0281016
0.0279572
0.0278082
0.0276827
0.0276488
0.0278769
0.0288638
0.0326445
0.0582157
0.0287158
0.0287008
0.0286794
0.0286507
0.0286133
0.0285656
0.0285056
0.0284312
0.02834
0.0282303
0.0281016
0.0279573
0.0278082
0.0276828
0.0276488
0.027877
0.0288638
0.0326446
0.0582158
0.0287159
0.0287009
0.0286795
0.0286507
0.0286133
0.0285656
0.0285057
0.0284313
0.0283401
0.0282303
0.0281017
0.0279573
0.0278083
0.0276828
0.0276488
0.027877
0.0288638
0.0326446
0.0582158
0.0287159
0.0287009
0.0286795
0.0286508
0.0286134
0.0285657
0.0285057
0.0284313
0.0283401
0.0282304
0.0281017
0.0279573
0.0278083
0.0276828
0.0276488
0.027877
0.0288639
0.0326446
0.0582159
0.028716
0.028701
0.0286796
0.0286508
0.0286134
0.0285657
0.0285058
0.0284313
0.0283402
0.0282304
0.0281017
0.0279574
0.0278083
0.0276828
0.0276488
0.027877
0.0288639
0.0326446
0.0582159
0.028716
0.028701
0.0286796
0.0286508
0.0286134
0.0285657
0.0285058
0.0284314
0.0283402
0.0282304
0.0281017
0.0279574
0.0278083
0.0276828
0.0276488
0.027877
0.0288639
0.0326446
0.0582159
0.028716
0.028701
0.0286796
0.0286508
0.0286134
0.0285657
0.0285058
0.0284314
0.0283402
0.0282304
0.0281018
0.0279574
0.0278083
0.0276828
0.0276488
0.027877
0.0288639
0.0326446
0.0582159
)
;

boundaryField
{
    leftWall
    {
        type            epsilonWallFunction;
        blending        stepwise;
        value           nonuniform List<scalar> 
50
(
0.00430133
0.00765807
0.0124548
0.0169117
0.0209263
0.0245479
0.0278348
0.0308332
0.0351633
0.0400151
0.0440614
0.0474336
0.0502346
0.0525494
0.0544504
0.0559999
0.0572528
0.0582568
0.059054
0.059681
0.0601693
0.0605458
0.0608332
0.0610506
0.0612134
0.0613342
0.061423
0.0614878
0.0615345
0.0615681
0.0615919
0.0616087
0.0616205
0.0616287
0.0616344
0.0616383
0.0616409
0.0616427
0.0616439
0.0616447
0.0616453
0.0616456
0.0616458
0.061646
0.0616461
0.0616462
0.0616462
0.0616462
0.0616462
0.0616462
)
;
    }
    rightWall
    {
        type            epsilonWallFunction;
        blending        stepwise;
        value           nonuniform List<scalar> 
50
(
0.00468931
0.00750667
0.0119773
0.0161574
0.0199343
0.023343
0.0264348
0.0292529
0.0333185
0.0378681
0.0416583
0.0448151
0.0474371
0.0496049
0.0513869
0.0528417
0.0540203
0.0549672
0.0557214
0.0563166
0.056782
0.0571424
0.0574189
0.057629
0.0577872
0.0579052
0.0579925
0.0580564
0.0581029
0.0581364
0.0581604
0.0581774
0.0581894
0.0581978
0.0582036
0.0582076
0.0582103
0.0582122
0.0582135
0.0582143
0.0582149
0.0582153
0.0582155
0.0582157
0.0582158
0.0582158
0.0582159
0.0582159
0.0582159
0.0582159
)
;
    }
    lowerWall
    {
        type            epsilonWallFunction;
        blending        stepwise;
        value           nonuniform List<scalar> 
62
(
0.00430133
0.0190683
0.0318546
0.0424671
0.0513405
0.0587758
0.0649839
0.0701206
0.0743048
0.077627
0.0801535
0.0819269
0.0829635
0.083248
0.0827228
0.0812704
0.0786824
0.0746099
0.0684844
0.0594227
0.0462024
0.0276551
0.00508682
0.00508682
0.010197
0.0178295
0.0255957
0.0338281
0.0439164
0.0607061
0.104715
0.129974
0.101863
0.101561
0.128399
0.00551976
0.00984177
0.016955
0.0242493
0.0320634
0.0418302
0.0583073
0.0996027
0.00551976
0.0301245
0.0493175
0.0622164
0.0704846
0.0755941
0.0785003
0.079763
0.0796926
0.078446
0.0760829
0.0725956
0.0679244
0.0619619
0.0545487
0.0454567
0.0343521
0.0207449
0.00468931
)
;
    }
    atmosphere
    {
        type            inletOutlet;
        inletValue      uniform 0.1;
        value           nonuniform List<scalar> 
46
(
0.0616462
0.0337088
0.0293521
0.028097
0.0277168
0.0276605
0.0277335
0.0278545
0.0279868
0.0281136
0.0282279
0.0283272
0.0284117
0.0284824
0.0285409
0.0285888
0.0286277
0.0286587
0.0286831
0.0287016
0.028715
0.0287238
0.0287281
0.0287282
0.0287274
0.0287255
0.0287225
0.028716
0.028701
0.0286796
0.0286508
0.0286134
0.0285657
0.0285058
0.0284314
0.0283402
0.0282304
0.0281018
0.0279574
0.0278083
0.0276828
0.0276488
0.027877
0.0288639
0.0326446
0.0582159
)
;
    }
    defaultFaces
    {
        type            empty;
    }
}


// ************************************************************************* //
