/*--------------------------------*- C++ -*----------------------------------*\
| =========                 |                                                 |
| \\      /  F ield         | OpenFOAM: The Open Source CFD Toolbox           |
|  \\    /   O peration     | Version:  2406                                  |
|   \\  /    A nd           | Website:  www.openfoam.com                      |
|    \\/     M anipulation  |                                                 |
\*---------------------------------------------------------------------------*/
FoamFile
{
    version     2.0;
    format      ascii;
    arch        "LSB;label=32;scalar=64";
    class       volScalarField;
    location    "0.9";
    object      epsilon;
}
// * * * * * * * * * * * * * * * * * * * * * * * * * * * * * * * * * * * * * //

dimensions      [0 2 -3 0 0 0 0];

internalField   nonuniform List<scalar> 
2268
(
3.11056
4.22461
4.22461
4.22461
4.22461
4.22461
4.22461
4.22461
4.22461
4.22461
4.22461
4.22461
4.22461
0.0819788
0.0137615
0.0219353
0.0280747
0.0316201
0.0327041
0.0310627
0.0261002
0.0170466
0.00392319
1.99652
3.53904
3.87395
3.99094
4.04704
4.07915
4.09939
4.11284
4.12192
4.12796
4.13166
4.13343
4.13343
0.0883848
0.0142121
0.0151542
0.0176419
0.0192272
0.0196756
0.0188278
0.0164436
0.0123028
0.00702912
1.99652
3.12319
3.57196
3.77087
3.87484
3.93634
3.9757
4.00204
4.01993
4.03183
4.03915
4.04265
4.04265
0.0912558
0.0171935
0.0157592
0.0172264
0.0183407
0.0186597
0.0180224
0.016293
0.0134602
0.0115577
1.99652
2.85875
3.32579
3.572
3.71211
3.79847
3.85492
3.89313
3.91926
3.93673
3.9475
3.95264
3.95264
0.0963846
0.020096
0.0172458
0.0181241
0.0189892
0.0192664
0.018791
0.0175
0.0155277
0.0159868
1.99652
2.68257
3.12893
3.39683
3.5614
3.66728
3.73821
3.78692
3.82053
3.84313
3.8571
3.86379
3.86379
0.101532
0.0227642
0.0188991
0.0193515
0.0200435
0.0203158
0.0200112
0.0191485
0.0180388
0.0206943
1.99652
2.55993
2.97193
3.24473
3.4238
3.5439
3.62646
3.68409
3.72426
3.75145
3.76833
3.77643
3.77643
0.106496
0.0252198
0.0205249
0.0206294
0.0211838
0.0214709
0.0213533
0.0209635
0.0209568
0.0266799
1.99652
2.47111
2.84601
3.11357
3.29937
3.4289
3.52027
3.58515
3.63089
3.66208
3.68153
3.69088
3.69088
0.111301
0.0274937
0.0220393
0.0218291
0.0222608
0.0225704
0.0226447
0.0227622
0.0242801
0.0371112
1.99652
2.40455
2.74408
3.00067
3.1875
3.32243
3.42001
3.4905
3.54077
3.57532
3.59698
3.60742
3.60742
0.115981
0.0295956
0.0233852
0.0228671
0.0231796
0.0235086
0.0237552
0.0243204
0.0275755
0.064575
0.00475783
0.0231594
0.0368365
0.04596
0.0518686
0.0556103
0.0578343
0.05891
0.0590357
0.0583077
0.0567571
0.0543706
0.0510992
0.046861
0.041535
0.0349423
0.0268056
0.0166729
0.0042334
0.00804043
0.0155755
0.0216446
0.0258502
0.0286435
0.0304441
0.0315318
0.0320748
0.0321671
0.0318548
0.0311507
0.0300435
0.0285016
0.0264745
0.023891
0.0206548
0.0166422
0.011749
0.00643695
0.0134513
0.0164802
0.0205888
0.0236246
0.0257221
0.0271097
0.0279628
0.0283969
0.0284802
0.0282467
0.0277043
0.0268405
0.0256256
0.0240136
0.0219434
0.0193418
0.0161454
0.0124318
0.00997182
0.0189301
0.0186759
0.0215296
0.0238674
0.0255755
0.0267441
0.0274766
0.0278532
0.0279253
0.0277191
0.0272389
0.0264709
0.0253853
0.023938
0.0220735
0.0197344
0.0169009
0.0137835
0.0132333
0.0248463
0.0214219
0.0230723
0.0248016
0.0261897
0.0271846
0.0278226
0.028152
0.0282093
0.0280131
0.0275644
0.0268478
0.0258335
0.024479
0.022734
0.0205547
0.0179561
0.0152529
0.0162047
0.032344
0.024559
0.0247977
0.0259235
0.0270123
0.0278468
0.028397
0.0286807
0.0287196
0.0285252
0.0280949
0.027412
0.0264468
0.0251589
0.0235036
0.0214502
0.0190437
0.0166865
0.0189547
0.0449833
0.0279609
0.0264576
0.0269961
0.027804
0.0284857
0.0289501
0.0291874
0.0292053
0.0290081
0.0285898
0.0279326
0.0270076
0.0257769
0.0242025
0.022267
0.0200439
0.0180181
0.0215477
0.0757869
0.0310552
0.0278118
0.0278691
0.0284303
0.0289694
0.0293503
0.0295406
0.0295357
0.0293329
0.0289233
0.0282882
0.0273999
0.0262244
0.0247309
0.0229164
0.0208836
0.0192045
0.024026
1.99652
2.32441
2.61366
2.8485
3.03072
3.169
3.2727
3.34956
3.40536
3.44418
3.4687
3.48057
3.48057
0.123081
0.0325781
0.0251528
0.0241548
0.0242815
0.0246266
0.0250744
0.0259712
0.028611
0.0379574
1.99652
2.25444
2.49121
2.69467
2.86184
2.99523
3.0994
3.17909
3.23832
3.28021
3.30697
3.32001
3.32001
0.131744
0.0361872
0.0273936
0.0258776
0.0258001
0.0261252
0.0266598
0.0275624
0.0293401
0.0329809
1.99652
2.20583
2.40242
2.57749
2.7271
2.85097
2.95086
3.0293
3.0888
3.13152
3.1591
3.17262
3.17262
0.139466
0.0393917
0.0294492
0.0275155
0.0272664
0.0275434
0.0280755
0.0288864
0.0301558
0.0321086
1.99652
2.17008
2.33539
2.48606
2.61836
2.73094
2.824
2.89864
2.95624
2.99815
3.02544
3.03889
3.03889
0.146355
0.0422292
0.0312762
0.0289871
0.0285871
0.028804
0.029304
0.0300337
0.0310533
0.0324493
1.99652
2.14268
2.28314
2.41317
2.52957
2.63062
2.71575
2.7852
2.83955
2.87952
2.90577
2.91876
2.91876
0.152485
0.0447412
0.0328795
0.030277
0.0297411
0.0298959
0.0303589
0.0310342
0.0319378
0.0331337
1.99652
2.12104
2.24142
2.35407
2.4563
2.54637
2.62337
2.68701
2.73739
2.77478
2.79948
2.81177
2.81177
0.157911
0.0469592
0.0342757
0.0313921
0.0307331
0.0308283
0.0312567
0.0318966
0.0327451
0.0338615
1.99652
2.10357
2.2075
2.3055
2.39531
2.47532
2.54448
2.60223
2.64836
2.68285
2.70575
2.71718
2.71718
0.162681
0.0489092
0.0354848
0.0323482
0.0315775
0.0316173
0.0320143
0.0326294
0.0334489
0.034528
1.99652
2.08927
2.17959
2.26521
2.34424
2.41523
2.47711
2.5292
2.5711
2.60261
2.62363
2.63414
2.63414
0.166849
0.050616
0.0365277
0.0331644
0.0322928
0.0322816
0.03265
0.0332456
0.0340464
0.0351035
1.99652
2.07745
2.15641
2.23156
2.30131
2.36434
2.41963
2.46647
2.50435
2.53297
2.55212
2.56172
2.56172
0.17047
0.0521059
0.037427
0.0338613
0.0328989
0.0328408
0.0331826
0.0337607
0.0345469
0.0355875
1.99652
2.06761
2.13708
2.20339
2.26517
2.32126
2.3707
2.41279
2.44697
2.47288
2.49028
2.49901
2.49901
0.173609
0.0534084
0.0382066
0.0344608
0.0334161
0.0333143
0.0336306
0.034192
0.0349646
0.0359908
1.99652
2.05941
2.12093
2.17979
2.23479
2.28489
2.32922
2.36709
2.39795
2.42141
2.43719
2.44512
2.44512
0.176333
0.0545579
0.0388935
0.0349859
0.0338653
0.0337215
0.034012
0.0345558
0.0353146
0.0363269
1.99652
2.05259
2.10749
2.16009
2.20935
2.25435
2.29427
2.32846
2.35641
2.37769
2.39203
2.39925
2.39925
0.17872
0.0555955
0.0395184
0.0354618
0.0342678
0.0340809
0.0343435
0.0348678
0.0356114
0.0366092
1.99652
2.04696
2.09637
2.14377
2.18824
2.22893
2.26511
2.29616
2.32159
2.34099
2.35408
2.36067
2.36067
0.180859
0.0565739
0.0401185
0.0359164
0.0346453
0.0344102
0.0346403
0.0351415
0.0358673
0.0368495
1.99652
2.04236
2.08728
2.13042
2.17093
2.20806
2.24113
2.26955
2.29286
2.31067
2.3227
2.32876
2.32876
0.182869
0.0575645
0.0407399
0.0363803
0.0350191
0.0347255
0.0349156
0.0353885
0.0360931
0.0370575
1.99652
2.03868
2.08001
2.11972
2.15705
2.1913
2.22184
2.24812
2.2697
2.28619
2.29734
2.30296
2.30296
0.184927
0.058672
0.0414396
0.0368846
0.0354072
0.0350387
0.0351786
0.0356171
0.0362967
0.0372412
1.99652
2.03583
2.07438
2.11143
2.14629
2.17829
2.20685
2.23145
2.25166
2.26712
2.27758
2.28286
2.28285
0.187341
0.0600552
0.0422789
0.0374499
0.0358164
0.0353533
0.0354333
0.0358319
0.0364835
0.0374062
1.99652
2.03374
2.07026
2.10537
2.1384
2.16875
2.19585
2.21922
2.23842
2.25312
2.26306
2.26808
2.26807
0.190741
0.0619225
0.043278
0.0380564
0.0362281
0.0356587
0.0356755
0.0360333
0.0366561
0.0375565
1.99652
2.03238
2.06756
2.10139
2.13324
2.1625
2.18865
2.21119
2.22972
2.24392
2.25352
2.25837
2.25837
0.196359
0.0642255
0.0442393
0.0385789
0.0365785
0.0359254
0.0358929
0.0362172
0.0368148
0.0376945
1.99652
2.0317
2.06623
2.09943
2.13068
2.15941
2.18508
2.20721
2.22542
2.23936
2.2488
2.25355
2.25355
0.199954
0.0644887
0.044292
0.0387151
0.0367583
0.0361124
0.0360703
0.036379
0.0369595
0.037822
1.99652
2.0317
2.06622
2.09943
2.13068
2.15941
2.18508
2.20721
2.22542
2.23936
2.24879
2.25355
0.298678
0.0857174
0.0516741
0.0418308
0.0381566
0.0366941
0.0361988
0.0362014
0.0365175
0.0370913
0.0379414
0.156479
0.161842
0.166038
0.170073
0.173403
0.176165
0.178585
0.180939
0.183618
0.187331
0.193401
0.197691
0.0851853
0.0547384
0.0440966
0.0395205
0.0374254
0.0365118
0.036221
0.0362991
0.0366388
0.0372142
0.038056
0.0246448
0.031546
0.0379264
0.0427591
0.0465077
0.0495246
0.0520758
0.0543983
0.0567474
0.0594043
0.0623741
0.0632267
0.0510976
0.0438924
0.0399964
0.0378942
0.0368103
0.0363302
0.0362275
0.0363846
0.0367534
0.0373345
0.0381705
0.0225182
0.0214735
0.0251084
0.0284971
0.0313622
0.0337694
0.0358378
0.0376939
0.0394578
0.0411963
0.042748
0.0432781
0.0412349
0.0392115
0.0377712
0.0368745
0.0363922
0.036211
0.0362535
0.0364773
0.0368727
0.0374597
0.0382904
0.0280108
0.0216233
0.0234536
0.0258643
0.0281294
0.0301294
0.031881
0.0334385
0.0348545
0.0361404
0.0371991
0.0377565
0.0375327
0.0370467
0.0366027
0.0363042
0.0361661
0.0361756
0.0363187
0.0365916
0.037007
0.0375978
0.0384224
0.0328666
0.0231176
0.023855
0.0256422
0.027506
0.0292265
0.0307597
0.0321165
0.0333178
0.0343655
0.0352183
0.0357898
0.0360279
0.0360708
0.0360517
0.0360495
0.0361018
0.0362259
0.0364331
0.0367383
0.0371662
0.0377572
0.0385742
0.0368407
0.0246899
0.0247257
0.0261072
0.0276979
0.0292212
0.0305979
0.0318145
0.0328766
0.033787
0.0345341
0.035096
0.0354704
0.0357086
0.0358739
0.0360161
0.0361697
0.0363586
0.0366033
0.0369269
0.0373604
0.0379484
0.0387558
0.0401286
0.0261037
0.0256583
0.0267705
0.0281766
0.0295624
0.0308283
0.0319469
0.0329166
0.0337421
0.0344256
0.0349685
0.0353812
0.0356917
0.0359355
0.0361457
0.0363502
0.0365729
0.036837
0.037169
0.0376027
0.0381845
0.03898
0.0429196
0.0273442
0.0265481
0.0274789
0.0287628
0.0300564
0.031247
0.0322991
0.0332076
0.0339784
0.03462
0.0351427
0.0355609
0.0358952
0.0361699
0.0364095
0.0366372
0.0368752
0.0371471
0.0374805
0.0379101
0.0384831
0.0392645
0.0453994
0.028462
0.0273952
0.0282031
0.0294094
0.0306454
0.0317882
0.0327974
0.0336662
0.0344011
0.035014
0.0355187
0.0359311
0.0362695
0.0365534
0.0368031
0.0370388
0.0372814
0.037554
0.037884
0.0383066
0.0388682
0.0396331
0.0477711
0.0295406
0.0282496
0.0289735
0.0301342
0.031338
0.0324533
0.0334366
0.03428
0.034991
0.0355831
0.0360722
0.0364752
0.0368093
0.0370924
0.0373425
0.037578
0.0378189
0.0380876
0.0384112
0.0388242
0.0393723
0.0401177
0.0502796
0.0306939
0.0291973
0.0298615
0.0309977
0.032186
0.0332866
0.0342538
0.0350796
0.0357726
0.0363478
0.0368225
0.0372142
0.03754
0.0378169
0.038062
0.0382928
0.0385282
0.0387901
0.0391049
0.0395062
0.0400383
0.0407606
0.05324
0.0320769
0.0303643
0.0309781
0.032099
0.0332776
0.0343666
0.0353188
0.0361274
0.0368023
0.03736
0.0378188
0.0381966
0.0385109
0.0387781
0.0390148
0.0392375
0.0394648
0.0397176
0.0400216
0.040409
0.0409221
0.0416172
0.0570737
0.0339045
0.0319285
0.0324805
0.0335777
0.0347368
0.0358033
0.0367306
0.0375133
0.0381631
0.0386974
0.0391353
0.039495
0.0397937
0.0400476
0.0402726
0.0404847
0.0407014
0.0409431
0.0412341
0.041605
0.0420956
0.0427581
0.0623567
0.036478
0.0341371
0.0345826
0.0356189
0.0367239
0.0377379
0.0386152
0.0393523
0.0399618
0.0404614
0.0408697
0.0412045
0.0414823
0.0417186
0.0419283
0.0421269
0.0423307
0.0425589
0.0428344
0.0431858
0.0436496
0.0442735
0.0698882
0.0402229
0.0373298
0.0375646
0.0384544
0.0394339
0.0403383
0.0411225
0.0417824
0.0423286
0.0427768
0.0431434
0.0434444
0.0436946
0.0439082
0.0440988
0.0442805
0.0444686
0.0446807
0.0449378
0.0452659
0.0456981
0.0462764
0.0808136
0.0457503
0.0419669
0.0417792
0.042358
0.0430875
0.0437931
0.0444221
0.0449621
0.0454161
0.0457929
0.0461039
0.0463611
0.0465765
0.0467619
0.0469291
0.0470905
0.0472598
0.0474527
0.0476879
0.0479886
0.0483835
0.0489088
0.0968898
0.0539702
0.0486632
0.0476425
0.047623
0.0479122
0.048298
0.0486964
0.0490695
0.0494012
0.0496871
0.0499292
0.0501334
0.0503073
0.0504595
0.0505994
0.0507372
0.0508845
0.0510548
0.0512644
0.051533
0.0518846
0.0523492
0.121121
0.0663072
0.0582
0.0555765
0.0545056
0.0541049
0.054038
0.0541353
0.0543031
0.0544906
0.0546721
0.0548368
0.054982
0.05511
0.0552255
0.0553351
0.0554464
0.0555688
0.0557133
0.0558932
0.0561246
0.0564268
0.0568229
0.159449
0.0850411
0.0713795
0.0658172
0.0631032
0.0617747
0.0611678
0.060935
0.0608895
0.0609313
0.0610087
0.061096
0.0611822
0.0612638
0.0613419
0.0614199
0.0615031
0.0615982
0.0617137
0.0618599
0.0620489
0.0622954
0.0626158
0.226428
0.113311
0.0882207
0.0779262
0.073156
0.0708864
0.06981
0.0693146
0.0691039
0.0690316
0.0690247
0.0690473
0.0690824
0.0691227
0.0691662
0.0692139
0.0692689
0.0693354
0.0694194
0.0695278
0.0696694
0.0698538
0.0700916
0.371913
0.150721
0.105075
0.0898767
0.083872
0.0812854
0.0801131
0.0795666
0.0793103
0.0791929
0.0791433
0.0791271
0.0791277
0.0791376
0.0791537
0.0791756
0.0792044
0.0792424
0.079293
0.0793602
0.0794491
0.0795652
0.0797141
0.800181
0.1621
0.10905
0.0978594
0.0943469
0.0930052
0.0924267
0.0921563
0.0920228
0.0919543
0.0919184
0.0918994
0.0918898
0.091886
0.0918861
0.0918897
0.0918968
0.0919081
0.0919247
0.0919478
0.0919791
0.0920204
0.0920739
0.0839427
0.0680913
0.0702319
0.0926863
0.037976
0.0389061
0.0395111
0.0397584
0.0339702
0.0348366
0.0351452
0.0349286
0.0337411
0.0344196
0.0346397
0.0344613
0.0342646
0.0348665
0.0350464
0.034872
0.0349313
0.0354978
0.0356536
0.0354695
0.0355666
0.036112
0.0362511
0.036056
0.036121
0.0366511
0.0367777
0.0365735
0.0365882
0.0371061
0.0372228
0.0370115
0.0369769
0.0374844
0.037593
0.037376
0.0372998
0.0377981
0.0378998
0.0376779
0.0375696
0.0380594
0.0381547
0.0379284
0.0377973
0.0382791
0.0383683
0.0381376
0.0379925
0.0384662
0.0385493
0.0383141
0.0381625
0.038628
0.0387048
0.038465
0.0383134
0.0387704
0.0388407
0.0385959
0.0384492
0.0388978
0.0389615
0.0387116
0.0385732
0.0390135
0.0390708
0.0388159
0.0386879
0.0391205
0.0391717
0.0389122
0.0387961
0.0392217
0.0392674
0.0390035
0.0389009
0.0393202
0.039361
0.0390931
0.0390065
0.0394199
0.0394561
0.0391848
0.0391177
0.0395254
0.0395573
0.0392828
0.0392405
0.0396422
0.03967
0.0393926
0.0393822
0.0397775
0.0398011
0.0395212
0.0395523
0.0399406
0.03996
0.039678
0.0397635
0.0401439
0.040159
0.0398756
0.0400329
0.0404045
0.0404154
0.0401314
0.0403839
0.0407454
0.0407522
0.0404689
0.0408477
0.0411977
0.0412006
0.0409195
0.041466
0.0418026
0.0418019
0.0415252
0.0422932
0.0426141
0.0426102
0.0423403
0.0433992
0.0437018
0.0436952
0.0434351
0.0448732
0.0451548
0.0451459
0.044899
0.0468279
0.0470854
0.0470749
0.0468448
0.0494051
0.0496354
0.0496239
0.0494143
0.0527832
0.0529834
0.0529718
0.0527862
0.0571881
0.0573556
0.0573445
0.0571865
0.0629064
0.0630389
0.0630291
0.0629017
0.0703028
0.0703987
0.0703907
0.0702967
0.0798426
0.0799007
0.0798953
0.0798368
0.0921186
0.0921379
0.0921357
0.0921144
0.0417481
0.0315104
0.0290992
0.0287886
0.0290441
0.0293833
0.0296406
0.0297587
0.0297166
0.0295028
0.0291039
0.0285008
0.0276684
0.02658
0.0252178
0.0236025
0.0218851
0.0207918
0.0277707
0.0350602
0.0315816
0.0302324
0.029896
0.0299588
0.030125
0.0302579
0.0302952
0.0302063
0.0299722
0.0295754
0.028996
0.0282121
0.0272041
0.025968
0.0245492
0.0231494
0.0226595
0.0319613
0.0335154
0.0319587
0.0311772
0.0309004
0.0308756
0.0309342
0.0309777
0.0309509
0.0308212
0.030566
0.0301654
0.029599
0.0288467
0.0278941
0.0267465
0.0254664
0.0242915
0.0242367
0.0353377
0.0335324
0.0325522
0.0320152
0.0317767
0.0317035
0.0316919
0.0316708
0.0315939
0.0314299
0.031155
0.0307479
0.0301881
0.0294567
0.0285425
0.0274572
0.0262748
0.0252593
0.0255241
0.0380458
0.0340292
0.0332157
0.0327641
0.0325329
0.0324244
0.0323633
0.0322945
0.0321787
0.0319864
0.0316937
0.031279
0.0307214
0.0300028
0.0291143
0.0280715
0.0269567
0.0260538
0.0265562
0.0402089
0.0346334
0.0338564
0.0334217
0.0331792
0.0330403
0.0329418
0.0328368
0.0326903
0.0324748
0.0321665
0.0317436
0.0311851
0.0304734
0.0296008
0.0285858
0.0275164
0.0266926
0.0273733
0.0419262
0.0352111
0.034431
0.0339874
0.0337257
0.0335601
0.0334319
0.0332987
0.033128
0.0328933
0.0325712
0.0321399
0.0315782
0.0308689
0.030005
0.0290068
0.027967
0.0271983
0.0280129
0.0432791
0.0357191
0.0349258
0.0344658
0.0341836
0.0339947
0.0338427
0.033687
0.0334967
0.033246
0.0329119
0.0324721
0.0319058
0.0311956
0.0303351
0.029346
0.0283245
0.0275935
0.0285083
0.0443353
0.0361495
0.0353424
0.0348654
0.0345643
0.0343557
0.0341842
0.0340104
0.0338041
0.0335399
0.033195
0.032747
0.0321751
0.0314618
0.030601
0.0296155
0.0286043
0.0278987
0.0288878
0.0451515
0.0365083
0.0356889
0.0351967
0.0348792
0.0346539
0.0344663
0.0342777
0.0340581
0.0337825
0.0334279
0.0329721
0.0323939
0.0316761
0.0308126
0.0298272
0.028821
0.0281318
0.0291755
0.0457756
0.0368054
0.0359754
0.03547
0.0351385
0.0348992
0.0346983
0.0344973
0.0342666
0.0339811
0.0336179
0.0331546
0.03257
0.0318468
0.0309793
0.0299917
0.0289868
0.0283079
0.0293911
0.0462475
0.0370515
0.0362121
0.0356951
0.0353515
0.0351004
0.0348883
0.0346768
0.0344366
0.0341425
0.0337715
0.0333013
0.0327104
0.0319816
0.0311093
0.0301182
0.0291126
0.0284395
0.029551
0.0466004
0.0372562
0.0364079
0.0358806
0.0355264
0.0352651
0.0350433
0.0348229
0.0345744
0.0342728
0.0338949
0.0334182
0.0328214
0.0320871
0.0312098
0.0302147
0.029207
0.0285369
0.0296683
0.0468613
0.0374277
0.0365708
0.0360339
0.0356702
0.0353998
0.0351695
0.0349413
0.0346856
0.0343774
0.0339933
0.0335108
0.0329084
0.0321689
0.0312868
0.0302876
0.0292773
0.0286083
0.0297536
0.0470524
0.0375731
0.0367074
0.0361614
0.0357888
0.0355101
0.0352723
0.0350372
0.0347752
0.034461
0.0340714
0.0335836
0.0329763
0.032232
0.0313454
0.0303423
0.0293292
0.0286603
0.029815
0.0471911
0.0376981
0.0368234
0.0362684
0.0358874
0.0356011
0.0353564
0.035115
0.0348473
0.0345278
0.0341333
0.0336409
0.0330291
0.0322805
0.0313899
0.0303831
0.0293674
0.0286979
0.029859
0.0472911
0.0378075
0.0369237
0.0363596
0.0359705
0.0356769
0.0354258
0.0351787
0.0349058
0.0345816
0.0341826
0.0336861
0.0330703
0.0323179
0.0314237
0.0304138
0.0293955
0.0287252
0.0298905
0.0473632
0.0379055
0.0370123
0.0364393
0.0360421
0.0357415
0.0354843
0.0352319
0.0349542
0.0346257
0.0342227
0.0337224
0.033103
0.0323473
0.0314499
0.0304371
0.0294165
0.0287452
0.0299133
0.0474159
0.0379957
0.037093
0.036511
0.0361059
0.0357985
0.0355353
0.0352778
0.0349957
0.0346631
0.0342564
0.0337527
0.0331301
0.0323712
0.0314709
0.0304555
0.0294329
0.0287604
0.0299304
0.0474558
0.0380814
0.0371694
0.0365784
0.0361653
0.0358512
0.0355823
0.0353198
0.0350334
0.034697
0.0342868
0.0337797
0.033154
0.0323922
0.0314892
0.0304713
0.0294466
0.028773
0.0299443
0.0474884
0.038166
0.037245
0.036645
0.036224
0.0359031
0.0356286
0.0353613
0.0350706
0.0347304
0.0343168
0.0338065
0.0331777
0.0324129
0.0315071
0.0304866
0.0294598
0.0287848
0.0299572
0.047519
0.0382532
0.0373236
0.0367148
0.036286
0.0359584
0.0356781
0.035406
0.0351111
0.0347671
0.0343499
0.0338361
0.033204
0.0324361
0.0315271
0.0305038
0.0294745
0.028798
0.0299715
0.0475527
0.0383476
0.0374098
0.0367925
0.0363559
0.0360216
0.0357357
0.0354586
0.0351593
0.0348114
0.0343903
0.0338728
0.033237
0.0324653
0.0315526
0.0305258
0.0294935
0.0288151
0.02999
0.0475961
0.0384545
0.0375094
0.0368839
0.0364397
0.0360989
0.0358072
0.0355251
0.0352213
0.034869
0.0344437
0.0339219
0.0332816
0.0325053
0.031588
0.0305567
0.0295204
0.0288394
0.0300164
0.0476577
0.0385814
0.0376299
0.0369968
0.0365454
0.0361981
0.0359007
0.0356135
0.0353049
0.0349479
0.0345177
0.0339908
0.0333451
0.0325629
0.0316396
0.0306022
0.0295605
0.028876
0.0300563
0.04775
0.0387379
0.0377816
0.0371418
0.0366836
0.0363301
0.0360271
0.0357346
0.0354209
0.0350587
0.034623
0.03409
0.0334374
0.0326478
0.0317165
0.030671
0.0296218
0.0289327
0.0301183
0.0478917
0.0389374
0.0379783
0.037333
0.0368689
0.0365095
0.0362011
0.0359034
0.0355843
0.0352164
0.0347744
0.0342342
0.0335734
0.0327744
0.0318326
0.0307762
0.0297168
0.0290213
0.0302155
0.0481114
0.039198
0.0382389
0.0375899
0.0371209
0.0367564
0.036443
0.0361401
0.0358157
0.0354418
0.034993
0.0344446
0.033774
0.0329634
0.0320083
0.0309375
0.0298644
0.0291604
0.0303687
0.0484528
0.039544
0.0385888
0.0379385
0.0374662
0.0370977
0.0367799
0.0364726
0.0361431
0.0357635
0.0353076
0.0347505
0.034069
0.033245
0.0322738
0.0311849
0.030094
0.0293793
0.0306102
0.0489835
0.0400083
0.0390619
0.0384135
0.0379401
0.0375692
0.0372484
0.0369376
0.0366042
0.0362198
0.0357577
0.0351926
0.0345003
0.0336622
0.0326732
0.0315631
0.0304505
0.0297234
0.030991
0.0498063
0.0406337
0.0397025
0.0390602
0.0385887
0.0382178
0.037896
0.0375838
0.0372486
0.0368616
0.036396
0.0358254
0.035125
0.0342749
0.0332692
0.0321375
0.0310016
0.030263
0.0315901
0.0510773
0.0414763
0.040568
0.0399371
0.0394714
0.0391036
0.0387839
0.0384734
0.0381399
0.0377547
0.0372905
0.0367205
0.0360187
0.035164
0.0341487
0.0330015
0.031847
0.0311044
0.0325289
0.0530296
0.0426074
0.0417314
0.0411183
0.0406633
0.0403028
0.0399892
0.039685
0.0393586
0.0389817
0.0385273
0.0379683
0.0372783
0.0364345
0.0354273
0.0342833
0.0331288
0.0324048
0.0339899
0.0560045
0.0441175
0.0432843
0.0426966
0.0422582
0.0419103
0.0416081
0.041316
0.0410038
0.0406446
0.040212
0.0396801
0.0390227
0.0382171
0.0372521
0.0361515
0.035042
0.0343891
0.0362416
0.0604919
0.0461201
0.0453412
0.0447875
0.0443727
0.0440435
0.0437589
0.0434859
0.0431968
0.0428666
0.0424714
0.0419877
0.0413928
0.0406668
0.0398004
0.038817
0.0378433
0.037371
0.0396733
0.0671885
0.0487575
0.0480451
0.0475345
0.0471509
0.0468472
0.046587
0.046341
0.0460844
0.0457958
0.0454553
0.0450451
0.0445496
0.0439583
0.043273
0.042527
0.0418546
0.0417779
0.0448516
0.0771029
0.052208
0.0515745
0.0511169
0.0507724
0.0505013
0.0502724
0.0500607
0.0498457
0.0496105
0.0493415
0.0490294
0.0486719
0.0482786
0.0478796
0.0475455
0.0474525
0.0481815
0.052632
0.0917934
0.0566968
0.0561543
0.0557593
0.0554621
0.0552305
0.0550392
0.0548681
0.0547015
0.0545282
0.0543422
0.0541459
0.0539563
0.0538162
0.053812
0.054107
0.0550158
0.0573108
0.0643856
0.113939
0.0625096
0.0620694
0.0617467
0.0615044
0.0613185
0.0611695
0.0610428
0.0609275
0.0608183
0.060717
0.0606385
0.0606221
0.0607536
0.0612066
0.0623215
0.064762
0.0699391
0.0824458
0.148912
0.0700099
0.0696825
0.069441
0.0692609
0.0691255
0.0690216
0.0689394
0.0688729
0.0688213
0.0687923
0.0688097
0.0689295
0.0692751
0.0701139
0.0720324
0.0763551
0.0862542
0.11082
0.211366
0.079661
0.0794562
0.0793046
0.0791927
0.0791111
0.079052
0.0790104
0.0789837
0.0789736
0.0789892
0.0790539
0.0792222
0.0796185
0.0805375
0.0827223
0.0882298
0.103582
0.154375
0.378068
0.0920532
0.0919809
0.0919275
0.0918889
0.091862
0.0918446
0.0918351
0.091833
0.0918399
0.0918602
0.0919048
0.0919987
0.0922008
0.0926625
0.0938324
0.0973242
0.110759
0.192595
1.44584
)
;

boundaryField
{
    leftWall
    {
        type            epsilonWallFunction;
        blending        stepwise;
        value           nonuniform List<scalar> 
50
(
3.11056
1.99652
1.99652
1.99652
1.99652
1.99652
1.99652
1.99652
1.99652
1.99652
1.99652
1.99652
1.99652
1.99652
1.99652
1.99652
1.99652
1.99652
1.99652
1.99652
1.99652
1.99652
1.99652
1.99652
1.99652
1.99652
1.99652
1.99652
0.156479
0.0246448
0.0225182
0.0280108
0.0328666
0.0368407
0.0401286
0.0429196
0.0453994
0.0477711
0.0502796
0.05324
0.0570737
0.0623567
0.0698882
0.0808136
0.0968898
0.121121
0.159449
0.226428
0.371913
0.800181
)
;
    }
    rightWall
    {
        type            epsilonWallFunction;
        blending        stepwise;
        value           nonuniform List<scalar> 
50
(
0.0042334
0.00643695
0.00997182
0.0132333
0.0162047
0.0189547
0.0215477
0.024026
0.0277707
0.0319613
0.0353377
0.0380458
0.0402089
0.0419262
0.0432791
0.0443353
0.0451515
0.0457756
0.0462475
0.0466004
0.0468613
0.0470524
0.0471911
0.0472911
0.0473632
0.0474159
0.0474558
0.0474884
0.047519
0.0475527
0.0475961
0.0476577
0.04775
0.0478917
0.0481114
0.0484528
0.0489835
0.0498063
0.0510773
0.0530296
0.0560045
0.0604919
0.0671885
0.0771029
0.0917934
0.113939
0.148912
0.211366
0.378068
1.44584
)
;
    }
    lowerWall
    {
        type            epsilonWallFunction;
        blending        stepwise;
        value           nonuniform List<scalar> 
62
(
3.11056
4.22461
4.22461
4.22461
4.22461
4.22461
4.22461
4.22461
4.22461
4.22461
4.22461
4.22461
4.22461
0.0819788
0.0137615
0.0219353
0.0280747
0.0316201
0.0327041
0.0310627
0.0261002
0.0170466
0.00392319
0.00392319
0.00702912
0.0115577
0.0159868
0.0206943
0.0266799
0.0371112
0.064575
0.0839427
0.0680913
0.0702319
0.0926863
0.00475783
0.00804043
0.0134513
0.0189301
0.0248463
0.032344
0.0449833
0.0757869
0.00475783
0.0231594
0.0368365
0.04596
0.0518686
0.0556103
0.0578343
0.05891
0.0590357
0.0583077
0.0567571
0.0543706
0.0510992
0.046861
0.041535
0.0349423
0.0268056
0.0166729
0.0042334
)
;
    }
    atmosphere
    {
        type            inletOutlet;
        inletValue      uniform 0.1;
        value           uniform 0.1;
    }
    defaultFaces
    {
        type            empty;
    }
}


// ************************************************************************* //
