/*--------------------------------*- C++ -*----------------------------------*\
| =========                 |                                                 |
| \\      /  F ield         | OpenFOAM: The Open Source CFD Toolbox           |
|  \\    /   O peration     | Version:  2406                                  |
|   \\  /    A nd           | Website:  www.openfoam.com                      |
|    \\/     M anipulation  |                                                 |
\*---------------------------------------------------------------------------*/
FoamFile
{
    version     2.0;
    format      ascii;
    arch        "LSB;label=32;scalar=64";
    class       volScalarField;
    location    "0.9";
    object      k;
}
// * * * * * * * * * * * * * * * * * * * * * * * * * * * * * * * * * * * * * //

dimensions      [0 2 -2 0 0 0 0];

internalField   nonuniform List<scalar> 
2268
(
0.1
0.1
0.1
0.1
0.1
0.1
0.1
0.1
0.1
0.1
0.1
0.1
0.1
0.0072124
0.00210491
0.00287853
0.00340166
0.0036872
0.0037742
0.00364886
0.00324998
0.00244629
0.000918842
0.1
0.1
0.1
0.1
0.1
0.1
0.1
0.1
0.1
0.1
0.1
0.1
0.1
0.00542117
0.00470687
0.00652141
0.00763251
0.00825289
0.0084445
0.00817507
0.00731901
0.00561671
0.00223154
0.1
0.1
0.1
0.1
0.1
0.1
0.1
0.1
0.1
0.1
0.1
0.1
0.1
0.00571645
0.00634199
0.00856292
0.00993342
0.0107146
0.0109687
0.0106536
0.00961601
0.00752139
0.00311108
0.1
0.1
0.1
0.1
0.1
0.1
0.1
0.1
0.1
0.1
0.1
0.1
0.1
0.00630507
0.00763638
0.0101222
0.0116643
0.0125602
0.012874
0.0125588
0.0114426
0.00910914
0.00386479
0.1
0.1
0.1
0.1
0.1
0.1
0.1
0.1
0.1
0.1
0.1
0.1
0.1
0.00691838
0.00874024
0.011445
0.0131288
0.0141253
0.0145069
0.0142278
0.0131032
0.0106272
0.00459334
0.1
0.1
0.1
0.1
0.1
0.1
0.1
0.1
0.1
0.1
0.1
0.1
0.1
0.00753364
0.00972158
0.0126191
0.0144313
0.0155248
0.0159856
0.0157761
0.0147117
0.0122103
0.00544483
0.1
0.1
0.1
0.1
0.1
0.1
0.1
0.1
0.1
0.1
0.1
0.1
0.1
0.00815161
0.0106188
0.0136876
0.0156191
0.0168092
0.0173605
0.0172519
0.01632
0.0139735
0.00679023
0.1
0.1
0.1
0.1
0.1
0.1
0.1
0.1
0.1
0.1
0.1
0.1
0.1
0.00877481
0.0114539
0.0146728
0.0167153
0.0180015
0.0186527
0.0186703
0.0179373
0.0159955
0.00983038
0.00104899
0.00301895
0.00411554
0.0047703
0.00517066
0.00541575
0.0055582
0.00562562
0.00563208
0.00558388
0.00548242
0.00532543
0.00510731
0.0048185
0.00444374
0.00395772
0.00331415
0.00241233
0.00120877
0.00263129
0.0069486
0.0092698
0.0106767
0.011545
0.0120793
0.0123905
0.0125377
0.0125514
0.0124454
0.0122228
0.0118782
0.011399
0.0107639
0.00993881
0.00886891
0.00745717
0.00550265
0.00225595
0.00371223
0.00931171
0.0121655
0.0138889
0.0149582
0.0156192
0.0160043
0.016185
0.0161981
0.0160605
0.0157756
0.0153365
0.0147269
0.0139196
0.012872
0.0115161
0.00973467
0.00728098
0.003024
0.00466536
0.0112811
0.0144507
0.0163362
0.0175095
0.0182384
0.0186633
0.01886
0.0188679
0.0187049
0.0183741
0.0178674
0.0171657
0.016238
0.0150358
0.0134832
0.0114498
0.00865
0.00365519
0.00559563
0.0131471
0.0165014
0.0184549
0.019674
0.0204356
0.0208797
0.0210813
0.0210799
0.0208929
0.0205228
0.01996
0.0191834
0.0181588
0.0168334
0.0151251
0.0128923
0.00980908
0.00418659
0.00667371
0.0150459
0.0184444
0.0203874
0.0216079
0.0223762
0.0228241
0.0230221
0.0230076
0.0227967
0.0223906
0.0217783
0.0209369
0.0198295
0.0184
0.0165608
0.0141595
0.0108292
0.00465033
0.00831725
0.0170761
0.0203289
0.0221897
0.0233763
0.024131
0.0245704
0.0247579
0.0247269
0.0244915
0.0240514
0.0233941
0.022495
0.0213148
0.0197948
0.0178428
0.0152951
0.0117451
0.00506757
0.011776
0.0192849
0.0221597
0.0238807
0.0250074
0.0257331
0.0261545
0.0263257
0.0262755
0.0260151
0.0255425
0.0248435
0.023892
0.0226471
0.0210473
0.0189965
0.0163207
0.0125754
0.00545102
0.1
0.1
0.1
0.1
0.1
0.1
0.1
0.1
0.1
0.1
0.1
0.1
0.1
0.00976154
0.012677
0.0160981
0.0183006
0.0197347
0.0205511
0.0207903
0.020423
0.0193145
0.016997
0.1
0.1
0.1
0.1
0.1
0.1
0.1
0.1
0.1
0.1
0.1
0.1
0.1
0.0110386
0.0140912
0.0177313
0.0201288
0.0217586
0.022805
0.023353
0.0234522
0.0231464
0.0225077
0.1
0.1
0.1
0.1
0.1
0.1
0.1
0.1
0.1
0.1
0.1
0.1
0.1
0.0122486
0.0153035
0.0191229
0.0216976
0.0235107
0.0247699
0.0255868
0.0260474
0.0262473
0.0263297
0.1
0.1
0.1
0.1
0.1
0.1
0.1
0.1
0.1
0.1
0.1
0.1
0.1
0.0133897
0.0163557
0.0203185
0.0230495
0.025026
0.0264687
0.0275023
0.0282236
0.0287316
0.0291481
0.1
0.1
0.1
0.1
0.1
0.1
0.1
0.1
0.1
0.1
0.1
0.1
0.1
0.0144576
0.0172741
0.0213479
0.0242123
0.0263289
0.0279237
0.0291261
0.0300335
0.0307367
0.0313338
0.1
0.1
0.1
0.1
0.1
0.1
0.1
0.1
0.1
0.1
0.1
0.1
0.1
0.0154473
0.018076
0.0222328
0.0252083
0.0274418
0.0291599
0.0304929
0.0315349
0.0323688
0.0330769
0.1
0.1
0.1
0.1
0.1
0.1
0.1
0.1
0.1
0.1
0.1
0.1
0.1
0.016355
0.0187741
0.0229911
0.0260574
0.028387
0.0302042
0.0316381
0.0327797
0.0337056
0.0344886
0.1
0.1
0.1
0.1
0.1
0.1
0.1
0.1
0.1
0.1
0.1
0.1
0.1
0.0171792
0.0193802
0.0236388
0.0267788
0.0291867
0.0310833
0.0325956
0.0338121
0.0348051
0.0356414
0.1
0.1
0.1
0.1
0.1
0.1
0.1
0.1
0.1
0.1
0.1
0.1
0.1
0.017921
0.0199056
0.0241924
0.0273919
0.0298633
0.0318231
0.0333965
0.0346699
0.0357125
0.036588
0.1
0.1
0.1
0.1
0.1
0.1
0.1
0.1
0.1
0.1
0.1
0.1
0.1
0.0185838
0.0203631
0.0246685
0.0279162
0.0304389
0.0324487
0.0340694
0.0353856
0.0364649
0.0373689
0.1
0.1
0.1
0.1
0.1
0.1
0.1
0.1
0.1
0.1
0.1
0.1
0.1
0.0191738
0.0207666
0.0250853
0.0283724
0.030936
0.0329847
0.0346407
0.0359882
0.0370936
0.0380172
0.1
0.1
0.1
0.1
0.1
0.1
0.1
0.1
0.1
0.1
0.1
0.1
0.1
0.0197
0.0211332
0.0254632
0.0287826
0.031378
0.0334551
0.0351357
0.0365038
0.0376257
0.038561
0.1
0.1
0.1
0.1
0.1
0.1
0.1
0.1
0.1
0.1
0.1
0.1
0.1
0.0201749
0.0214837
0.0258261
0.0291717
0.0317896
0.0338842
0.0355784
0.0369566
0.0380855
0.0390245
0.1
0.1
0.1
0.1
0.1
0.1
0.1
0.1
0.1
0.1
0.1
0.1
0.1
0.0206167
0.0218463
0.0262042
0.0295685
0.0321973
0.0342968
0.035992
0.0373689
0.0384947
0.039429
0.1
0.1
0.1
0.1
0.1
0.1
0.1
0.1
0.1
0.1
0.1
0.1
0.1
0.0210545
0.0222626
0.0266374
0.0300078
0.0326307
0.0347181
0.0363988
0.037761
0.0388726
0.0397931
0.1
0.1
0.1
0.1
0.1
0.1
0.1
0.1
0.1
0.1
0.1
0.1
0.1
0.0215408
0.0227999
0.0271816
0.0305315
0.0331212
0.0351727
0.0368196
0.0381514
0.0392362
0.0401329
0.1
0.1
0.1
0.1
0.1
0.1
0.1
0.1
0.1
0.1
0.1
0.1
0.1
0.0221865
0.0235759
0.0279143
0.0311875
0.0336997
0.0356828
0.0372718
0.0385552
0.0395994
0.0404617
0.1
0.1
0.1
0.1
0.1
0.1
0.1
0.1
0.1
0.1
0.1
0.1
0.1
0.0232609
0.0247938
0.0289286
0.0320187
0.0343893
0.0362637
0.0377678
0.0389836
0.0399729
0.04079
0.1
0.1
0.1
0.1
0.1
0.1
0.1
0.1
0.1
0.1
0.1
0.1
0.1
0.0252997
0.0266826
0.0302738
0.0330351
0.0351939
0.0369194
0.0383126
0.0394426
0.0403639
0.0411257
0.1
0.1
0.1
0.1
0.1
0.1
0.1
0.1
0.1
0.1
0.1
0.1
0.0298678
0.0253736
0.0288025
0.0318056
0.034183
0.0360918
0.0376413
0.0389041
0.0399338
0.040776
0.0414741
0.018291
0.0178936
0.0185104
0.019119
0.0196127
0.0200177
0.0203748
0.0207325
0.0211593
0.0217806
0.0228814
0.0250187
0.0252631
0.0281648
0.0310154
0.0334185
0.0354076
0.0370535
0.0384141
0.039535
0.0404551
0.0412106
0.0418389
0.00522064
0.0101207
0.0130278
0.0151372
0.0167738
0.0181049
0.0192425
0.0202817
0.0213266
0.022522
0.0240902
0.0262672
0.0285997
0.0309446
0.0331066
0.0350111
0.0366518
0.0380464
0.0392193
0.0401961
0.041003
0.041668
0.0422231
0.00485453
0.0114238
0.014984
0.0175756
0.0196139
0.0212888
0.0227234
0.0240164
0.0252639
0.0265709
0.0280486
0.0297538
0.0315437
0.0333205
0.0349982
0.0365235
0.0378732
0.0390435
0.0400411
0.040879
0.0415746
0.0421494
0.0426305
0.00562358
0.0129963
0.0169188
0.0197794
0.0220541
0.023939
0.0255551
0.0269955
0.0283416
0.0296685
0.0310373
0.032469
0.0339182
0.0353404
0.0366909
0.0379348
0.0390508
0.0400294
0.0408703
0.0415801
0.0421703
0.0426582
0.0430673
0.00626654
0.014319
0.018535
0.021598
0.0240452
0.0260822
0.0278277
0.0293676
0.0307715
0.032097
0.0333862
0.0346565
0.0358976
0.0370912
0.0382156
0.0392507
0.0401819
0.0410011
0.0417065
0.0423016
0.0427955
0.0432023
0.0435432
0.00677118
0.0153999
0.0198757
0.023114
0.0257049
0.027865
0.0297125
0.0313281
0.0327737
0.0340976
0.0353347
0.0365043
0.0376107
0.03865
0.0396139
0.040493
0.0412794
0.0419683
0.0425588
0.0430541
0.0434619
0.043795
0.0440731
0.00717713
0.016293
0.0210038
0.0244043
0.0271259
0.0293958
0.0313324
0.0330135
0.0344962
0.0358245
0.0370308
0.0381364
0.0391529
0.040085
0.0409329
0.0416947
0.0423679
0.0429514
0.0434462
0.0438561
0.0441887
0.0444564
0.0446778
0.00751562
0.0170539
0.0219834
0.0255408
0.0283897
0.0307651
0.0327868
0.0345307
0.0360518
0.0373919
0.038583
0.0396486
0.0406045
0.041461
0.0422241
0.0428971
0.043482
0.0439809
0.0443969
0.044735
0.0450033
0.045214
0.0453854
0.00781322
0.0177373
0.0228805
0.0265972
0.0295766
0.0320599
0.0341679
0.035976
0.0375385
0.0388971
0.0400845
0.041126
0.042041
0.0428436
0.0435439
0.0441492
0.0446652
0.0450965
0.0454483
0.0457269
0.0459411
0.0461032
0.0462315
0.0080961
0.0184008
0.0237667
0.027654
0.0307735
0.0333713
0.0355696
0.0374447
0.0390516
0.0404332
0.0416239
0.0426514
0.043538
0.0443009
0.0449537
0.0455068
0.0459684
0.0463457
0.0466456
0.0468755
0.047045
0.0471668
0.0472589
0.00839342
0.0191099
0.0247247
0.0288036
0.0320782
0.0347997
0.037093
0.0390366
0.0406883
0.0420937
0.0432901
0.0443082
0.0451729
0.0459047
0.0465197
0.047031
0.0474491
0.0477829
0.0480409
0.0482315
0.048365
0.0484541
0.0485169
0.00874026
0.0199435
0.0258535
0.030155
0.0336038
0.0364583
0.0388485
0.0408583
0.0425504
0.0439752
0.0451741
0.0461814
0.0470254
0.0477292
0.0483115
0.0487873
0.0491691
0.0494673
0.0496914
0.0498507
0.0499558
0.0500196
0.0500596
0.00918044
0.0209992
0.0272728
0.0318372
0.0354803
0.0384732
0.0409561
0.0430223
0.0447431
0.0461758
0.0473676
0.0483571
0.049176
0.0498502
0.0504003
0.0508434
0.051193
0.0514609
0.0516572
0.0517918
0.0518754
0.0519206
0.051944
0.00976906
0.0223973
0.0291275
0.0340012
0.0378549
0.0409823
0.0435423
0.0456442
0.0473721
0.0487929
0.0499608
0.0509195
0.051704
0.0523425
0.0528576
0.0532674
0.0535865
0.0538272
0.0540001
0.0541152
0.054183
0.0542155
0.054228
0.0105751
0.0242882
0.0315929
0.0368232
0.0408912
0.0441321
0.0467366
0.0488387
0.0505402
0.0519201
0.0530404
0.0539498
0.0546862
0.0552797
0.0557538
0.0561274
0.0564154
0.0566302
0.0567824
0.0568819
0.0569385
0.0569632
0.0569699
0.0116868
0.0268644
0.0348864
0.040509
0.0447688
0.0480739
0.0506663
0.052715
0.0543437
0.0556449
0.0566879
0.0575252
0.0581969
0.0587336
0.0591591
0.0594918
0.0597465
0.0599353
0.0600683
0.0601547
0.0602035
0.0602244
0.0602291
0.0132254
0.0303921
0.0392898
0.0453031
0.0496822
0.0529587
0.0554513
0.0573726
0.0588701
0.0600478
0.0609799
0.0617207
0.0623099
0.0627773
0.0631456
0.0634322
0.0636508
0.0638125
0.0639265
0.0640012
0.0640443
0.064064
0.0640694
0.0153817
0.0352774
0.0451872
0.0514949
0.0558313
0.0589257
0.061195
0.0628969
0.0641967
0.0652034
0.0659913
0.0666118
0.067102
0.0674887
0.0677922
0.0680278
0.0682073
0.0683404
0.0684351
0.0684984
0.0685367
0.0685564
0.0685641
0.018507
0.0422039
0.053105
0.0593994
0.0633915
0.0660785
0.0679717
0.0693539
0.0703906
0.0711837
0.0717989
0.0722804
0.072659
0.0729568
0.0731899
0.0733708
0.0735091
0.0736123
0.0736868
0.0737382
0.0737713
0.0737909
0.0738011
0.0233973
0.0524166
0.0637007
0.0692655
0.0724404
0.0744465
0.0758106
0.0767871
0.0775117
0.0780627
0.0784885
0.0788209
0.079082
0.0792871
0.0794479
0.0795729
0.0796689
0.0797414
0.0797949
0.0798333
0.0798601
0.0798782
0.0798898
0.0329261
0.0683194
0.0774996
0.0810344
0.0828436
0.083945
0.0846887
0.085223
0.0856218
0.0859266
0.0861632
0.0863486
0.0864945
0.0866095
0.0866998
0.0867705
0.0868253
0.0868673
0.0868992
0.0869233
0.0869416
0.0869557
0.0869664
0.0805887
0.0922906
0.0934243
0.0938585
0.0941561
0.0943833
0.0945593
0.0946963
0.0948036
0.0948881
0.094955
0.0950081
0.0950502
0.0950838
0.0951103
0.0951313
0.0951479
0.0951609
0.0951713
0.0951797
0.0951869
0.0951933
0.095199
0.0117698
0.0102477
0.0104675
0.0125972
0.0219557
0.0218691
0.0222019
0.0229578
0.0264861
0.0266827
0.0270118
0.0274674
0.0295032
0.0297745
0.0301001
0.0304758
0.031776
0.0320786
0.0324056
0.0327543
0.0335695
0.0338909
0.0342218
0.03456
0.0350149
0.0353499
0.0356854
0.0360197
0.0361923
0.0365375
0.0368776
0.0372108
0.037157
0.0375101
0.0378541
0.0381873
0.0379511
0.03831
0.0386569
0.0389902
0.0386082
0.0389708
0.0393193
0.0396522
0.0391565
0.0395205
0.039869
0.0402006
0.03962
0.0399831
0.0403298
0.0406586
0.0400197
0.0403792
0.0407218
0.0410461
0.0403737
0.0407267
0.0410626
0.0413804
0.0406976
0.0410408
0.0413673
0.0416761
0.0410044
0.0413344
0.0416486
0.0419459
0.0413048
0.0416181
0.041917
0.0422003
0.0416068
0.0419003
0.042181
0.0424479
0.0419167
0.0421876
0.0424478
0.0426961
0.0422394
0.0424856
0.0427233
0.0429514
0.0425793
0.0427995
0.0430137
0.0432206
0.0429418
0.0431356
0.0433257
0.043511
0.0433343
0.043502
0.0436684
0.0438323
0.0437679
0.0439106
0.0440541
0.0441973
0.0442582
0.0443775
0.0444994
0.0446231
0.044827
0.0449247
0.0450268
0.0451324
0.0455025
0.0455809
0.0456652
0.0457544
0.0463206
0.0463821
0.0464505
0.046525
0.0473241
0.047371
0.0474256
0.0474871
0.0485624
0.048597
0.0486397
0.0486899
0.0500894
0.050114
0.0501467
0.0501869
0.0519619
0.0519787
0.052003
0.0520345
0.0542377
0.0542485
0.054266
0.0542898
0.0569744
0.0569811
0.0569931
0.0570103
0.0602311
0.060235
0.0602428
0.0602542
0.0640709
0.0640732
0.0640778
0.0640844
0.0685663
0.0685679
0.0685701
0.0685729
0.0738046
0.073806
0.0738067
0.0738066
0.0798944
0.0798959
0.0798958
0.079894
0.0869712
0.0869728
0.0869723
0.0869699
0.0952021
0.0952031
0.0952029
0.0952013
0.0192914
0.0227432
0.0248871
0.0263504
0.0273589
0.0280224
0.0284045
0.0285435
0.0284595
0.0281593
0.0276376
0.026878
0.0258518
0.024516
0.0228058
0.0206195
0.0177682
0.0137528
0.00600636
0.0246276
0.0265653
0.0280768
0.0292235
0.0300559
0.0306127
0.0309226
0.0310044
0.0308674
0.0305113
0.0299264
0.0290931
0.0279803
0.026542
0.0247103
0.0223768
0.0193353
0.0150248
0.00660075
0.0283626
0.02965
0.030773
0.0316774
0.0323529
0.0328033
0.0330355
0.0330546
0.032861
0.0324482
0.0318027
0.0309016
0.0297116
0.0281843
0.0262488
0.0237906
0.0205883
0.0160319
0.0070626
0.031162
0.0321497
0.0330367
0.0337661
0.0343128
0.0346667
0.0348236
0.0347799
0.0345292
0.0340607
0.033357
0.032393
0.0311329
0.0295264
0.0274998
0.0249333
0.021593
0.0168305
0.00742387
0.03336
0.0341928
0.0349325
0.0355366
0.0359811
0.036252
0.03634
0.0362363
0.0359306
0.0354085
0.0346498
0.0336273
0.0323033
0.0306257
0.0285183
0.0258569
0.022398
0.0174638
0.00770744
0.0351286
0.0358736
0.0365177
0.0370317
0.037396
0.0375972
0.037624
0.0374653
0.037108
0.0365354
0.0357254
0.0346489
0.0332667
0.0315252
0.0293461
0.0266019
0.0230415
0.0179651
0.00792993
0.0365694
0.0372611
0.0378409
0.038289
0.0385906
0.0387339
0.0387076
0.0384994
0.0380949
0.0374757
0.0366184
0.0354924
0.0340576
0.0322589
0.0300165
0.0272003
0.0235537
0.0183603
0.00810388
0.0377504
0.0384079
0.0389429
0.039342
0.0395943
0.0396898
0.0396178
0.0393659
0.0389188
0.0382573
0.0373569
0.0361862
0.0347041
0.0328546
0.0305566
0.0276784
0.0239593
0.0186701
0.00823911
0.038721
0.0393554
0.0398581
0.04022
0.0404331
0.0404892
0.0403783
0.0400881
0.0396031
0.0389037
0.0379646
0.0367539
0.0352297
0.0333354
0.0309892
0.028058
0.0242782
0.0189114
0.00834344
0.0395198
0.0401375
0.040616
0.0409489
0.0411305
0.0411539
0.0410099
0.0406865
0.0401683
0.0394351
0.0384617
0.0372155
0.0356543
0.033721
0.0313333
0.0283572
0.0245271
0.0190978
0.00842325
0.0401781
0.0407826
0.0412419
0.0415516
0.0417074
0.0417034
0.0415313
0.0411793
0.0406319
0.0398693
0.0388657
0.0375884
0.035995
0.034028
0.031605
0.0285912
0.0247198
0.0192405
0.00848372
0.0407222
0.0413148
0.041758
0.0420484
0.0421825
0.0421555
0.0419592
0.0415825
0.04101
0.0402216
0.0391917
0.0378875
0.0362663
0.0342707
0.0318177
0.0287727
0.0248677
0.0193488
0.00852909
0.0411743
0.0417551
0.0421837
0.0424571
0.0425726
0.0425257
0.0423087
0.0419107
0.0413163
0.0405057
0.0394532
0.0381258
0.0364809
0.034461
0.0319831
0.0289124
0.0249802
0.0194302
0.00856279
0.0415537
0.0421216
0.0425358
0.0427936
0.0428925
0.0428282
0.0425932
0.0421766
0.0415635
0.0407337
0.0396617
0.0383145
0.0366495
0.0346092
0.0321107
0.029019
0.0250652
0.0194909
0.0085876
0.041877
0.04243
0.0428293
0.043072
0.0431555
0.0430755
0.0428245
0.0423918
0.0417623
0.040916
0.0398273
0.0384633
0.0367814
0.0347242
0.0322087
0.0291
0.0251289
0.0195358
0.00860571
0.0421586
0.042694
0.0430771
0.0433046
0.0433734
0.0432788
0.0430135
0.0425665
0.0419226
0.041062
0.039959
0.0385808
0.0368846
0.0348132
0.0322838
0.0291613
0.0251765
0.0195689
0.00861886
0.0424106
0.0429254
0.0432908
0.0435024
0.0435565
0.0434482
0.0431696
0.0427097
0.0420531
0.04118
0.0400646
0.0386741
0.0369659
0.0348827
0.0323416
0.0292079
0.0252123
0.0195933
0.00862842
0.0426436
0.0431345
0.0434802
0.043675
0.0437144
0.0435927
0.0433016
0.0428298
0.0421618
0.0412775
0.0401512
0.0387499
0.0370313
0.0349379
0.0323871
0.0292441
0.0252395
0.0196117
0.00863546
0.0428665
0.0433302
0.0436544
0.0438314
0.0438557
0.0437206
0.0434175
0.0429344
0.0422558
0.0413613
0.0402251
0.0388142
0.0370862
0.0349839
0.0324245
0.0292734
0.0252612
0.019626
0.00864085
0.0430869
0.0435208
0.0438216
0.0439799
0.0439885
0.0438401
0.0435251
0.0430312
0.0423424
0.0414382
0.0402926
0.0388727
0.0371359
0.0350251
0.0324577
0.0292991
0.02528
0.0196381
0.00864532
0.0433122
0.0437141
0.0439901
0.0441287
0.0441213
0.0439593
0.0436324
0.0431278
0.042429
0.0415152
0.0403604
0.0389314
0.0371858
0.0350664
0.0324908
0.0293246
0.0252984
0.0196498
0.00864954
0.0435497
0.043918
0.0441683
0.0442867
0.0442629
0.0440871
0.0437483
0.0432328
0.0425237
0.0416001
0.0404355
0.0389969
0.0372417
0.0351129
0.0325283
0.0293534
0.0253191
0.0196629
0.00865423
0.0438078
0.044142
0.0443661
0.0444639
0.0444235
0.0442338
0.0438827
0.043356
0.0426362
0.041702
0.0405268
0.0390773
0.0373111
0.0351712
0.0325756
0.02939
0.0253457
0.0196798
0.00866025
0.0440971
0.0443973
0.0445952
0.0446726
0.0446156
0.0444117
0.0440481
0.0435096
0.0427784
0.0418324
0.0406451
0.0391829
0.0374034
0.0352497
0.03264
0.0294405
0.0253827
0.0197035
0.00866877
0.0444311
0.0446982
0.0448707
0.0449279
0.0448544
0.0446364
0.0442599
0.043709
0.0429652
0.0420061
0.0408046
0.0393271
0.037531
0.0353597
0.0327315
0.0295132
0.0254366
0.0197385
0.00868147
0.0448275
0.0450631
0.0452113
0.045249
0.0451594
0.0449273
0.0445376
0.0439737
0.0432162
0.0422422
0.0410241
0.039528
0.0377111
0.0355169
0.0328641
0.0296199
0.0255168
0.0197912
0.00870083
0.0453096
0.0455158
0.0456408
0.0456601
0.0455549
0.0453089
0.044906
0.0443285
0.0435562
0.0425656
0.0413282
0.0398097
0.0379669
0.0357431
0.0330575
0.0297778
0.0256371
0.0198714
0.00873063
0.0459067
0.0460856
0.0461892
0.046191
0.0460711
0.0458117
0.0453958
0.0448046
0.0440169
0.0430082
0.041749
0.0402041
0.0383296
0.0360684
0.0333396
0.0300114
0.0258179
0.0199936
0.00877657
0.0466548
0.0468087
0.0468924
0.0468781
0.0467445
0.0464728
0.0460447
0.0454404
0.0446376
0.0436102
0.0423276
0.0407529
0.0388409
0.0365333
0.0337487
0.0303556
0.0260883
0.0201792
0.0088473
0.0475968
0.0477277
0.0477931
0.047764
0.0476181
0.0473356
0.0468972
0.0462817
0.0454655
0.0444207
0.0431147
0.0415084
0.0395542
0.0371915
0.0343372
0.0308587
0.0264903
0.0204598
0.00895573
0.0487814
0.0488912
0.0489395
0.0488971
0.0487408
0.04845
0.0480043
0.0473813
0.0465557
0.0454974
0.0441712
0.0425347
0.0405364
0.0381117
0.0351735
0.0315864
0.0270822
0.0208804
0.00912087
0.0502621
0.050352
0.0503845
0.0503303
0.050166
0.0498704
0.0494221
0.0487976
0.0479695
0.0469055
0.0455669
0.0439066
0.0418675
0.0393783
0.0363447
0.0326245
0.0279427
0.0215035
0.0093699
0.0520948
0.0521659
0.0521835
0.0521193
0.0519499
0.0516542
0.0512099
0.0505923
0.0497725
0.0487152
0.0473778
0.0457073
0.0436389
0.0410908
0.0379567
0.0340809
0.0291743
0.0224134
0.00974041
0.0543365
0.0543894
0.0543933
0.0543211
0.0541505
0.0538603
0.0534283
0.052829
0.0520317
0.0509988
0.0496831
0.0480252
0.0459498
0.043361
0.040133
0.036087
0.0309061
0.0237193
0.0102822
0.0570444
0.05708
0.0570712
0.0569936
0.0568261
0.0565485
0.0561386
0.0555709
0.0548139
0.0538279
0.0525619
0.0509493
0.0489033
0.0463092
0.0430135
0.0387989
0.0332989
0.0255613
0.0110596
0.0602769
0.0602964
0.0602768
0.0601968
0.0600374
0.0597796
0.0594027
0.0588815
0.0581848
0.0572723
0.0560902
0.0545663
0.0526018
0.0500606
0.0467523
0.0424014
0.0365554
0.0281235
0.0121559
0.0640971
0.0641023
0.0640742
0.0639953
0.0638493
0.0636191
0.0632858
0.0628262
0.0622107
0.0613999
0.0603404
0.058957
0.0571423
0.0547397
0.0515161
0.0471145
0.0409418
0.0316654
0.0136876
0.0685771
0.0685707
0.0685374
0.0684636
0.0683361
0.0681407
0.0678608
0.0674764
0.066961
0.0662793
0.0653812
0.0641946
0.0626106
0.0604606
0.057473
0.0531948
0.0468203
0.0365885
0.0158399
0.0738045
0.07379
0.0737551
0.0736907
0.0735866
0.0734318
0.073213
0.0729141
0.0725138
0.0719829
0.0712799
0.0703422
0.0690721
0.0673076
0.0647648
0.0609125
0.0546803
0.0435731
0.0189637
0.0798879
0.0798695
0.0798377
0.0797869
0.0797102
0.0795998
0.0794464
0.0792385
0.078961
0.0785934
0.0781059
0.0774534
0.0765631
0.0753082
0.0734465
0.0704621
0.065109
0.0538601
0.0239784
0.0869627
0.0869459
0.0869222
0.086889
0.0868424
0.0867779
0.0866901
0.0865724
0.0864165
0.086211
0.0859399
0.0855794
0.0850912
0.0844086
0.0833983
0.0817418
0.0784763
0.0697116
0.0353607
0.0951968
0.0951882
0.0951782
0.0951661
0.0951507
0.0951306
0.0951042
0.0950694
0.095024
0.094965
0.0948884
0.0947892
0.0946605
0.0944933
0.0942783
0.0940108
0.0936998
0.093193
0.086506
)
;

boundaryField
{
    leftWall
    {
        type            kqRWallFunction;
        value           nonuniform List<scalar> 
50
(
0.1
0.1
0.1
0.1
0.1
0.1
0.1
0.1
0.1
0.1
0.1
0.1
0.1
0.1
0.1
0.1
0.1
0.1
0.1
0.1
0.1
0.1
0.1
0.1
0.1
0.1
0.1
0.1
0.018291
0.00522064
0.00485453
0.00562358
0.00626654
0.00677118
0.00717713
0.00751562
0.00781322
0.0080961
0.00839342
0.00874026
0.00918044
0.00976906
0.0105751
0.0116868
0.0132254
0.0153817
0.018507
0.0233973
0.0329261
0.0805887
)
;
    }
    rightWall
    {
        type            kqRWallFunction;
        value           nonuniform List<scalar> 
50
(
0.00120877
0.00225595
0.003024
0.00365519
0.00418659
0.00465033
0.00506757
0.00545102
0.00600636
0.00660075
0.0070626
0.00742387
0.00770744
0.00792993
0.00810388
0.00823911
0.00834344
0.00842325
0.00848372
0.00852909
0.00856279
0.0085876
0.00860571
0.00861886
0.00862842
0.00863546
0.00864085
0.00864532
0.00864954
0.00865423
0.00866025
0.00866877
0.00868147
0.00870083
0.00873063
0.00877657
0.0088473
0.00895573
0.00912087
0.0093699
0.00974041
0.0102822
0.0110596
0.0121559
0.0136876
0.0158399
0.0189637
0.0239784
0.0353607
0.086506
)
;
    }
    lowerWall
    {
        type            kqRWallFunction;
        value           nonuniform List<scalar> 
62
(
0.1
0.1
0.1
0.1
0.1
0.1
0.1
0.1
0.1
0.1
0.1
0.1
0.1
0.0072124
0.00210491
0.00287853
0.00340166
0.0036872
0.0037742
0.00364886
0.00324998
0.00244629
0.000918842
0.000918842
0.00223154
0.00311108
0.00386479
0.00459334
0.00544483
0.00679023
0.00983038
0.0117698
0.0102477
0.0104675
0.0125972
0.00104899
0.00263129
0.00371223
0.00466536
0.00559563
0.00667371
0.00831725
0.011776
0.00104899
0.00301895
0.00411554
0.0047703
0.00517066
0.00541575
0.0055582
0.00562562
0.00563208
0.00558388
0.00548242
0.00532543
0.00510731
0.0048185
0.00444374
0.00395772
0.00331415
0.00241233
0.00120877
)
;
    }
    atmosphere
    {
        type            inletOutlet;
        inletValue      uniform 0.1;
        value           uniform 0.1;
    }
    defaultFaces
    {
        type            empty;
    }
}


// ************************************************************************* //
