/*--------------------------------*- C++ -*----------------------------------*\
| =========                 |                                                 |
| \\      /  F ield         | OpenFOAM: The Open Source CFD Toolbox           |
|  \\    /   O peration     | Version:  2406                                  |
|   \\  /    A nd           | Website:  www.openfoam.com                      |
|    \\/     M anipulation  |                                                 |
\*---------------------------------------------------------------------------*/
FoamFile
{
    version     2.0;
    format      ascii;
    arch        "LSB;label=32;scalar=64";
    class       volScalarField;
    location    "0.9";
    object      k;
}
// * * * * * * * * * * * * * * * * * * * * * * * * * * * * * * * * * * * * * //

dimensions      [0 2 -2 0 0 0 0];

internalField   nonuniform List<scalar> 
2268
(
0.00119954
0.00264745
0.00373138
0.00452366
0.00513749
0.00562608
0.00601938
0.00633627
0.00658945
0.00678779
0.00693739
0.00704216
0.00710393
0.00712231
0.00709415
0.00701236
0.00686386
0.00662573
0.00625832
0.00569314
0.00481292
0.00341639
0.00110227
0.00237044
0.00606498
0.0083445
0.0100335
0.0113495
0.0123992
0.0132446
0.0139257
0.0144697
0.0148956
0.0152168
0.0154417
0.0155744
0.0156141
0.0155543
0.0153799
0.0150638
0.0145585
0.0137827
0.0125982
0.010771
0.00790606
0.00289017
0.00328215
0.00803497
0.0108341
0.0129135
0.014543
0.0158474
0.0169005
0.0177504
0.0184301
0.0189632
0.0193661
0.0196493
0.019818
0.0198715
0.0198021
0.0195921
0.0192096
0.0185991
0.0176664
0.0162509
0.0140748
0.0106242
0.00419959
0.0040279
0.00953921
0.0126692
0.0149865
0.0168093
0.0182736
0.019459
0.0204176
0.021186
0.0217899
0.0222477
0.0225712
0.0227665
0.0228332
0.0227636
0.0225393
0.0221273
0.0214708
0.0204733
0.0189683
0.0166525
0.0128866
0.00534846
0.00464532
0.0107946
0.0141816
0.016672
0.0186339
0.0202146
0.0214976
0.0225376
0.0233731
0.0240316
0.0245326
0.0248891
0.0251079
0.0251891
0.0251257
0.0249
0.0244802
0.0238118
0.0228025
0.0212897
0.0189559
0.0150284
0.00644523
0.00516956
0.0118783
0.015485
0.0181147
0.0201862
0.0218585
0.023219
0.0243246
0.025215
0.0259189
0.0264568
0.0268425
0.0270836
0.0271812
0.0271291
0.0269116
0.0264993
0.025843
0.024859
0.0233972
0.0211447
0.0172209
0.00767478
0.00562386
0.0128302
0.016633
0.0193823
0.0215452
0.0232935
0.0247188
0.0258796
0.026817
0.0275605
0.0281314
0.0285442
0.0288074
0.0289232
0.0288869
0.0286848
0.0282919
0.0276653
0.0267334
0.0253675
0.0232881
0.019609
0.00952996
0.00602335
0.0136752
0.0176567
0.0205126
0.0227552
0.024569
0.0260502
0.0272592
0.0282381
0.0290171
0.0296183
0.030057
0.0303426
0.0304784
0.0304613
0.0302807
0.0299158
0.0293316
0.0284706
0.0272315
0.0253994
0.02229
0.0137161
0.00116334
0.00361576
0.00502479
0.00586705
0.00637535
0.00667855
0.00684685
0.00691789
0.00691127
0.00683614
0.00669498
0.0064854
0.00620053
0.00582845
0.00535007
0.00473411
0.00392433
0.00280064
0.00129798
0.00302609
0.00830498
0.0112037
0.0129565
0.0140244
0.0146658
0.0150233
0.0151744
0.0151596
0.0149982
0.0146951
0.0142449
0.0136328
0.0128331
0.011805
0.0104833
0.00875341
0.00638119
0.0025082
0.00435396
0.0110968
0.0145795
0.0166663
0.017943
0.0187135
0.0191433
0.0193221
0.0192976
0.0190919
0.0187108
0.0181471
0.0173825
0.0163854
0.0151065
0.0134674
0.0113334
0.00841706
0.00342915
0.00553153
0.0133982
0.0171773
0.0193927
0.020749
0.0215713
0.0220293
0.022215
0.0221771
0.0219381
0.0215032
0.0208641
0.0200001
0.0188762
0.0174386
0.0156024
0.0132209
0.00996061
0.00419029
0.00666816
0.015563
0.0194705
0.0216941
0.023055
0.0238837
0.0243437
0.0245228
0.0244672
0.0241981
0.0237195
0.0230216
0.0220821
0.0208638
0.0193098
0.0173309
0.0147701
0.0112456
0.00482337
0.00796658
0.0177599
0.0216231
0.0237602
0.0250721
0.0258752
0.0263183
0.0264804
0.026403
0.0261045
0.025587
0.0248396
0.0238381
0.0225439
0.0208977
0.0188065
0.0161021
0.0123543
0.00536151
0.00994802
0.0201165
0.0237046
0.0256724
0.0268951
0.0276493
0.0280612
0.0281981
0.0280949
0.0277667
0.0272133
0.0264219
0.0253671
0.0240088
0.0222857
0.0201008
0.0172742
0.0133282
0.00582779
0.0142259
0.0227016
0.0257311
0.0274667
0.0285729
0.0292615
0.0296317
0.0297367
0.0296046
0.029246
0.0286581
0.0278265
0.0267244
0.02531
0.0235204
0.0212542
0.0183193
0.0141931
0.00623762
0.00657882
0.0148571
0.019095
0.022103
0.024457
0.0263615
0.0279201
0.0291962
0.0302335
0.0310635
0.0317092
0.0321871
0.0325081
0.0326774
0.0326952
0.0325551
0.032244
0.0317396
0.031007
0.0299895
0.0285829
0.0265479
0.0231455
0.00717647
0.0161409
0.0206716
0.0238554
0.0263366
0.0283434
0.0299888
0.031341
0.0324459
0.0333365
0.0340374
0.0345667
0.0349372
0.0351573
0.0352311
0.0351585
0.0349359
0.034556
0.0340079
0.0332778
0.0323471
0.0311879
0.029756
0.00765809
0.0171808
0.0219584
0.0252943
0.0278866
0.0299826
0.0317041
0.0331233
0.0342885
0.0352346
0.0359875
0.0365669
0.0369877
0.0372608
0.0373941
0.0373928
0.0372605
0.0370002
0.0366164
0.0361173
0.0355198
0.0348567
0.0341957
0.0080496
0.0180292
0.023015
0.0264829
0.0291734
0.031349
0.0331388
0.0346187
0.0358394
0.0368372
0.0376395
0.0382675
0.0387379
0.039064
0.0392565
0.0393246
0.0392767
0.0391223
0.0388733
0.0385468
0.0381684
0.0377762
0.0374271
0.00836897
0.0187235
0.0238847
0.027467
0.0302444
0.0324917
0.0343435
0.0358791
0.0371511
0.0381974
0.0390466
0.0397214
0.0402398
0.040617
0.040866
0.0409985
0.0410261
0.0409614
0.0408193
0.0406187
0.040384
0.0401462
0.0399423
0.0086295
0.0192917
0.0246006
0.0282816
0.0311358
0.0334475
0.0353559
0.0369427
0.0382625
0.0393542
0.0402478
0.0409668
0.0415308
0.0419562
0.0422576
0.0424483
0.0425416
0.0425514
0.0424932
0.0423849
0.0422473
0.0421036
0.041978
0.00884153
0.0197558
0.0251886
0.0289547
0.0318766
0.0342461
0.0362059
0.0378398
0.0392038
0.0403379
0.041273
0.0420336
0.0426402
0.0431102
0.0434592
0.0437016
0.0438513
0.0439226
0.0439305
0.0438912
0.0438217
0.0437396
0.0436615
0.00901338
0.0201335
0.0256699
0.0295091
0.0324905
0.0349116
0.0369178
0.0385948
0.0399995
0.0411729
0.0421465
0.0429457
0.0435916
0.0441024
0.0444942
0.0447819
0.0449799
0.0451021
0.0451626
0.0451757
0.0451559
0.0451167
0.04507
0.00915187
0.0204393
0.0260622
0.0299639
0.0329971
0.035464
0.0375121
0.0392282
0.0406701
0.0418795
0.0428886
0.0437233
0.0444051
0.0449526
0.0453825
0.04571
0.045949
0.0461134
0.0462163
0.0462704
0.046288
0.04628
0.0462554
0.00926275
0.0206855
0.0263802
0.030335
0.0334133
0.0359206
0.038006
0.0397574
0.0412331
0.0424754
0.0435168
0.0443836
0.0450978
0.0456784
0.046142
0.0465039
0.0467781
0.0469777
0.047115
0.0472016
0.0472481
0.0472637
0.0472555
0.00935085
0.0208823
0.0266364
0.0306361
0.0337533
0.036296
0.0384146
0.0401975
0.0417035
0.0429754
0.044046
0.0449418
0.0456852
0.0462951
0.0467884
0.0471802
0.0474842
0.0477133
0.0478789
0.0479917
0.048061
0.0480949
0.0480991
0.00942029
0.0210385
0.0268413
0.0308789
0.0340293
0.0366028
0.0387505
0.0405614
0.0420945
0.0433929
0.0444896
0.0454113
0.0461805
0.0468163
0.0473356
0.0477532
0.0480828
0.0483366
0.0485256
0.0486598
0.0487475
0.0487957
0.0488096
0.00947456
0.0211616
0.0270041
0.0310733
0.0342521
0.0368521
0.0390252
0.0408606
0.0424176
0.0437394
0.0448592
0.0458039
0.046596
0.0472545
0.0477963
0.0482362
0.0485876
0.0488622
0.0490707
0.0492223
0.0493249
0.0493847
0.0494063
0.0095166
0.0212577
0.0271324
0.0312278
0.0344305
0.0370533
0.0392483
0.0411049
0.0426829
0.0440252
0.0451654
0.0461303
0.0469422
0.0476205
0.0481819
0.048641
0.0490108
0.049303
0.0495278
0.0496938
0.0498085
0.0498777
0.0499054
0.00954886
0.0213321
0.0272328
0.0313497
0.0345724
0.0372144
0.0394281
0.0413032
0.0428992
0.0442595
0.0454173
0.0463997
0.047229
0.0479244
0.0485026
0.048978
0.0493636
0.0496705
0.0499088
0.0500868
0.0502115
0.0502883
0.0503209
0.0095734
0.0213893
0.0273106
0.0314452
0.0346845
0.0373426
0.0395722
0.0414629
0.0430745
0.0444501
0.0456232
0.0466207
0.0474649
0.048175
0.0487675
0.0492568
0.0496556
0.0499751
0.0502247
0.0504126
0.0505454
0.0506284
0.0506651
0.0095919
0.0214328
0.0273705
0.0315193
0.0347722
0.0374437
0.0396867
0.0415906
0.0432154
0.0446041
0.0457902
0.0468005
0.0476575
0.0483801
0.0489848
0.0494859
0.0498959
0.0502257
0.0504847
0.0506808
0.0508204
0.0509085
0.0509484
0.00960572
0.0214657
0.0274162
0.0315764
0.0348404
0.037523
0.0397769
0.041692
0.0433278
0.0447276
0.0459247
0.0469459
0.0478137
0.0485468
0.0491618
0.0496728
0.0500921
0.0504306
0.0506974
0.0509002
0.0510454
0.0511377
0.0511802
0.00961595
0.0214903
0.0274508
0.03162
0.034893
0.0375845
0.0398476
0.0417718
0.0434168
0.0448258
0.0460321
0.0470625
0.0479393
0.0486813
0.0493048
0.049824
0.0502512
0.0505968
0.0508701
0.0510785
0.0512282
0.0513239
0.0513685
0.00962347
0.0215086
0.0274768
0.0316531
0.0349332
0.037632
0.0399024
0.0418341
0.0434867
0.0449034
0.0461173
0.0471553
0.0480395
0.0487889
0.0494196
0.0499456
0.0503792
0.0507307
0.0510093
0.0512222
0.0513757
0.0514741
0.0515205
0.00962894
0.021522
0.0274961
0.031678
0.0349637
0.0376683
0.0399447
0.0418825
0.0435412
0.0449641
0.0461843
0.0472285
0.0481189
0.0488744
0.0495109
0.0500425
0.0504813
0.0508377
0.0511206
0.0513373
0.0514938
0.0515944
0.0516422
0.00963289
0.0215318
0.0275104
0.0316965
0.0349867
0.0376959
0.039977
0.0419196
0.0435834
0.0450113
0.0462366
0.0472859
0.0481813
0.0489417
0.049583
0.0501192
0.0505623
0.0509226
0.051209
0.0514287
0.0515876
0.05169
0.051739
0.00963572
0.021539
0.0275208
0.0317103
0.0350038
0.0377166
0.0400015
0.041948
0.0436157
0.0450477
0.046277
0.0473304
0.04823
0.0489943
0.0496395
0.0501794
0.0506259
0.0509894
0.0512786
0.0515007
0.0516616
0.0517655
0.0518153
0.00963773
0.0215441
0.0275285
0.0317204
0.0350166
0.0377321
0.0400199
0.0419694
0.0436403
0.0450755
0.0463081
0.0473648
0.0482676
0.0490351
0.0496834
0.0502262
0.0506755
0.0510416
0.051333
0.0515571
0.0517195
0.0518245
0.051875
0.00963916
0.0215478
0.027534
0.0317278
0.0350259
0.0377436
0.0400336
0.0419856
0.0436589
0.0450966
0.0463318
0.047391
0.0482964
0.0490664
0.0497172
0.0502624
0.0507139
0.0510819
0.0513752
0.0516008
0.0517644
0.0518703
0.0519214
0.00964015
0.0215504
0.0275379
0.0317331
0.0350328
0.0377521
0.0400438
0.0419976
0.0436728
0.0451125
0.0463497
0.0474109
0.0483183
0.0490904
0.049743
0.0502901
0.0507433
0.051113
0.0514076
0.0516344
0.051799
0.0519056
0.0519571
0.00964085
0.0215522
0.0275407
0.0317369
0.0350377
0.0377582
0.0400513
0.0420065
0.0436831
0.0451243
0.0463631
0.0474259
0.0483349
0.0491085
0.0497627
0.0503111
0.0507657
0.0511366
0.0514323
0.05166
0.0518254
0.0519326
0.0519844
0.00964133
0.0215535
0.0275427
0.0317397
0.0350413
0.0377627
0.0400568
0.042013
0.0436908
0.0451331
0.0463731
0.0474371
0.0483473
0.0491221
0.0497774
0.050327
0.0507826
0.0511545
0.0514511
0.0516795
0.0518454
0.051953
0.0520051
0.00964166
0.0215543
0.0275441
0.0317416
0.0350438
0.0377659
0.0400607
0.0420177
0.0436964
0.0451396
0.0463804
0.0474454
0.0483565
0.0491322
0.0497884
0.0503389
0.0507953
0.0511679
0.0514651
0.0516941
0.0518605
0.0519684
0.0520207
0.00964188
0.021555
0.0275451
0.031743
0.0350456
0.0377682
0.0400636
0.0420212
0.0437004
0.0451443
0.0463858
0.0474515
0.0483633
0.0491397
0.0497966
0.0503477
0.0508048
0.0511779
0.0514756
0.051705
0.0518717
0.0519799
0.0520323
0.00964203
0.0215554
0.0275457
0.0317439
0.0350469
0.0377699
0.0400656
0.0420236
0.0437034
0.0451477
0.0463898
0.047456
0.0483683
0.0491452
0.0498026
0.0503542
0.0508117
0.0511852
0.0514833
0.0517131
0.05188
0.0519884
0.0520409
0.00964214
0.0215557
0.0275462
0.0317446
0.0350478
0.037771
0.040067
0.0420254
0.0437055
0.0451502
0.0463926
0.0474592
0.0483719
0.0491492
0.049807
0.0503589
0.0508168
0.0511907
0.051489
0.051719
0.0518861
0.0519946
0.0520472
0.0096422
0.0215559
0.0275465
0.0317451
0.0350484
0.0377718
0.0400681
0.0420266
0.043707
0.0451519
0.0463946
0.0474615
0.0483745
0.0491521
0.0498102
0.0503624
0.0508205
0.0511946
0.0514932
0.0517233
0.0518906
0.0519992
0.0520519
0.00964225
0.021556
0.0275467
0.0317454
0.0350489
0.0377724
0.0400688
0.0420275
0.043708
0.0451532
0.0463961
0.0474632
0.0483764
0.0491542
0.0498125
0.0503649
0.0508232
0.0511974
0.0514962
0.0517264
0.0518938
0.0520025
0.0520552
0.00964228
0.0215561
0.0275469
0.0317456
0.0350492
0.0377728
0.0400693
0.0420281
0.0437088
0.0451541
0.0463971
0.0474643
0.0483777
0.0491557
0.0498141
0.0503666
0.0508251
0.0511995
0.0514983
0.0517287
0.0518961
0.0520048
0.0520576
0.0096423
0.0215561
0.027547
0.0317457
0.0350494
0.0377731
0.0400696
0.0420286
0.0437093
0.0451547
0.0463978
0.0474652
0.0483786
0.0491567
0.0498152
0.0503679
0.0508264
0.0512009
0.0514998
0.0517302
0.0518978
0.0520065
0.0520593
0.00964231
0.0215562
0.0275471
0.0317458
0.0350495
0.0377732
0.0400698
0.0420288
0.0437096
0.0451551
0.0463983
0.0474657
0.0483793
0.0491574
0.0498161
0.0503688
0.0508274
0.0512019
0.0515009
0.0517314
0.0518989
0.0520077
0.0520605
0.00964232
0.0215562
0.0275471
0.0317459
0.0350496
0.0377734
0.04007
0.042029
0.0437099
0.0451554
0.0463987
0.0474661
0.0483797
0.0491579
0.0498166
0.0503694
0.050828
0.0512026
0.0515016
0.0517321
0.0518997
0.0520085
0.0520613
0.00964233
0.0215562
0.0275471
0.0317459
0.0350496
0.0377734
0.0400701
0.0420292
0.04371
0.0451556
0.0463989
0.0474664
0.04838
0.0491583
0.049817
0.0503698
0.0508285
0.0512031
0.0515021
0.0517327
0.0519002
0.0520091
0.0520619
0.00964233
0.0215562
0.0275471
0.031746
0.0350497
0.0377735
0.0400702
0.0420293
0.0437101
0.0451557
0.046399
0.0474666
0.0483802
0.0491585
0.0498172
0.0503701
0.0508288
0.0512034
0.0515025
0.051733
0.0519006
0.0520094
0.0520622
0.00964233
0.0215562
0.0275472
0.031746
0.0350497
0.0377735
0.0400702
0.0420293
0.0437102
0.0451558
0.0463991
0.0474667
0.0483803
0.0491586
0.0498174
0.0503702
0.050829
0.0512036
0.0515027
0.0517332
0.0519008
0.0520096
0.0520624
0.00964233
0.0215562
0.0275472
0.031746
0.0350497
0.0377735
0.0400702
0.0420293
0.0437102
0.0451558
0.0463992
0.0474667
0.0483804
0.0491587
0.0498175
0.0503703
0.050829
0.0512037
0.0515028
0.0517333
0.0519009
0.0520097
0.0520625
0.0159102
0.0135282
0.0135008
0.015779
0.0285193
0.0280104
0.0279899
0.0284583
0.0338251
0.0336775
0.03366
0.0337732
0.0372595
0.0371933
0.037176
0.0372076
0.0398459
0.0398051
0.0397874
0.0397926
0.0419145
0.0418846
0.0418663
0.0418595
0.0436163
0.0435922
0.0435733
0.0435594
0.0450364
0.0450158
0.0449962
0.0449776
0.0462297
0.0462114
0.0461911
0.046169
0.0472354
0.0472186
0.0471977
0.0471728
0.0480832
0.0480674
0.048046
0.0480189
0.0487969
0.0487818
0.0487599
0.048731
0.0493959
0.0493815
0.0493591
0.0493286
0.049897
0.0498829
0.04986
0.0498283
0.050314
0.0503002
0.050277
0.0502442
0.0506593
0.0506457
0.0506222
0.0505885
0.0509436
0.0509302
0.0509063
0.0508718
0.0511761
0.0511628
0.0511387
0.0511035
0.0513651
0.0513518
0.0513274
0.0512918
0.0515175
0.0515043
0.0514797
0.0514436
0.0516396
0.0516264
0.0516017
0.0515652
0.0517366
0.0517235
0.0516986
0.0516618
0.0518132
0.0518001
0.051775
0.051738
0.0518731
0.05186
0.0518349
0.0517976
0.0519196
0.0519065
0.0518813
0.0518439
0.0519554
0.0519423
0.0519171
0.0518795
0.0519828
0.0519697
0.0519444
0.0519068
0.0520036
0.0519905
0.0519651
0.0519274
0.0520192
0.0520061
0.0519807
0.0519429
0.0520309
0.0520177
0.0519923
0.0519545
0.0520395
0.0520264
0.052001
0.0519631
0.0520458
0.0520327
0.0520073
0.0519694
0.0520505
0.0520374
0.0520119
0.051974
0.0520538
0.0520407
0.0520152
0.0519773
0.0520562
0.0520431
0.0520176
0.0519797
0.0520579
0.0520448
0.0520193
0.0519814
0.0520591
0.052046
0.0520205
0.0519826
0.0520599
0.0520468
0.0520213
0.0519834
0.0520605
0.0520474
0.0520219
0.0519839
0.0520608
0.0520477
0.0520222
0.0519843
0.052061
0.0520479
0.0520224
0.0519845
0.0520611
0.052048
0.0520225
0.0519845
0.0233158
0.026754
0.0287693
0.0301077
0.0310096
0.0315793
0.0318723
0.0319201
0.0317385
0.0313311
0.030691
0.0298007
0.0286311
0.0271383
0.0252562
0.0228765
0.0197878
0.0154031
0.00680712
0.0297343
0.0312125
0.0323688
0.0332477
0.0338756
0.0342697
0.0344418
0.034399
0.0341423
0.033666
0.0329572
0.0319943
0.030745
0.0291623
0.0271751
0.0246658
0.0213994
0.0167184
0.00741932
0.0341173
0.0347803
0.0354251
0.0359672
0.036365
0.0365965
0.036649
0.0365132
0.0361789
0.035633
0.0348572
0.0338261
0.0325042
0.0308411
0.0287612
0.0261379
0.0227168
0.0177843
0.00791233
0.0373303
0.0376455
0.0379956
0.0383048
0.0385224
0.0386146
0.0385576
0.0383326
0.0379224
0.0373083
0.0364678
0.035372
0.0339825
0.0322459
0.0300821
0.0273572
0.0238006
0.0186547
0.00831301
0.0398365
0.039983
0.0401575
0.0403066
0.0403868
0.0403639
0.0402105
0.0399037
0.0394219
0.0387427
0.0378403
0.0366833
0.0352306
0.0334261
0.0311859
0.0283699
0.0246947
0.0193679
0.00863992
0.0418657
0.0419184
0.0419816
0.0420184
0.0419938
0.0418769
0.0416407
0.0412606
0.0407129
0.0399727
0.0390122
0.0377975
0.0362859
0.0344186
0.0321088
0.0292113
0.0254327
0.0199525
0.00890679
0.0435437
0.0435377
0.0435257
0.043481
0.0433756
0.0431823
0.0428756
0.0424308
0.0418233
0.0410269
0.0400122
0.038744
0.0371776
0.0352526
0.0328796
0.0299094
0.0260408
0.020431
0.00912423
0.0449472
0.044901
0.0448355
0.0447298
0.0445609
0.044305
0.0439384
0.0434371
0.042776
0.0419285
0.0408641
0.0395464
0.0379297
0.0359519
0.0335219
0.0304872
0.0265405
0.0208214
0.00930074
0.0461279
0.0460527
0.045947
0.0457942
0.0455748
0.0452674
0.04485
0.0442993
0.0435907
0.0426971
0.0415874
0.0402246
0.0385619
0.0365363
0.0340551
0.0309635
0.0269494
0.0211386
0.0094433
0.0471237
0.0470262
0.0468897
0.0466997
0.0464392
0.0460891
0.0456285
0.0450351
0.0442845
0.0433496
0.0421991
0.0407954
0.0390912
0.0370227
0.0344959
0.0313544
0.0272825
0.0213949
0.00955773
0.0479634
0.0478485
0.0476874
0.0474676
0.0471736
0.0467877
0.0462904
0.04566
0.0448725
0.043901
0.042714
0.0412737
0.0395323
0.0374254
0.0348584
0.0316735
0.0275522
0.0216007
0.00964894
0.0486703
0.0485414
0.0483606
0.0481164
0.0477947
0.0473788
0.0468502
0.0461879
0.0453682
0.0443644
0.0431451
0.0416723
0.0398979
0.0377571
0.0351548
0.0319324
0.0277692
0.0217648
0.00972109
0.0492637
0.0491235
0.0489266
0.0486623
0.0483174
0.0478764
0.0473211
0.0466313
0.0457837
0.0447517
0.0435039
0.0420025
0.040199
0.0380286
0.0353958
0.0321411
0.0279426
0.0218947
0.00977768
0.0497598
0.0496103
0.0494001
0.0491192
0.0487551
0.0482928
0.0477149
0.0470015
0.0461298
0.0450732
0.0438007
0.0422742
0.0404455
0.0382494
0.0355902
0.0323082
0.0280801
0.0219967
0.00982171
0.0501728
0.0500156
0.0497944
0.0494997
0.0491195
0.0486393
0.0480422
0.0473087
0.0464162
0.0453385
0.0440446
0.0424964
0.0406459
0.0384277
0.0357461
0.032441
0.0281884
0.0220762
0.00985566
0.0505146
0.050351
0.0501207
0.0498145
0.0494209
0.0489257
0.0483123
0.0475617
0.0466515
0.0455558
0.0442435
0.0426768
0.0408076
0.0385707
0.0358701
0.0325457
0.028273
0.0221376
0.00988161
0.0507959
0.050627
0.0503892
0.0500735
0.0496686
0.0491608
0.0485338
0.0477687
0.0468436
0.0457324
0.0444046
0.0428222
0.0409372
0.0386845
0.0359681
0.0326277
0.0283386
0.0221847
0.00990127
0.0510259
0.0508526
0.0506085
0.0502849
0.0498707
0.0493524
0.048714
0.0479369
0.0469991
0.045875
0.044534
0.0429384
0.0410402
0.0387743
0.0360448
0.0326914
0.0283889
0.0222204
0.00991603
0.0512128
0.0510358
0.0507866
0.0504564
0.0500345
0.0495075
0.0488596
0.0480724
0.0471241
0.0459892
0.0446373
0.0430307
0.0411215
0.0388446
0.0361044
0.0327404
0.0284274
0.0222474
0.00992703
0.0513634
0.0511835
0.05093
0.0505945
0.0501662
0.049632
0.0489763
0.0481807
0.0472237
0.04608
0.0447189
0.0431033
0.041185
0.0388993
0.0361504
0.0327778
0.0284564
0.0222675
0.00993514
0.0514841
0.0513017
0.0510447
0.0507048
0.0502713
0.0497313
0.0490691
0.0482667
0.0473026
0.0461515
0.044783
0.04316
0.0412344
0.0389415
0.0361855
0.0328062
0.0284782
0.0222824
0.00994108
0.0515799
0.0513955
0.0511357
0.0507923
0.0503546
0.0498097
0.0491424
0.0483344
0.0473645
0.0462074
0.044833
0.0432039
0.0412724
0.0389737
0.0362122
0.0328276
0.0284944
0.0222934
0.0099454
0.0516554
0.0514695
0.0512074
0.0508611
0.05042
0.0498713
0.0491997
0.0483872
0.0474126
0.0462508
0.0448715
0.0432376
0.0413014
0.0389982
0.0362323
0.0328435
0.0285064
0.0223014
0.00994851
0.0517145
0.0515273
0.0512634
0.0509148
0.0504709
0.0499192
0.0492442
0.0484281
0.0474498
0.0462841
0.044901
0.0432633
0.0413234
0.0390166
0.0362473
0.0328553
0.0285151
0.0223072
0.00995073
0.0517604
0.0515721
0.0513068
0.0509563
0.0505103
0.0499561
0.0492785
0.0484596
0.0474783
0.0463096
0.0449235
0.0432828
0.04134
0.0390304
0.0362584
0.032864
0.0285215
0.0223114
0.00995231
0.0517957
0.0516066
0.0513402
0.0509883
0.0505406
0.0499844
0.0493047
0.0484835
0.0474999
0.0463289
0.0449404
0.0432974
0.0413523
0.0390406
0.0362666
0.0328703
0.0285261
0.0223143
0.00995342
0.0518227
0.051633
0.0513656
0.0510126
0.0505636
0.0500059
0.0493246
0.0485017
0.0475162
0.0463434
0.044953
0.0433082
0.0413614
0.0390481
0.0362726
0.0328748
0.0285294
0.0223164
0.0099542
0.0518431
0.0516529
0.0513849
0.051031
0.0505809
0.0500221
0.0493395
0.0485153
0.0475284
0.0463541
0.0449624
0.0433162
0.0413681
0.0390535
0.0362769
0.0328781
0.0285318
0.0223179
0.00995474
0.0518585
0.0516679
0.0513994
0.0510448
0.0505939
0.0500342
0.0493506
0.0485254
0.0475375
0.0463621
0.0449693
0.0433221
0.041373
0.0390575
0.03628
0.0328805
0.0285334
0.022319
0.00995511
0.05187
0.0516791
0.0514101
0.051055
0.0506036
0.0500432
0.0493589
0.0485328
0.0475441
0.046368
0.0449744
0.0433264
0.0413766
0.0390603
0.0362822
0.0328821
0.0285346
0.0223197
0.00995537
0.0518785
0.0516874
0.0514181
0.0510626
0.0506107
0.0500498
0.0493649
0.0485383
0.047549
0.0463722
0.044978
0.0433295
0.0413791
0.0390624
0.0362838
0.0328833
0.0285354
0.0223202
0.00995554
0.0518847
0.0516934
0.0514239
0.0510682
0.0506159
0.0500546
0.0493693
0.0485423
0.0475525
0.0463753
0.0449807
0.0433317
0.0413809
0.0390638
0.0362849
0.0328841
0.0285359
0.0223205
0.00995566
0.0518892
0.0516979
0.0514282
0.0510722
0.0506197
0.0500582
0.0493725
0.0485452
0.0475551
0.0463775
0.0449826
0.0433333
0.0413822
0.0390648
0.0362857
0.0328847
0.0285363
0.0223207
0.00995574
0.0518925
0.0517011
0.0514313
0.0510751
0.0506224
0.0500607
0.0493748
0.0485472
0.0475569
0.0463791
0.0449839
0.0433344
0.0413831
0.0390655
0.0362862
0.0328851
0.0285366
0.0223209
0.00995579
0.0518949
0.0517034
0.0514335
0.0510772
0.0506244
0.0500625
0.0493765
0.0485487
0.0475582
0.0463802
0.0449848
0.0433352
0.0413837
0.039066
0.0362866
0.0328853
0.0285368
0.022321
0.00995583
0.0518966
0.051705
0.051435
0.0510787
0.0506258
0.0500637
0.0493776
0.0485497
0.0475591
0.046381
0.0449855
0.0433357
0.0413842
0.0390664
0.0362868
0.0328855
0.0285369
0.0223211
0.00995585
0.0518977
0.0517061
0.0514361
0.0510797
0.0506267
0.0500646
0.0493784
0.0485504
0.0475597
0.0463815
0.044986
0.0433361
0.0413845
0.0390666
0.036287
0.0328856
0.028537
0.0223211
0.00995586
0.0518985
0.0517069
0.0514369
0.0510804
0.0506274
0.0500652
0.049379
0.0485509
0.0475602
0.0463819
0.0449863
0.0433363
0.0413847
0.0390668
0.0362871
0.0328857
0.028537
0.0223211
0.00995587
0.0518991
0.0517074
0.0514374
0.0510809
0.0506279
0.0500657
0.0493794
0.0485513
0.0475605
0.0463822
0.0449865
0.0433365
0.0413848
0.0390669
0.0362872
0.0328858
0.0285371
0.0223212
0.00995588
0.0518994
0.0517078
0.0514377
0.0510812
0.0506282
0.0500659
0.0493796
0.0485515
0.0475606
0.0463823
0.0449866
0.0433366
0.0413849
0.0390669
0.0362873
0.0328858
0.0285371
0.0223212
0.00995588
0.0518996
0.051708
0.0514379
0.0510814
0.0506283
0.0500661
0.0493798
0.0485516
0.0475608
0.0463824
0.0449867
0.0433367
0.041385
0.039067
0.0362873
0.0328858
0.0285371
0.0223212
0.00995589
0.0518997
0.0517081
0.051438
0.0510815
0.0506284
0.0500662
0.0493798
0.0485517
0.0475608
0.0463825
0.0449867
0.0433367
0.041385
0.039067
0.0362873
0.0328858
0.0285371
0.0223212
0.00995589
)
;

boundaryField
{
    leftWall
    {
        type            kqRWallFunction;
        value           nonuniform List<scalar> 
50
(
0.00119954
0.00237044
0.00328215
0.0040279
0.00464532
0.00516956
0.00562386
0.00602335
0.00657882
0.00717647
0.00765809
0.0080496
0.00836897
0.0086295
0.00884153
0.00901338
0.00915187
0.00926275
0.00935085
0.00942029
0.00947456
0.0095166
0.00954886
0.0095734
0.0095919
0.00960572
0.00961595
0.00962347
0.00962894
0.00963289
0.00963572
0.00963773
0.00963916
0.00964015
0.00964085
0.00964133
0.00964166
0.00964188
0.00964203
0.00964214
0.0096422
0.00964225
0.00964228
0.0096423
0.00964231
0.00964232
0.00964233
0.00964233
0.00964233
0.00964233
)
;
    }
    rightWall
    {
        type            kqRWallFunction;
        value           nonuniform List<scalar> 
50
(
0.00129798
0.0025082
0.00342915
0.00419029
0.00482337
0.00536151
0.00582779
0.00623762
0.00680712
0.00741932
0.00791233
0.00831301
0.00863992
0.00890679
0.00912423
0.00930074
0.0094433
0.00955773
0.00964894
0.00972109
0.00977768
0.00982171
0.00985566
0.00988161
0.00990127
0.00991603
0.00992703
0.00993514
0.00994108
0.0099454
0.00994851
0.00995073
0.00995231
0.00995342
0.0099542
0.00995474
0.00995511
0.00995537
0.00995554
0.00995566
0.00995574
0.00995579
0.00995583
0.00995585
0.00995586
0.00995587
0.00995588
0.00995588
0.00995589
0.00995589
)
;
    }
    lowerWall
    {
        type            kqRWallFunction;
        value           nonuniform List<scalar> 
62
(
0.00119954
0.00264745
0.00373138
0.00452366
0.00513749
0.00562608
0.00601938
0.00633627
0.00658945
0.00678779
0.00693739
0.00704216
0.00710393
0.00712231
0.00709415
0.00701236
0.00686386
0.00662573
0.00625832
0.00569314
0.00481292
0.00341639
0.00110227
0.00110227
0.00289017
0.00419959
0.00534846
0.00644523
0.00767478
0.00952996
0.0137161
0.0159102
0.0135282
0.0135008
0.015779
0.00116334
0.00302609
0.00435396
0.00553153
0.00666816
0.00796658
0.00994802
0.0142259
0.00116334
0.00361576
0.00502479
0.00586705
0.00637535
0.00667855
0.00684685
0.00691789
0.00691127
0.00683614
0.00669498
0.0064854
0.00620053
0.00582845
0.00535007
0.00473411
0.00392433
0.00280064
0.00129798
)
;
    }
    atmosphere
    {
        type            inletOutlet;
        inletValue      uniform 0.1;
        value           nonuniform List<scalar> 
46
(
0.00964233
0.0215562
0.0275472
0.031746
0.0350497
0.0377735
0.0400702
0.0420293
0.0437102
0.0451558
0.0463992
0.0474667
0.0483804
0.0491587
0.0498175
0.0503703
0.050829
0.0512037
0.0515028
0.0517333
0.0519009
0.0520097
0.0520625
0.0520611
0.052048
0.0520225
0.0519845
0.0518997
0.0517081
0.051438
0.0510815
0.0506284
0.0500662
0.0493798
0.0485517
0.0475608
0.0463825
0.0449867
0.0433367
0.041385
0.039067
0.0362873
0.0328858
0.0285371
0.0223212
0.00995589
)
;
    }
    defaultFaces
    {
        type            empty;
    }
}


// ************************************************************************* //
