/*--------------------------------*- C++ -*----------------------------------*\
| =========                 |                                                 |
| \\      /  F ield         | OpenFOAM: The Open Source CFD Toolbox           |
|  \\    /   O peration     | Version:  2406                                  |
|   \\  /    A nd           | Website:  www.openfoam.com                      |
|    \\/     M anipulation  |                                                 |
\*---------------------------------------------------------------------------*/
FoamFile
{
    version     2.0;
    format      ascii;
    arch        "LSB;label=32;scalar=64";
    class       volScalarField;
    location    "0.9";
    object      nut;
}
// * * * * * * * * * * * * * * * * * * * * * * * * * * * * * * * * * * * * * //

dimensions      [0 2 -1 0 0 0 0];

internalField   nonuniform List<scalar> 
2268
(
3.01069e-05
3.30817e-05
3.93378e-05
4.3368e-05
4.62684e-05
4.84681e-05
5.01812e-05
5.15305e-05
5.25926e-05
5.34179e-05
5.40397e-05
5.44788e-05
5.4746e-05
5.48417e-05
5.47543e-05
5.44552e-05
5.38892e-05
5.29558e-05
5.14714e-05
4.90901e-05
4.51226e-05
3.7984e-05
2.14965e-05
6.6036e-05
0.000253521
0.000338096
0.000390476
0.000427647
0.000455749
0.000477677
0.000495034
0.000508794
0.000519584
0.000527814
0.000533742
0.0005375
0.000539093
0.000538375
0.000534979
0.000528181
0.00051662
0.000497721
0.000466455
0.000412414
0.000310771
7.37253e-05
7.78434e-05
0.000427357
0.00061746
0.000737977
0.00082414
0.000889633
0.000941026
0.000981946
0.00101459
0.00104037
0.00106018
0.00107461
0.00108394
0.00108815
0.00108687
0.00107919
0.0010633
0.00103574
0.000989915
0.000913054
0.000779833
0.000537381
8.90256e-05
8.63403e-05
0.00054882
0.000835469
0.00102314
0.00115902
0.00126303
0.00134508
0.00141071
0.00146329
0.00150499
0.0015372
0.00156079
0.00157618
0.00158333
0.00158158
0.00156942
0.00154379
0.00149891
0.00142382
0.00129763
0.00108093
0.000702097
0.000100585
9.28074e-05
0.00063948
0.0010099
0.00125982
0.00144322
0.00158465
0.00169677
0.00178682
0.00185922
0.00191682
0.00196149
0.00199436
0.00201597
0.00202622
0.00202419
0.00200774
0.0019726
0.00191076
0.00180712
0.00163329
0.00133722
0.000834011
0.00011052
9.79796e-05
0.000710895
0.0011535
0.00146005
0.00168792
0.00186495
0.00200599
0.00211967
0.00221138
0.00228457
0.00234153
0.00238362
0.00241151
0.00242504
0.00242305
0.00240283
0.00235905
0.00228178
0.00215246
0.00193634
0.00156968
0.000952765
0.000120711
0.000102264
0.000769369
0.0012745
0.00163224
0.00190135
0.00211192
0.00228048
0.00241685
0.00252719
0.00261553
0.0026845
0.00273571
0.00276993
0.00278698
0.00278549
0.00276229
0.00271125
0.00262101
0.00247061
0.00222085
0.00179778
0.00107728
0.000134646
0.000105901
0.000818575
0.00137834
0.00178233
0.00208952
0.00233152
0.00252614
0.00268415
0.0028124
0.00291538
0.00299607
0.00305629
0.00309692
0.00311777
0.00311735
0.0030922
0.00303566
0.00293559
0.00277001
0.00249842
0.00204262
0.00124407
0.000161695
2.20665e-05
3.90592e-05
4.60763e-05
4.9794e-05
5.18986e-05
5.3103e-05
5.37469e-05
5.39994e-05
5.39437e-05
5.36159e-05
5.30218e-05
5.21441e-05
5.09418e-05
4.93428e-05
4.72255e-05
4.43732e-05
4.03479e-05
3.40287e-05
3.23349e-05
8.37397e-05
0.000326402
0.000425325
0.000475394
0.000502639
0.000517676
0.000525376
0.000528071
0.000526879
0.000522271
0.000514329
0.00050284
0.000487293
0.000466779
0.000439733
0.000403271
0.000351249
0.000266651
7.54257e-05
0.000100627
0.000573374
0.000811624
0.000935101
0.00100171
0.0010378
0.00105583
0.00106176
0.00105842
0.00104703
0.00102784
0.0010004
0.000963582
0.000915353
0.000852178
0.000767513
0.000647552
0.000456045
8.83602e-05
0.000113562
0.000756094
0.00113228
0.00133392
0.00144324
0.00150217
0.00153129
0.00154059
0.00153483
0.00151609
0.00148484
0.00144046
0.00138122
0.00130402
0.00120344
0.00106955
0.000881958
0.000590743
9.78049e-05
0.000124809
0.000903283
0.00140672
0.00168309
0.00183375
0.00191493
0.00195481
0.00196723
0.00195885
0.00193259
0.00188919
0.00182786
0.00174636
0.0016406
0.0015035
0.00132224
0.00107129
0.000692177
0.000105037
0.000136552
0.00103549
0.00165495
0.00199758
0.00218492
0.00228602
0.00233549
0.00235042
0.0023391
0.00230523
0.00224978
0.00217182
0.00206863
0.00193528
0.00176323
0.00153732
0.00122819
0.000772407
0.000110831
0.000152754
0.00117251
0.00189521
0.0022902
0.00250667
0.00262397
0.00268116
0.00269763
0.00268293
0.00264134
0.00257399
0.00247983
0.00235571
0.00219594
0.00199078
0.00172318
0.00136099
0.000838215
0.000115631
0.000182865
0.00135025
0.00214604
0.00257126
0.00280677
0.00293552
0.00299804
0.00301483
0.00299616
0.00294667
0.00286758
0.00275769
0.00261345
0.00242852
0.00219215
0.00188579
0.00147534
0.000893635
0.000119705
0.000110777
0.000884579
0.0015199
0.00198993
0.00235285
0.00264165
0.00287556
0.00306652
0.00322223
0.00334785
0.00344682
0.00352128
0.00357227
0.00359968
0.00360193
0.00357533
0.00351293
0.00340245
0.00322272
0.00293798
0.00249118
0.00181322
0.000927589
0.000115835
0.000952743
0.00166852
0.00221105
0.00263674
0.00297936
0.00325926
0.00348935
0.00367821
0.00383163
0.00395356
0.00404656
0.004112
0.00415005
0.00415943
0.00413698
0.00407681
0.00396907
0.00379835
0.00354231
0.0031734
0.00267156
0.00206132
0.000119791
0.00100647
0.00178721
0.00238967
0.00286842
0.00325745
0.0035777
0.00384274
0.00406168
0.00424082
0.00438454
0.00449578
0.00457632
0.00462677
0.00464653
0.00463345
0.00458351
0.00449035
0.00434514
0.00413755
0.00385984
0.00351756
0.00315106
0.000122943
0.00104978
0.00188392
0.00253646
0.00306025
0.00348932
0.00384496
0.00414112
0.0043873
0.00459019
0.00475453
0.00488365
0.00497976
0.00504404
0.00507668
0.00507678
0.00504233
0.00497027
0.00485709
0.00470039
0.00450259
0.00427765
0.00406106
0.000125483
0.00108517
0.00196367
0.00265834
0.00322052
0.00368417
0.0040708
0.00439463
0.00466544
0.00489022
0.005074
0.0052205
0.00533235
0.00541132
0.0054584
0.00547389
0.00545754
0.00540885
0.00532781
0.00521634
0.00508072
0.00493497
0.00480421
0.00012754
0.0011143
0.00202989
0.00276013
0.00335508
0.00384861
0.00426236
0.00461074
0.00490375
0.0051486
0.00535061
0.0055138
0.00564122
0.00573516
0.00579735
0.00582909
0.00583144
0.00580564
0.00575371
0.00567946
0.00558982
0.00549627
0.00541527
0.00012921
0.00113837
0.00208502
0.00284533
0.00346825
0.00398756
0.00442501
0.00479513
0.00510808
0.00537125
0.0055902
0.00576921
0.00591168
0.00602038
0.00609761
0.0061454
0.00616577
0.00616098
0.00613406
0.00608935
0.00603319
0.0059743
0.00592333
0.000130566
0.00115826
0.00213091
0.00291661
0.00356337
0.00410489
0.00456298
0.00495227
0.00528304
0.00556283
0.00579737
0.00599118
0.00614794
0.00627077
0.00636241
0.00642544
0.00646242
0.0064762
0.00647018
0.00644862
0.00641692
0.00638156
0.00634958
0.000131664
0.00117467
0.00216904
0.00297611
0.00364312
0.0042037
0.0046797
0.00508582
0.00543244
0.0057272
0.00597596
0.00618342
0.00635348
0.00648953
0.00659463
0.00667167
0.00672356
0.0067534
0.00676463
0.0067612
0.00674758
0.00672867
0.00670927
0.000132549
0.00118815
0.00220058
0.00302557
0.00370971
0.00428658
0.00477805
0.00519888
0.00555949
0.00586761
0.00612921
0.00634911
0.00653137
0.00667956
0.00679693
0.0068866
0.00695163
0.00699519
0.0070206
0.00703143
0.00703142
0.00702435
0.00701362
0.000133259
0.00119918
0.00222653
0.00306645
0.00376501
0.00435573
0.00486049
0.00529408
0.00566696
0.00598692
0.00625999
0.00649109
0.00668437
0.00684353
0.00697194
0.00707281
0.00714927
0.00720445
0.00724151
0.00726366
0.00727408
0.00727575
0.00727123
0.000133824
0.00120813
0.00224774
0.00310003
0.00381065
0.00441307
0.00492917
0.00537376
0.00575733
0.00608769
0.00637091
0.00661196
0.00681508
0.00698401
0.0071222
0.00723288
0.0073192
0.00738419
0.00743084
0.00746206
0.00748059
0.00748888
0.00748893
0.000134272
0.00121536
0.00226495
0.00312742
0.00384805
0.00446029
0.004986
0.00544001
0.0058328
0.00617221
0.00646432
0.00671413
0.00692591
0.00710345
0.0072502
0.00736941
0.00746416
0.0075374
0.00759196
0.00763049
0.00765541
0.00766882
0.00767232
0.000134624
0.00122113
0.0022788
0.00314957
0.00387846
0.00449887
0.00503268
0.00549468
0.00589537
0.00624258
0.0065424
0.00679984
0.00701918
0.00720421
0.00735838
0.00748491
0.00758684
0.007667
0.00772809
0.00777256
0.00780258
0.00781998
0.00782614
0.000134898
0.00122571
0.00228985
0.00316734
0.00390299
0.00453016
0.00507072
0.00553945
0.00594684
0.00630071
0.00660715
0.00687117
0.00709703
0.00728852
0.00744906
0.00758184
0.00768983
0.00777579
0.00784226
0.00789156
0.00792568
0.00794625
0.00795448
0.000135109
0.00122931
0.00229859
0.00318147
0.0039226
0.00455531
0.00510146
0.00557581
0.00598884
0.00634835
0.00666042
0.00693005
0.00716148
0.00735847
0.00752444
0.00766251
0.0077756
0.00786638
0.0079373
0.00799054
0.00802796
0.00805107
0.00806092
0.000135271
0.00123212
0.00230544
0.00319261
0.00393815
0.00457537
0.0051261
0.0056051
0.00602283
0.00638707
0.00670388
0.00697824
0.00721438
0.00741603
0.00758657
0.00772909
0.00784643
0.00794121
0.00801579
0.00807225
0.00811235
0.00813747
0.00814862
0.000135394
0.00123428
0.00231075
0.00320131
0.00395037
0.00459121
0.00514567
0.00562849
0.0060501
0.00641826
0.00673903
0.00701735
0.00725744
0.00746299
0.00763735
0.00778357
0.00790444
0.00800253
0.00808011
0.00813919
0.00818144
0.0082082
0.00822037
0.000135486
0.00123593
0.00231484
0.00320805
0.00395988
0.00460363
0.00516109
0.00564701
0.0060718
0.00644319
0.00676722
0.00704882
0.00729218
0.00750096
0.00767849
0.00782777
0.00795156
0.00805235
0.00813238
0.00819359
0.00823759
0.00826565
0.00827864
0.000135555
0.00123718
0.00231796
0.00321321
0.00396722
0.00461327
0.00517314
0.00566155
0.00608891
0.00646293
0.00678963
0.00707393
0.00731997
0.00753141
0.00771154
0.00786333
0.0079895
0.0080925
0.00817452
0.00823744
0.00828285
0.00831196
0.0083256
0.000135606
0.00123812
0.00232031
0.00321714
0.00397284
0.00462069
0.00518246
0.00567286
0.00610229
0.00647843
0.0068073
0.00709378
0.00734201
0.00755562
0.00773786
0.0078917
0.0080198
0.00812458
0.0082082
0.00827252
0.00831905
0.008349
0.00836315
0.000135644
0.00123882
0.00232208
0.0032201
0.00397711
0.00462635
0.00518962
0.00568159
0.00611266
0.0064905
0.00682111
0.00710934
0.00735933
0.00757469
0.00775865
0.00791413
0.00804378
0.00815001
0.00823492
0.00830034
0.00834777
0.00837838
0.00839294
0.000135671
0.00123933
0.00232339
0.00322231
0.00398031
0.00463064
0.00519507
0.00568828
0.00612063
0.00649982
0.0068318
0.00712144
0.00737284
0.0075896
0.00777492
0.00793172
0.00806261
0.00816998
0.00825592
0.00832222
0.00837036
0.00840149
0.00841638
0.000135691
0.00123971
0.00232435
0.00322395
0.00398271
0.00463386
0.00519918
0.00569335
0.00612671
0.00650695
0.00684002
0.00713077
0.00738328
0.00760115
0.00778755
0.00794539
0.00807727
0.00818555
0.0082723
0.00833929
0.008388
0.00841954
0.00843467
0.000135705
0.00123998
0.00232505
0.00322515
0.00398448
0.00463626
0.00520226
0.00569716
0.00613131
0.00651237
0.00684629
0.0071379
0.00739129
0.00761002
0.00779728
0.00795594
0.00808859
0.00819758
0.00828496
0.0083525
0.00840165
0.00843351
0.00844883
0.000135715
0.00124018
0.00232556
0.00322603
0.00398578
0.00463803
0.00520455
0.00570001
0.00613476
0.00651645
0.00685102
0.0071433
0.00739737
0.00761678
0.00780471
0.007964
0.00809726
0.00820681
0.00829468
0.00836264
0.00841213
0.00844424
0.00845971
0.000135722
0.00124032
0.00232593
0.00322667
0.00398672
0.00463932
0.00520623
0.00570212
0.00613732
0.00651949
0.00685457
0.00714737
0.00740196
0.00762189
0.00781033
0.00797012
0.00810385
0.00821382
0.00830207
0.00837036
0.00842011
0.00845241
0.008468
0.000135727
0.00124042
0.00232619
0.00322713
0.00398741
0.00464027
0.00520747
0.00570367
0.00613922
0.00652175
0.00685721
0.0071504
0.0074054
0.00762573
0.00781456
0.00797472
0.00810881
0.00821911
0.00830766
0.00837619
0.00842614
0.00845859
0.00847427
0.00013573
0.00124049
0.00232637
0.00322745
0.0039879
0.00464095
0.00520836
0.0057048
0.0061406
0.00652341
0.00685916
0.00715265
0.00740794
0.00762858
0.00781771
0.00797816
0.00811252
0.00822307
0.00831184
0.00838056
0.00843066
0.00846322
0.00847897
0.000135733
0.00124053
0.0023265
0.00322768
0.00398825
0.00464144
0.00520901
0.00570562
0.00614161
0.00652463
0.00686059
0.0071543
0.00740982
0.00763069
0.00782004
0.00798071
0.00811527
0.00822601
0.00831495
0.00838381
0.00843403
0.00846667
0.00848247
0.000135734
0.00124057
0.00232659
0.00322784
0.0039885
0.00464179
0.00520947
0.00570621
0.00614234
0.00652551
0.00686163
0.00715551
0.0074112
0.00763223
0.00782175
0.00798258
0.00811729
0.00822817
0.00831724
0.00838621
0.00843651
0.00846922
0.00848505
0.000135735
0.00124059
0.00232666
0.00322796
0.00398867
0.00464203
0.0052098
0.00570663
0.00614287
0.00652614
0.00686238
0.00715638
0.00741219
0.00763335
0.00782299
0.00798395
0.00811878
0.00822976
0.00831892
0.00838797
0.00843834
0.00847109
0.00848694
0.000135736
0.00124061
0.0023267
0.00322804
0.00398879
0.0046422
0.00521003
0.00570693
0.00614324
0.00652659
0.00686291
0.007157
0.00741291
0.00763416
0.0078239
0.00798494
0.00811985
0.00823091
0.00832014
0.00838925
0.00843966
0.00847244
0.00848832
0.000135737
0.00124062
0.00232673
0.00322809
0.00398888
0.00464232
0.00521019
0.00570714
0.0061435
0.00652691
0.0068633
0.00715745
0.00741343
0.00763474
0.00782454
0.00798565
0.00812062
0.00823174
0.00832102
0.00839017
0.00844062
0.00847343
0.00848932
0.000135737
0.00124062
0.00232675
0.00322813
0.00398893
0.00464241
0.00521031
0.00570729
0.00614369
0.00652714
0.00686357
0.00715777
0.00741379
0.00763516
0.00782501
0.00798616
0.00812118
0.00823233
0.00832165
0.00839083
0.0084413
0.00847413
0.00849003
0.000135737
0.00124063
0.00232676
0.00322815
0.00398897
0.00464247
0.00521038
0.00570739
0.00614381
0.0065273
0.00686376
0.00715799
0.00741405
0.00763545
0.00782533
0.00798652
0.00812157
0.00823276
0.00832209
0.0083913
0.00844179
0.00847463
0.00849054
0.000135737
0.00124063
0.00232677
0.00322817
0.003989
0.0046425
0.00521044
0.00570746
0.0061439
0.00652741
0.00686389
0.00715815
0.00741423
0.00763565
0.00782556
0.00798677
0.00812184
0.00823305
0.00832241
0.00839163
0.00844213
0.00847498
0.0084909
0.000135737
0.00124064
0.00232678
0.00322818
0.00398902
0.00464253
0.00521047
0.00570751
0.00614396
0.00652748
0.00686398
0.00715825
0.00741435
0.00763579
0.00782572
0.00798695
0.00812203
0.00823326
0.00832263
0.00839186
0.00844237
0.00847522
0.00849114
0.000135738
0.00124064
0.00232678
0.00322819
0.00398903
0.00464255
0.0052105
0.00570754
0.006144
0.00652753
0.00686404
0.00715833
0.00741443
0.00763589
0.00782583
0.00798707
0.00812216
0.0082334
0.00832277
0.00839202
0.00844253
0.00847539
0.00849131
0.000135738
0.00124064
0.00232678
0.00322819
0.00398904
0.00464256
0.00521051
0.00570756
0.00614403
0.00652757
0.00686408
0.00715837
0.00741449
0.00763595
0.0078259
0.00798715
0.00812225
0.00823349
0.00832287
0.00839212
0.00844264
0.0084755
0.00849142
0.000135738
0.00124064
0.00232679
0.0032282
0.00398904
0.00464257
0.00521052
0.00570757
0.00614405
0.00652758
0.0068641
0.0071584
0.00741452
0.00763599
0.00782594
0.00798719
0.0081223
0.00823354
0.00832293
0.00839218
0.0084427
0.00847556
0.00849148
0.000135738
0.00124064
0.00232679
0.0032282
0.00398905
0.00464257
0.00521053
0.00570758
0.00614405
0.00652759
0.00686411
0.00715841
0.00741454
0.00763601
0.00782596
0.00798721
0.00812232
0.00823357
0.00832296
0.00839221
0.00844273
0.00847559
0.00849151
0.000175282
0.000161699
0.000161524
0.000174518
0.00159341
0.00151852
0.00151754
0.00158978
0.00294172
0.00287796
0.0028758
0.00293502
0.00395557
0.00391899
0.00391599
0.00394649
0.00474475
0.00472309
0.00471945
0.00473379
0.00537876
0.00536462
0.00536048
0.00536629
0.00589941
0.00588928
0.00588471
0.00588567
0.00633311
0.00632527
0.00632033
0.00631824
0.00669749
0.00669102
0.00668573
0.00668158
0.00700494
0.00699933
0.00699372
0.00698808
0.00726468
0.00725962
0.00725372
0.00724696
0.00748388
0.00747918
0.00747303
0.00746538
0.00766837
0.00766391
0.00765752
0.00764916
0.007823
0.0078187
0.0078121
0.00780317
0.00795196
0.00794776
0.00794098
0.00793157
0.00805887
0.00805474
0.0080478
0.008038
0.00814693
0.00814285
0.00813577
0.00812564
0.00821896
0.00821491
0.00820771
0.00819731
0.00827744
0.00827342
0.00826611
0.00825549
0.00832457
0.00832056
0.00831317
0.00830236
0.00836225
0.00835824
0.00835078
0.00833983
0.00839214
0.00838813
0.00838061
0.00836954
0.00841566
0.00841165
0.00840408
0.00839291
0.00843401
0.00843001
0.0084224
0.00841115
0.00844822
0.00844421
0.00843657
0.00842527
0.00845913
0.00845513
0.00844746
0.0084361
0.00846745
0.00846344
0.00845575
0.00844436
0.00847373
0.00846972
0.00846202
0.0084506
0.00847845
0.00847443
0.00846672
0.00845528
0.00848196
0.00847794
0.00847022
0.00845876
0.00848455
0.00848053
0.00847281
0.00846133
0.00848645
0.00848243
0.0084747
0.00846321
0.00848783
0.00848381
0.00847608
0.00846458
0.00848883
0.00848481
0.00847707
0.00846557
0.00848954
0.00848553
0.00847779
0.00846628
0.00849005
0.00848603
0.00847829
0.00846679
0.00849041
0.00848639
0.00847865
0.00846714
0.00849066
0.00848664
0.00847889
0.00846738
0.00849082
0.00848681
0.00847906
0.00846755
0.00849093
0.00848691
0.00847917
0.00846766
0.008491
0.00848698
0.00847923
0.00846772
0.00849103
0.00848701
0.00847926
0.00846775
0.000970598
0.00190476
0.00258684
0.00300775
0.00325563
0.00339459
0.00346162
0.00347688
0.00345089
0.00338848
0.00329086
0.00315653
0.00298142
0.00275827
0.00247509
0.00211159
0.00163169
0.000968005
0.000125165
0.00208446
0.00273034
0.0032388
0.00358935
0.00381227
0.00394143
0.00400136
0.00400734
0.00396791
0.00388697
0.00376513
0.00360031
0.00338773
0.00311922
0.00278158
0.00235308
0.00179627
0.00104482
0.000130827
0.00315229
0.00354217
0.00389029
0.00415401
0.00433211
0.00443644
0.0044794
0.0044701
0.00441395
0.00431321
0.00416749
0.00397395
0.00372713
0.00341813
0.00303293
0.00254893
0.00192806
0.00110542
0.000135254
0.00404943
0.00427595
0.00450178
0.00468581
0.00481441
0.00488695
0.00490703
0.00487833
0.0048031
0.00468169
0.00451254
0.00429198
0.0040139
0.00366879
0.00324202
0.00271045
0.00203572
0.00115433
0.000138782
0.00478515
0.00491468
0.00505461
0.00517376
0.00525623
0.00529571
0.00529048
0.00524028
0.00514469
0.00500231
0.00481043
0.00456457
0.00425799
0.00388068
0.00341756
0.00284509
0.00212476
0.00119438
0.000141626
0.00539136
0.00546276
0.00554385
0.00561288
0.00565565
0.00566402
0.00563351
0.00556135
0.00544514
0.0052821
0.00506846
0.00479906
0.00446659
0.00406061
0.00356569
0.002958
0.00219894
0.00122743
0.000143933
0.00589581
0.00593099
0.00597156
0.0060026
0.0060125
0.00599312
0.00593883
0.0058454
0.00570916
0.00552625
0.00529212
0.00500099
0.0046451
0.00421367
0.00369096
0.00305293
0.00226092
0.00125482
0.000145808
0.00631911
0.00633062
0.00634271
0.00634495
0.0063281
0.00628469
0.00620882
0.00609555
0.00594041
0.00573884
0.00548568
0.00517469
0.00479775
0.0043438
0.00379687
0.00313274
0.00231273
0.00127754
0.000147333
0.00667626
0.00667153
0.00666305
0.00664325
0.00660473
0.00654086
0.00644586
0.00631455
0.00614201
0.00592322
0.00565264
0.00532368
0.00492795
0.00445416
0.0038862
0.00319971
0.00235596
0.00129635
0.000148571
0.00697837
0.00696202
0.00693827
0.00690136
0.00684526
0.00676412
0.00665243
0.00650499
0.0063167
0.00608231
0.00579598
0.00545092
0.00503854
0.0045474
0.00396127
0.00325567
0.00239189
0.00131187
0.000149571
0.007234
0.007209
0.00717362
0.00712326
0.00705284
0.00695715
0.00683104
0.0066694
0.00646709
0.00621872
0.00591835
0.005559
0.00513199
0.00462577
0.00402402
0.00330221
0.0024216
0.00132462
0.000150377
0.00744992
0.00741831
0.00737388
0.00731279
0.00723065
0.00712276
0.00698427
0.00681026
0.00659561
0.0063349
0.00602212
0.00565023
0.00521046
0.00469123
0.00407615
0.00334066
0.00244602
0.00133502
0.00015102
0.00763174
0.00759496
0.00754335
0.00747362
0.00738184
0.00726372
0.00711469
0.00692999
0.0067046
0.0064331
0.00610949
0.00572669
0.00527591
0.00474554
0.00411916
0.00337221
0.00246594
0.00134346
0.000151532
0.00778417
0.00774327
0.00768592
0.00760917
0.00750944
0.00738276
0.0072248
0.00703095
0.00679628
0.00651546
0.00618248
0.00579029
0.00533008
0.00479025
0.00415438
0.00339789
0.00248206
0.00135023
0.000151935
0.00791129
0.00786708
0.00780509
0.0077226
0.00761632
0.0074825
0.007317
0.00711537
0.00687279
0.00658398
0.00624298
0.00584277
0.00537457
0.00482677
0.00418298
0.00341862
0.00249499
0.00135564
0.000152251
0.00801668
0.00796978
0.00790401
0.00781683
0.00770515
0.00756538
0.00739356
0.00718537
0.00693608
0.00664049
0.0062927
0.00588571
0.00541079
0.00485635
0.00420601
0.00343522
0.00250528
0.00135991
0.000152495
0.00810346
0.00805438
0.00798554
0.00789452
0.00777838
0.00763369
0.00745661
0.00724292
0.006988
0.00668671
0.00633322
0.00592056
0.00544004
0.0048801
0.0042244
0.00344838
0.00251339
0.00136325
0.000152684
0.00817444
0.00812357
0.00805222
0.00795807
0.00783828
0.00768952
0.00750808
0.00728983
0.00703022
0.00672419
0.00636594
0.00594858
0.00546345
0.00489901
0.00423895
0.00345874
0.00251973
0.00136584
0.000152827
0.00823205
0.00817973
0.00810635
0.00800965
0.00788686
0.00773478
0.00754975
0.00732773
0.00706425
0.00675431
0.00639215
0.00597093
0.00548202
0.00491393
0.00425036
0.0034668
0.00252463
0.00136783
0.000152936
0.00827845
0.00822497
0.00814993
0.00805116
0.00792595
0.00777115
0.00758319
0.0073581
0.00709145
0.0067783
0.00641296
0.00598859
0.00549663
0.0049256
0.00425923
0.00347303
0.00252839
0.00136935
0.000153017
0.00831554
0.00826111
0.00818475
0.0080843
0.00795713
0.00780014
0.00760981
0.00738221
0.007113
0.00679725
0.00642933
0.00600243
0.00550802
0.00493465
0.00426606
0.0034778
0.00253125
0.00137049
0.000153078
0.00834495
0.00828976
0.00821233
0.00811054
0.0079818
0.00782304
0.0076308
0.0074012
0.00712992
0.00681209
0.00644209
0.00601318
0.00551682
0.0049416
0.00427128
0.00348141
0.0025334
0.00137135
0.000153122
0.00836807
0.00831228
0.008234
0.00813115
0.00800115
0.00784098
0.00764722
0.00741602
0.00714309
0.00682361
0.00645197
0.00602146
0.00552356
0.0049469
0.00427524
0.00348413
0.00253501
0.00137198
0.000153155
0.00838612
0.00832984
0.00825089
0.00814719
0.0080162
0.00785493
0.00765996
0.00742749
0.00715326
0.00683247
0.00645954
0.00602777
0.00552869
0.0049509
0.0042782
0.00348616
0.0025362
0.00137245
0.000153179
0.00840008
0.00834343
0.00826395
0.00815959
0.00802782
0.00786567
0.00766976
0.0074363
0.00716105
0.00683923
0.0064653
0.00603256
0.00553255
0.0049539
0.00428041
0.00348766
0.00253707
0.00137279
0.000153196
0.0084108
0.00835385
0.00827396
0.00816908
0.00803671
0.00787388
0.00767723
0.007443
0.00716696
0.00684435
0.00646964
0.00603615
0.00553543
0.00495612
0.00428204
0.00348876
0.00253771
0.00137303
0.000153208
0.00841896
0.00836179
0.00828158
0.0081763
0.00804345
0.0078801
0.00768289
0.00744806
0.00717141
0.00684819
0.00647288
0.00603883
0.00553757
0.00495777
0.00428324
0.00348956
0.00253817
0.00137321
0.000153216
0.00842513
0.00836778
0.00828732
0.00818174
0.00804854
0.00788478
0.00768713
0.00745185
0.00717474
0.00685106
0.00647529
0.0060408
0.00553914
0.00495897
0.00428411
0.00349014
0.0025385
0.00137333
0.000153223
0.00842975
0.00837227
0.00829163
0.00818581
0.00805233
0.00788827
0.00769029
0.00745466
0.0071772
0.00685317
0.00647707
0.00604225
0.00554029
0.00495984
0.00428474
0.00349055
0.00253873
0.00137342
0.000153227
0.00843319
0.00837561
0.00829483
0.00818883
0.00805515
0.00789085
0.00769263
0.00745674
0.00717902
0.00685472
0.00647837
0.00604331
0.00554112
0.00496047
0.00428519
0.00349085
0.0025389
0.00137348
0.00015323
0.00843573
0.00837807
0.00829718
0.00819106
0.00805722
0.00789275
0.00769434
0.00745826
0.00718034
0.00685585
0.00647931
0.00604407
0.00554172
0.00496092
0.00428551
0.00349106
0.00253901
0.00137353
0.000153232
0.00843759
0.00837987
0.00829891
0.00819269
0.00805873
0.00789414
0.00769559
0.00745937
0.0071813
0.00685667
0.00647998
0.00604462
0.00554215
0.00496124
0.00428573
0.0034912
0.00253909
0.00137356
0.000153233
0.00843894
0.00838119
0.00830016
0.00819387
0.00805983
0.00789514
0.00769649
0.00746016
0.00718199
0.00685725
0.00648047
0.00604501
0.00554245
0.00496146
0.00428589
0.00349131
0.00253915
0.00137358
0.000153234
0.00843992
0.00838213
0.00830107
0.00819472
0.00806062
0.00789586
0.00769714
0.00746073
0.00718248
0.00685767
0.00648081
0.00604528
0.00554266
0.00496162
0.004286
0.00349138
0.00253919
0.00137359
0.000153235
0.00844062
0.00838281
0.00830171
0.00819533
0.00806118
0.00789637
0.0076976
0.00746114
0.00718283
0.00685796
0.00648105
0.00604548
0.00554281
0.00496173
0.00428608
0.00349142
0.00253922
0.0013736
0.000153235
0.00844112
0.00838329
0.00830217
0.00819576
0.00806158
0.00789674
0.00769792
0.00746142
0.00718307
0.00685817
0.00648122
0.00604561
0.00554292
0.00496181
0.00428613
0.00349146
0.00253923
0.00137361
0.000153235
0.00844146
0.00838363
0.00830249
0.00819606
0.00806186
0.00789699
0.00769815
0.00746162
0.00718325
0.00685831
0.00648134
0.0060457
0.00554299
0.00496186
0.00428616
0.00349148
0.00253924
0.00137361
0.000153236
0.00844171
0.00838386
0.00830272
0.00819627
0.00806205
0.00789717
0.00769831
0.00746176
0.00718336
0.00685841
0.00648142
0.00604577
0.00554303
0.00496189
0.00428619
0.00349149
0.00253925
0.00137361
0.000153236
0.00844187
0.00838402
0.00830287
0.00819641
0.00806219
0.00789729
0.00769841
0.00746185
0.00718344
0.00685848
0.00648147
0.00604581
0.00554307
0.00496192
0.0042862
0.0034915
0.00253926
0.00137361
0.000153236
0.00844198
0.00838412
0.00830297
0.0081965
0.00806227
0.00789736
0.00769848
0.00746191
0.00718349
0.00685852
0.00648151
0.00604584
0.00554309
0.00496193
0.00428621
0.00349151
0.00253926
0.00137362
0.000153236
0.00844204
0.00838418
0.00830303
0.00819656
0.00806232
0.00789741
0.00769852
0.00746195
0.00718353
0.00685855
0.00648153
0.00604585
0.0055431
0.00496194
0.00428622
0.00349151
0.00253926
0.00137362
0.000153236
0.00844207
0.00838421
0.00830305
0.00819659
0.00806235
0.00789743
0.00769854
0.00746196
0.00718354
0.00685856
0.00648154
0.00604586
0.00554311
0.00496195
0.00428622
0.00349152
0.00253926
0.00137362
0.000153236
)
;

boundaryField
{
    leftWall
    {
        type            nutkWallFunction;
        blending        stepwise;
        value           nonuniform List<scalar> 
50
(
0
0
1.92823e-06
3.35087e-06
4.41751e-06
5.26076e-06
5.95261e-06
6.53493e-06
7.30894e-06
8.10096e-06
8.71212e-06
9.19291e-06
9.57529e-06
9.88108e-06
1.01261e-05
1.03222e-05
1.04787e-05
1.0603e-05
1.07012e-05
1.07782e-05
1.08381e-05
1.08844e-05
1.09199e-05
1.09468e-05
1.09671e-05
1.09822e-05
1.09934e-05
1.10016e-05
1.10076e-05
1.10119e-05
1.1015e-05
1.10172e-05
1.10188e-05
1.10199e-05
1.10206e-05
1.10211e-05
1.10215e-05
1.10217e-05
1.10219e-05
1.1022e-05
1.10221e-05
1.10222e-05
1.10222e-05
1.10222e-05
1.10222e-05
1.10222e-05
1.10222e-05
1.10222e-05
1.10222e-05
1.10222e-05
)
;
    }
    rightWall
    {
        type            nutkWallFunction;
        blending        stepwise;
        value           nonuniform List<scalar> 
50
(
0
1.5449e-06
3.71487e-06
5.26531e-06
6.43538e-06
7.36238e-06
8.12335e-06
8.76387e-06
9.61514e-06
1.0486e-05
1.11578e-05
1.16864e-05
1.2107e-05
1.24436e-05
1.27137e-05
1.29302e-05
1.31034e-05
1.32414e-05
1.33506e-05
1.34367e-05
1.35039e-05
1.3556e-05
1.35961e-05
1.36267e-05
1.36499e-05
1.36673e-05
1.36802e-05
1.36897e-05
1.36967e-05
1.37018e-05
1.37054e-05
1.37081e-05
1.37099e-05
1.37112e-05
1.37121e-05
1.37128e-05
1.37132e-05
1.37135e-05
1.37137e-05
1.37138e-05
1.37139e-05
1.3714e-05
1.3714e-05
1.37141e-05
1.37141e-05
1.37141e-05
1.37141e-05
1.37141e-05
1.37141e-05
1.37141e-05
)
;
    }
    lowerWall
    {
        type            nutkWallFunction;
        blending        stepwise;
        value           nonuniform List<scalar> 
62
(
0
0
0
0
0
0
0
0
0
0
0
0
0
0
0
0
0
0
0
0
0
0
0
0
1.10475e-06
3.65639e-06
5.53722e-06
7.12632e-06
8.73291e-06
1.08991e-05
1.50281e-05
1.70414e-05
1.49868e-05
1.4962e-05
1.6933e-05
0
2.81258e-06
5.57701e-06
7.64409e-06
9.41132e-06
1.12303e-05
1.37049e-05
1.82214e-05
0
0
0
0
0
0
0
0
0
0
0
0
0
0
0
0
0
0
0
)
;
    }
    atmosphere
    {
        type            calculated;
        value           nonuniform List<scalar> 
46
(
0.000135738
0.00124064
0.00232679
0.0032282
0.00398905
0.00464257
0.00521053
0.00570758
0.00614405
0.00652759
0.00686411
0.00715841
0.00741454
0.00763601
0.00782596
0.00798721
0.00812232
0.00823357
0.00832296
0.00839221
0.00844273
0.00847559
0.00849151
0.00849103
0.00848701
0.00847926
0.00846775
0.00844207
0.00838421
0.00830305
0.00819659
0.00806235
0.00789743
0.00769854
0.00746196
0.00718354
0.00685856
0.00648154
0.00604586
0.00554311
0.00496195
0.00428622
0.00349152
0.00253926
0.00137362
0.000153236
)
;
    }
    defaultFaces
    {
        type            empty;
    }
}


// ************************************************************************* //
