/*--------------------------------*- C++ -*----------------------------------*\
| =========                 |                                                 |
| \\      /  F ield         | OpenFOAM: The Open Source CFD Toolbox           |
|  \\    /   O peration     | Version:  2406                                  |
|   \\  /    A nd           | Website:  www.openfoam.com                      |
|    \\/     M anipulation  |                                                 |
\*---------------------------------------------------------------------------*/
FoamFile
{
    version     2.0;
    format      ascii;
    arch        "LSB;label=32;scalar=64";
    class       volScalarField;
    location    "0.9";
    object      nut;
}
// * * * * * * * * * * * * * * * * * * * * * * * * * * * * * * * * * * * * * //

dimensions      [0 2 -1 0 0 0 0];

internalField   nonuniform List<scalar> 
2268
(
0.000289337
0.000213038
0.000213038
0.000213038
0.000213038
0.000213038
0.000213038
0.000213038
0.000213038
0.000213038
0.000213038
0.000213038
0.000213038
5.71085e-05
2.89762e-05
3.39969e-05
3.70945e-05
3.86967e-05
3.92004e-05
3.85761e-05
3.64217e-05
3.15952e-05
1.9368e-05
0.000450785
0.000254306
0.000232321
0.000225511
0.000222385
0.000220634
0.000219545
0.000218827
0.000218345
0.000218025
0.00021783
0.000217737
0.000217737
2.99262e-05
0.000140298
0.000252576
0.000297188
0.000318815
0.000326183
0.000319467
0.000293191
0.000230782
6.37605e-05
0.000450785
0.000288167
0.000251962
0.000238672
0.000232268
0.000228639
0.000226375
0.000224885
0.000223885
0.000223223
0.000222819
0.000222626
0.000222626
3.22281e-05
0.000210538
0.000418747
0.00051552
0.00056335
0.000580297
0.000566788
0.000510778
0.000378257
7.53691e-05
0.000450785
0.000314823
0.000270613
0.00025196
0.000242449
0.000236938
0.000233468
0.000231176
0.000229635
0.000228616
0.000227992
0.000227696
0.000227696
3.71206e-05
0.00026116
0.000534702
0.000675622
0.000747698
0.00077423
0.000755425
0.000673367
0.000480939
8.40878e-05
0.000450785
0.000335499
0.000287638
0.000264953
0.000252709
0.000245413
0.000240757
0.00023766
0.000235569
0.000234184
0.000233336
0.000232932
0.000232932
4.24277e-05
0.000302021
0.000623781
0.000801636
0.000895911
0.000932307
0.000910422
0.000806978
0.000563468
9.17587e-05
0.000450785
0.000351572
0.000302834
0.000277373
0.000262866
0.000253958
0.000248176
0.000244294
0.000241659
0.000239907
0.000238832
0.00023832
0.00023832
4.79644e-05
0.000337267
0.000698265
0.000908584
0.00102399
0.00107115
0.001049
0.000929189
0.000640281
0.000100006
0.000450785
0.000364209
0.000316232
0.000289057
0.00027278
0.000262475
0.000255662
0.000251035
0.000247873
0.000245762
0.000244464
0.000243844
0.000243844
5.37316e-05
0.000369115
0.000765064
0.00100582
0.00114234
0.00120179
0.0011829
0.00105309
0.000723777
0.000111817
0.000450785
0.00037429
0.000327979
0.000299933
0.000282353
0.000270886
0.000263157
0.000257843
0.000254182
0.000251726
0.00025021
0.000249486
0.000249486
5.97489e-05
0.000398951
0.000828563
0.00109966
0.00125821
0.00133199
0.00132065
0.00119065
0.00083505
0.000134685
2.0815e-05
3.54183e-05
4.13826e-05
4.4561e-05
4.63906e-05
4.74685e-05
4.80756e-05
4.83498e-05
4.83577e-05
4.8127e-05
4.76614e-05
4.69449e-05
4.59423e-05
4.45917e-05
4.27883e-05
4.03442e-05
3.68776e-05
3.14127e-05
3.10626e-05
7.74998e-05
0.000278993
0.0003573
0.000396872
0.000418798
0.000431345
0.000438198
0.000441075
0.000440772
0.000437611
0.000431632
0.000422662
0.000410308
0.000393868
0.000372115
0.000342738
0.000300733
0.000231945
7.11573e-05
9.22035e-05
0.00047352
0.000646953
0.000734873
0.00078288
0.000809905
0.000824398
0.000830225
0.000829141
0.000821854
0.000808475
0.000788682
0.000761711
0.00072617
0.000679564
0.000617102
0.000528244
0.000383784
8.2534e-05
0.000103481
0.00061329
0.000872937
0.00100632
0.00107887
0.0011194
0.00114092
0.00114934
0.00114734
0.00113599
0.00111549
0.00108541
0.00104468
0.000991332
0.000921778
0.00082909
0.000698122
0.000488556
9.08642e-05
0.000113417
0.000726178
0.00106217
0.00123591
0.00133014
0.00138259
0.00141024
0.00142078
0.00141771
0.00140243
0.00137521
0.00133554
0.00128207
0.00121233
0.00112179
0.00100168
0.000833085
0.000567738
9.73469e-05
0.000123932
0.000829602
0.0012347
0.00144303
0.00155563
0.00161823
0.00165104
0.0016632
0.00165885
0.00163967
0.001606
0.00155722
0.00149174
0.00140661
0.00129641
0.00115074
0.000947513
0.000632515
0.000102682
0.000138405
0.000938577
0.00140579
0.00164152
0.00176884
0.00183978
0.0018768
0.00189005
0.00188417
0.00186104
0.00182102
0.00176338
0.00168627
0.00158626
0.00145709
0.00128678
0.00105042
0.000689045
0.000107261
0.000164682
0.00107782
0.00158906
0.00184168
0.0019797
0.00205725
0.0020976
0.00211146
0.00210377
0.00207653
0.00203011
0.00196364
0.00187499
0.00176019
0.00161212
0.00141724
0.00114793
0.000741106
0.000111305
0.000450785
0.000387195
0.000344345
0.000315956
0.000296959
0.000284001
0.000275003
0.000268692
0.000264289
0.000261311
0.000259463
0.000258578
0.000258578
6.96771e-05
0.000443968
0.000927261
0.00124787
0.00144354
0.0015435
0.00155144
0.00144541
0.00117348
0.000685005
0.000450785
0.000399213
0.00036127
0.000333993
0.000314483
0.000300478
0.000290378
0.0002831
0.000277922
0.000274373
0.000272153
0.000271084
0.000271084
8.32406e-05
0.000493834
0.00103294
0.00140914
0.00165151
0.00179161
0.00184108
0.00179594
0.00164341
0.00138243
0.000450785
0.000408009
0.000374622
0.000349176
0.000330021
0.000315682
0.000304996
0.000297098
0.000291375
0.0002874
0.000284891
0.000283677
0.000283677
9.68163e-05
0.000535081
0.00111758
0.00153989
0.00182451
0.0020048
0.00209868
0.00211386
0.00205609
0.00194318
0.000450785
0.000414731
0.000385375
0.000362019
0.000343726
0.000329557
0.000318697
0.00031049
0.00030444
0.000300186
0.000297477
0.00029616
0.00029616
0.00011025
0.000570124
0.00118799
0.00164953
0.00197177
0.00218904
0.00232302
0.00238702
0.00239251
0.00235646
0.000450785
0.000420035
0.000394195
0.000372953
0.000355791
0.000342125
0.0003314
0.000323136
0.000316951
0.000312552
0.000309729
0.00030835
0.00030835
0.000123369
0.000600244
0.00124747
0.00174262
0.00209774
0.00234733
0.00251491
0.00261585
0.00266227
0.00266685
0.000450785
0.000424321
0.000401532
0.000382317
0.000366405
0.000353445
0.000343071
0.000334944
0.00032878
0.00032435
0.000321488
0.000320084
0.000320084
0.000135999
0.000626217
0.00129791
0.00182184
0.00220527
0.00248237
0.0026773
0.00280596
0.00287972
0.00290795
0.000450785
0.000427843
0.0004077
0.00039037
0.000375734
0.00036359
0.000353707
0.000345857
0.000339833
0.000335465
0.000332624
0.000331226
0.000331226
0.000147981
0.000648593
0.00134066
0.0018891
0.00229669
0.00259689
0.00281397
0.00296376
0.00305679
0.00310042
0.000450785
0.000430771
0.000412922
0.000397315
0.000383919
0.000372636
0.000363327
0.000355843
0.000350044
0.000345807
0.000343036
0.000341667
0.000341668
0.000159194
0.000667836
0.0013768
0.00194605
0.00237414
0.00269365
0.00292872
0.00309495
0.00320226
0.00325688
0.000450785
0.000433224
0.000417361
0.000403304
0.000391081
0.000380656
0.000371957
0.000364894
0.000359374
0.000355314
0.000352647
0.000351326
0.000351326
0.000169557
0.000684396
0.00140739
0.00199426
0.0024397
0.00277532
0.00302506
0.00320431
0.00332257
0.00338549
0.000450785
0.000435286
0.000421136
0.000408462
0.000397321
0.000387721
0.000379634
0.000373013
0.000367802
0.000363948
0.000361405
0.000360143
0.000360143
0.000179035
0.000698745
0.00143348
0.00203531
0.00249542
0.0028445
0.00310624
0.00329588
0.00342267
0.00349197
0.000450785
0.000437019
0.000424341
0.000412884
0.000402723
0.000393893
0.000386396
0.000380214
0.000375321
0.000371685
0.000369278
0.00036808
0.00036808
0.00018764
0.000711407
0.00145615
0.00207082
0.00254341
0.00290375
0.0031753
0.00337319
0.0035066
0.00358075
0.000450785
0.00043847
0.000427048
0.000416649
0.000407359
0.000399229
0.000392282
0.000386521
0.000381938
0.000378519
0.000376249
0.000375117
0.000375117
0.000195435
0.000722991
0.00147662
0.00210253
0.00258588
0.00295567
0.00323516
0.0034395
0.00357787
0.00365552
0.000450785
0.000439677
0.000429313
0.000419821
0.00041129
0.000403782
0.000397332
0.000391958
0.000387665
0.000384453
0.000382315
0.000381247
0.000381248
0.000202547
0.000734248
0.00149629
0.00213242
0.00262523
0.00300296
0.00328877
0.00349789
0.00363968
0.00371952
0.000450785
0.000440668
0.000431182
0.000422452
0.000414568
0.000407598
0.000401584
0.000396554
0.000392522
0.000389497
0.000387481
0.000386472
0.000386473
0.00020919
0.000746178
0.00151692
0.00216289
0.00266426
0.0030486
0.00333914
0.00355141
0.00369505
0.0037757
0.000450785
0.000441463
0.00043269
0.000424584
0.000417236
0.000410715
0.00040507
0.000400334
0.000396529
0.000393667
0.000391757
0.000390801
0.000390801
0.000215741
0.000760261
0.00154103
0.00219718
0.00270648
0.00309604
0.00338952
0.00360307
0.00374682
0.00382679
0.000450785
0.000442081
0.000433865
0.000426251
0.000419329
0.000413169
0.000407822
0.000403326
0.000399705
0.000396979
0.000395156
0.000394243
0.000394243
0.000222913
0.000779038
0.00157279
0.00224021
0.0027566
0.00314937
0.00344341
0.00365589
0.00379769
0.00387525
0.000450785
0.000442534
0.000434729
0.000427479
0.000420875
0.000414985
0.000409863
0.000405549
0.00040207
0.000399447
0.000397691
0.000396812
0.000396812
0.000232261
0.000807853
0.00162043
0.00230025
0.00282131
0.00321362
0.00350456
0.00371283
0.00385011
0.00392324
0.000450785
0.000442831
0.000435296
0.000428288
0.000421894
0.000416184
0.000411213
0.000407021
0.000403638
0.000401084
0.000399375
0.000398518
0.000398518
0.000247995
0.00086143
0.00170251
0.00239166
0.00290981
0.00329446
0.00357665
0.00377651
0.00390617
0.00397257
0.000450785
0.000442978
0.000435577
0.000428689
0.0004224
0.000416781
0.000411885
0.000407754
0.000404419
0.000401901
0.000400214
0.000399369
0.000399369
0.000288101
0.000993607
0.00186231
0.00253695
0.00303265
0.003397
0.00366249
0.00384879
0.00396736
0.00402462
0.000450785
0.000442978
0.000435577
0.000428689
0.0004224
0.000416781
0.000411885
0.000407754
0.000404419
0.000401901
0.000400214
0.000399369
0.000268809
0.000675984
0.00144487
0.00217647
0.0027561
0.00319495
0.00352273
0.00376277
0.00393028
0.0040344
0.00408022
0.000192425
0.000178053
0.000185724
0.000193436
0.000199645
0.000204715
0.000209211
0.000213803
0.000219448
0.000227915
0.00024364
0.00028496
0.000674298
0.00130425
0.00196332
0.00254328
0.00301487
0.00338429
0.00366659
0.00387535
0.00402021
0.00410725
0.0041398
9.95327e-05
0.000292228
0.000402756
0.000482288
0.000544478
0.000595679
0.000639927
0.000680559
0.000721341
0.000768489
0.000837371
0.00098213
0.00144067
0.00196347
0.00246633
0.00291127
0.00328445
0.00358592
0.00382123
0.00399661
0.00411695
0.0041854
0.00420354
9.41895e-05
0.000546969
0.000804786
0.000975572
0.00110399
0.00120788
0.00129672
0.00137717
0.00145582
0.0015424
0.00165634
0.00184102
0.00217172
0.00254831
0.0029186
0.00325582
0.00354731
0.00378878
0.00398021
0.00412307
0.00421885
0.00426835
0.00427163
0.000101612
0.000703009
0.00109843
0.00136134
0.00155618
0.00171184
0.0018436
0.00196146
0.00207412
0.00219201
0.00233066
0.00251297
0.00275865
0.00303414
0.00331014
0.00356749
0.0037949
0.00398643
0.00413932
0.00425237
0.00432486
0.00435598
0.00434464
0.000107534
0.000798222
0.00129613
0.00163725
0.00189179
0.00209486
0.00226577
0.00241685
0.00255777
0.00269804
0.00284845
0.00302032
0.00321909
0.00343264
0.00364584
0.00384626
0.00402508
0.00417652
0.00429688
0.00438368
0.00443496
0.00444894
0.00442371
0.000112006
0.000864494
0.00143794
0.00184176
0.00214697
0.00239146
0.00259675
0.00277643
0.0029404
0.00309699
0.00325385
0.00341722
0.00358922
0.00376503
0.00393695
0.00409738
0.00423999
0.00435992
0.0044535
0.00451782
0.00455037
0.00454881
0.00451079
0.000115529
0.000915256
0.00154743
0.00200225
0.0023503
0.00263071
0.00286603
0.00307042
0.00325365
0.00342319
0.00358498
0.00374321
0.0038994
0.00405171
0.00419628
0.0043286
0.00444436
0.00453981
0.0046117
0.00465716
0.00467355
0.00465827
0.00460876
0.000118445
0.000957252
0.00163833
0.00213654
0.00252193
0.00283415
0.00309623
0.00332249
0.00352256
0.00370335
0.00386997
0.00402589
0.00417271
0.00431009
0.00443625
0.00454866
0.00464451
0.00472103
0.00477554
0.00480544
0.00480813
0.00478101
0.00472145
0.000121019
0.000994841
0.00171988
0.00225744
0.00267704
0.00301858
0.00330532
0.00355164
0.00376706
0.00395826
0.00413004
0.00428568
0.00442709
0.00455484
0.00466841
0.00476655
0.00484756
0.00490949
0.00495019
0.00496741
0.00495874
0.00492164
0.00485357
0.000123489
0.00103156
0.00179956
0.0023755
0.00282837
0.00319829
0.00350866
0.00377399
0.00400387
0.00420497
0.00438211
0.00453875
0.00467715
0.00479855
0.0049033
0.00499105
0.0050609
0.00511156
0.00514139
0.00514846
0.00513058
0.00508539
0.00501042
0.000126104
0.0010708
0.00188435
0.00250048
0.00298767
0.00338631
0.00372011
0.00400386
0.00424745
0.00445787
0.00464025
0.0047984
0.00493504
0.00505199
0.00515027
0.0052302
0.00529152
0.00533346
0.00535481
0.00535395
0.00532891
0.0052775
0.00519741
0.000129138
0.00111598
0.00198115
0.00264184
0.00316613
0.00359487
0.00395235
0.004254
0.00451039
0.00472916
0.00491603
0.00507539
0.00521055
0.00532387
0.00541696
0.00549069
0.00554529
0.00558044
0.00559527
0.00558844
0.00555822
0.00550257
0.00541932
0.000132903
0.00117055
0.00209664
0.00280859
0.00337416
0.00383504
0.00421653
0.00453526
0.00480296
0.00502838
0.00521822
0.00537767
0.00551071
0.00562032
0.00570864
0.00577699
0.00582605
0.00585582
0.00586575
0.00585476
0.00582129
0.00576348
0.00567929
0.000137741
0.00123767
0.00223677
0.00300867
0.00362081
0.0041161
0.00452155
0.00485575
0.00513236
0.0053618
0.00555214
0.00570964
0.00583911
0.00594414
0.00602738
0.00609057
0.00613472
0.00616015
0.00616654
0.00615302
0.00611825
0.0060605
0.00597786
0.000144015
0.00131995
0.00240639
0.00324868
0.00391341
0.00444509
0.00487347
0.00522025
0.00550203
0.00573165
0.005919
0.00607166
0.00619533
0.00629427
0.00637157
0.00642933
0.00646882
0.0064906
0.00649457
0.00648006
0.00644588
0.00639049
0.00631209
0.000152107
0.00141972
0.00261004
0.00353496
0.00425852
0.00482736
0.00527565
0.00563005
0.00591146
0.00613597
0.00631575
0.00645984
0.0065749
0.00666576
0.00673586
0.00678757
0.00682236
0.00684095
0.00684341
0.00682925
0.00679747
0.00674669
0.00667525
0.000162474
0.00154031
0.00285497
0.00387707
0.00466473
0.00526831
0.00572976
0.00608352
0.00635654
0.00656898
0.00673555
0.00686672
0.00696993
0.00705044
0.00711189
0.00715676
0.00718661
0.00720226
0.00720391
0.00719122
0.00716338
0.00711921
0.00705723
0.000175804
0.00168918
0.00315755
0.00429417
0.00514704
0.00577583
0.00623698
0.00657689
0.00683036
0.00702202
0.00716885
0.00728238
0.00737043
0.00743832
0.00748967
0.00752687
0.00755146
0.00756428
0.00756558
0.00755517
0.00753244
0.0074964
0.00744582
0.000193326
0.00188503
0.00355581
0.00482466
0.00573131
0.0063614
0.00679793
0.00710424
0.00732369
0.0074845
0.00760477
0.0076961
0.00776598
0.00781933
0.00785937
0.00788824
0.00790729
0.00791726
0.00791845
0.00791076
0.00789375
0.00786669
0.00782861
0.000217593
0.00218228
0.00413962
0.00554106
0.00645587
0.0070367
0.00740943
0.00765587
0.00782483
0.00794477
0.00803248
0.00809802
0.00814761
0.00818517
0.00821322
0.00823339
0.00824673
0.00825382
0.0082549
0.00824996
0.00823873
0.0082207
0.0081952
0.000262351
0.00278712
0.00514448
0.00657558
0.0073645
0.00780225
0.00805731
0.00821534
0.0083192
0.00839096
0.00844252
0.00848062
0.00850924
0.00853081
0.00854688
0.00855845
0.00856615
0.00857032
0.00857116
0.00856865
0.00856267
0.00855294
0.00853906
0.000730471
0.00472907
0.00720336
0.00810191
0.00845691
0.00862037
0.00870669
0.00875756
0.00879015
0.00881239
0.00882827
0.00883997
0.00884874
0.00885536
0.00886029
0.00886386
0.00886626
0.00886759
0.00886793
0.00886728
0.0088656
0.0088628
0.00885872
0.000148524
0.000138805
0.000140409
0.000154091
0.00114243
0.00110634
0.0011228
0.00119309
0.00185858
0.00183936
0.00186846
0.00194401
0.00232179
0.00231807
0.00235398
0.00242562
0.00265213
0.00265623
0.00269675
0.00276886
0.00290346
0.00291211
0.00295628
0.00303065
0.00310246
0.00311434
0.00316157
0.00323851
0.00326373
0.00327819
0.003328
0.00340733
0.00339611
0.00341268
0.00346465
0.00354604
0.00350558
0.00352384
0.00357757
0.00366067
0.00359662
0.00361619
0.00367127
0.0037557
0.00367294
0.0036934
0.00374944
0.00383481
0.00373776
0.00375868
0.00381524
0.00390116
0.00379396
0.00381487
0.00387151
0.00395756
0.00384416
0.00386454
0.00392077
0.00400651
0.00389071
0.00390996
0.00396525
0.00405019
0.00393565
0.00395313
0.0040069
0.00409054
0.00398068
0.0039957
0.00404735
0.00412917
0.00402714
0.00403899
0.00408794
0.00416743
0.00407596
0.00408401
0.00412972
0.00420644
0.00412779
0.00413152
0.00417356
0.00424715
0.00418314
0.0041822
0.00422027
0.00429048
0.00424257
0.0042368
0.00427077
0.00433748
0.00430697
0.00429639
0.00432629
0.00438951
0.00437778
0.00436258
0.00438853
0.00444839
0.00445716
0.00443765
0.00445991
0.00451661
0.00454817
0.00452474
0.00454362
0.00459741
0.00465474
0.00462786
0.00464372
0.00469488
0.0047817
0.00475187
0.00476509
0.00481387
0.00493446
0.00490225
0.0049132
0.00495979
0.00511858
0.00508463
0.00509364
0.00513816
0.00533904
0.00530406
0.00531146
0.00535388
0.00559927
0.00556409
0.00557014
0.00561026
0.00590007
0.00586563
0.00587057
0.00590803
0.00623875
0.00620608
0.00621009
0.00624435
0.00660865
0.00657883
0.00658205
0.00661248
0.00699953
0.00697358
0.0069761
0.00700207
0.00739874
0.00737747
0.00737938
0.00740037
0.00779318
0.00777709
0.00777846
0.00779419
0.00817152
0.0081607
0.00816159
0.00817213
0.00852626
0.00852037
0.00852086
0.00852663
0.008855
0.00885333
0.0088535
0.00885525
0.00080229
0.00147737
0.00191562
0.00217068
0.00231944
0.00240521
0.0024498
0.00246401
0.00245301
0.00241893
0.00236207
0.00228128
0.00217391
0.0020351
0.00185621
0.0016212
0.00129832
0.000818711
0.000116917
0.00155694
0.00201111
0.00234675
0.00257096
0.0027138
0.00279975
0.00284417
0.00285572
0.00283886
0.0027954
0.00272534
0.00262715
0.00249753
0.00233064
0.00211623
0.00183571
0.00145346
0.000896621
0.000122689
0.00216019
0.00247573
0.00273366
0.00292266
0.00305109
0.00313068
0.0031707
0.00317713
0.00315322
0.00310017
0.0030176
0.00290354
0.00275421
0.00256297
0.00231842
0.00200026
0.00157047
0.000954417
0.000127038
0.00260632
0.00285769
0.00306817
0.0032292
0.00334231
0.00341287
0.00344613
0.00344584
0.00341407
0.00335136
0.00325688
0.0031283
0.0029614
0.00274899
0.00247881
0.00212942
0.00166129
0.000998821
0.000130376
0.00294335
0.00316788
0.003352
0.00349359
0.00359352
0.00365472
0.0036803
0.00367251
0.00363251
0.00356027
0.00345456
0.00331273
0.00313022
0.00289941
0.00260749
0.00223219
0.00173297
0.00103361
0.000132966
0.00320679
0.00342099
0.00359104
0.00371983
0.00380934
0.00386195
0.00387982
0.00386439
0.0038162
0.00373479
0.00361861
0.00346477
0.00326845
0.00302173
0.0027114
0.0023146
0.00179008
0.00106115
0.000134988
0.00341821
0.00362915
0.00379182
0.00391228
0.00399378
0.00403891
0.00404956
0.00402676
0.00397071
0.00388068
0.00375489
0.00359027
0.00338181
0.00312139
0.00279551
0.00238091
0.00183578
0.00108304
0.000136569
0.00359074
0.00380134
0.00396015
0.00407509
0.00415046
0.00418924
0.00419335
0.00416371
0.00410035
0.00400238
0.00386789
0.00369369
0.00347465
0.0032025
0.00286354
0.00243424
0.00187233
0.00110044
0.000137801
0.00373277
0.00394416
0.00410092
0.00421209
0.0042827
0.00431614
0.00431446
0.00427863
0.00420862
0.00410347
0.00396122
0.00377859
0.0035504
0.00326828
0.0029184
0.00247699
0.00190147
0.00111423
0.000138759
0.00385017
0.00406266
0.00421828
0.00432674
0.00439358
0.00442251
0.00441578
0.00437445
0.0042985
0.00418697
0.00403788
0.00384793
0.0036119
0.00332136
0.00296239
0.00251108
0.00192458
0.0011251
0.000139498
0.00394739
0.00416089
0.00431578
0.00442218
0.00448594
0.00451105
0.00449995
0.00445378
0.0043726
0.00425549
0.00410045
0.0039042
0.0036615
0.00336391
0.00299745
0.00253808
0.00194279
0.0011336
0.000140064
0.00402809
0.0042423
0.00439657
0.00450125
0.00456242
0.00458428
0.00456939
0.00451902
0.00443329
0.00431133
0.00415117
0.00394956
0.00370125
0.00339779
0.00302518
0.00255931
0.001957
0.00114019
0.000140494
0.0040954
0.00430989
0.00446345
0.00456658
0.00462549
0.00464451
0.00462634
0.00457233
0.00448267
0.00435654
0.00419202
0.00398587
0.00373287
0.00342457
0.00304695
0.00257586
0.00196802
0.00114526
0.000140818
0.0041521
0.00436634
0.00451897
0.00462056
0.00467741
0.00469391
0.00467287
0.00461569
0.00452265
0.00439296
0.00422474
0.00401478
0.00375787
0.0034456
0.00306393
0.00258867
0.00197648
0.00114912
0.00014106
0.00420065
0.00441402
0.0045654
0.00466536
0.00472022
0.00473444
0.00471084
0.00465091
0.00455495
0.00442221
0.00425086
0.0040377
0.00377757
0.00346205
0.0030771
0.00259853
0.00198294
0.00115205
0.000141239
0.00424321
0.00445503
0.00460477
0.00470293
0.00475582
0.00476788
0.00474197
0.0046796
0.0045811
0.00444575
0.00427174
0.0040559
0.00379309
0.00347489
0.0030873
0.0026061
0.00198785
0.00115425
0.000141372
0.00428167
0.00449123
0.00463888
0.00473502
0.00478587
0.00479586
0.00476781
0.00470324
0.0046025
0.00446488
0.00428859
0.00407048
0.00380541
0.00348501
0.00309526
0.00261194
0.0019916
0.00115592
0.00014147
0.00431766
0.00452424
0.00466934
0.0047632
0.00481192
0.00481984
0.00478977
0.00472318
0.00462042
0.00448079
0.0043025
0.00408241
0.00381542
0.00349315
0.00310159
0.00261654
0.00199453
0.0011572
0.000141543
0.00435254
0.00455546
0.00469758
0.0047889
0.00483537
0.00484121
0.00480917
0.00474067
0.00463604
0.00449457
0.00431447
0.00409263
0.00382392
0.0035
0.00310687
0.00262033
0.0019969
0.00115823
0.000141601
0.00438753
0.00458618
0.00472492
0.00481347
0.00485756
0.00486129
0.00482729
0.00475694
0.00465053
0.00450731
0.00432551
0.004102
0.00383169
0.00350622
0.00311163
0.00262371
0.001999
0.00115912
0.00014165
0.0044237
0.00461761
0.00475266
0.00483824
0.00487985
0.00488141
0.00484544
0.00477325
0.00466507
0.00452013
0.00433664
0.00411146
0.00383953
0.0035125
0.00311641
0.0026271
0.00200108
0.00116
0.000141697
0.00446215
0.00465098
0.00478213
0.00486462
0.00490367
0.00490302
0.00486505
0.00479098
0.00468098
0.00453426
0.00434898
0.00412204
0.00384834
0.00351959
0.00312184
0.00263094
0.00200344
0.001161
0.00014175
0.0045041
0.00468771
0.00481488
0.00489421
0.00493066
0.00492775
0.00488773
0.00481171
0.0046998
0.00455114
0.0043639
0.00413495
0.00385922
0.00352843
0.00312867
0.00263582
0.00200646
0.00116227
0.000141818
0.00455109
0.0047295
0.00485269
0.0049289
0.00496274
0.00495755
0.00491542
0.00483735
0.00472336
0.00457255
0.00438306
0.00415175
0.00387355
0.00354022
0.00313789
0.00264248
0.00201062
0.00116405
0.000141914
0.00460509
0.00477847
0.00489783
0.00497098
0.00500227
0.00499479
0.00495049
0.00487023
0.00475396
0.00460072
0.00440858
0.00417441
0.00389314
0.00355654
0.00315081
0.00265194
0.00201661
0.00116663
0.000142055
0.0046687
0.00483733
0.00495305
0.0050233
0.00505211
0.00504236
0.00499582
0.00491324
0.00479446
0.00463843
0.00444318
0.00420551
0.00392036
0.00357953
0.00316926
0.00266562
0.00202537
0.00117046
0.000142267
0.00474522
0.00490943
0.00502177
0.00508928
0.00511571
0.00510373
0.00505493
0.00496992
0.00484839
0.00468921
0.0044903
0.00424839
0.00395838
0.00361206
0.00319572
0.0026855
0.00203829
0.00117617
0.000142589
0.00483873
0.00499882
0.00510801
0.00517296
0.00519715
0.00518302
0.00513197
0.00504445
0.00492001
0.00475734
0.00455422
0.00430727
0.00401125
0.00365792
0.00323354
0.00271432
0.00205726
0.00118467
0.000143078
0.00495398
0.00511015
0.00521635
0.0052789
0.00530097
0.0052848
0.00523161
0.00514163
0.00501423
0.00484787
0.00464011
0.00438732
0.00408408
0.00372195
0.0032871
0.00275575
0.00208493
0.00119725
0.000143818
0.00509621
0.00524844
0.00535166
0.00541185
0.00543193
0.00541391
0.00535879
0.0052666
0.00513642
0.00496642
0.00475382
0.0044946
0.00418297
0.00381012
0.00336195
0.00281452
0.00212479
0.00121565
0.000144931
0.00527065
0.00541858
0.00551858
0.00557633
0.00559451
0.0055749
0.00551826
0.00542435
0.00529192
0.00511874
0.00490152
0.00463567
0.00431475
0.00392931
0.00346466
0.0028964
0.00218121
0.00124213
0.000146584
0.00548181
0.0056246
0.00572084
0.00577589
0.00579221
0.00577134
0.00571379
0.005619
0.00548532
0.00530998
0.00508901
0.00481696
0.0044864
0.00408679
0.0036024
0.00300788
0.00225921
0.00127936
0.000149003
0.00573253
0.00586884
0.00596038
0.00601225
0.00602667
0.00600496
0.00594735
0.00585292
0.00571952
0.00554375
0.00532072
0.00504381
0.0047041
0.00428938
0.00378214
0.00315543
0.00236393
0.00133018
0.000152466
0.00602303
0.00615094
0.00623648
0.00628446
0.00629689
0.00627484
0.00621824
0.00612579
0.00599481
0.00582112
0.00559871
0.00531942
0.00497224
0.00454245
0.00400977
0.00334468
0.00249983
0.00139714
0.000157297
0.00635006
0.00646721
0.00654516
0.00658839
0.00659868
0.00657685
0.00652254
0.00643406
0.00630819
0.0061399
0.00592191
0.0056441
0.00529273
0.00484942
0.00428972
0.00358007
0.00267034
0.00148221
0.000163844
0.00670661
0.00681047
0.00687913
0.0069167
0.00692472
0.00690373
0.00685313
0.00677089
0.00665329
0.00649451
0.00628592
0.00601516
0.00566503
0.00521216
0.00462578
0.00386598
0.00287872
0.00158709
0.000172484
0.00708243
0.0071706
0.00722845
0.00725959
0.00726527
0.00724583
0.00720043
0.00712683
0.00702099
0.00687648
0.00668347
0.00642739
0.00608701
0.00563245
0.00502364
0.00421011
0.0031311
0.0017146
0.00018369
0.00746522
0.00753594
0.00758193
0.00760616
0.00760963
0.00759247
0.00755372
0.00749112
0.00740058
0.00727547
0.00710532
0.0068738
0.0065558
0.00611375
0.00549436
0.00462907
0.0034425
0.0018713
0.000198188
0.00784263
0.00789513
0.00792891
0.00794624
0.00794784
0.00793369
0.00790287
0.0078533
0.00778125
0.00768054
0.00754099
0.00734588
0.00706766
0.00666151
0.00605735
0.00515626
0.00384755
0.00207258
0.000217349
0.00820436
0.00823912
0.00826119
0.00827213
0.00827241
0.00826194
0.00823994
0.00820478
0.00815353
0.00808118
0.00797921
0.00783282
0.00761561
0.00727986
0.00673994
0.00585215
0.00442327
0.00235591
0.00024482
0.00854404
0.00856275
0.00857445
0.00858
0.00857965
0.0085733
0.00856046
0.00854013
0.00851047
0.00846837
0.00840831
0.0083202
0.0081846
0.00796193
0.00756719
0.00681578
0.00535101
0.00283319
0.000297655
0.00886029
0.00886565
0.00886894
0.00887042
0.00887014
0.00886808
0.00886407
0.00885779
0.00884867
0.00883572
0.0088172
0.0087898
0.00874672
0.00867243
0.00852536
0.00817292
0.00713415
0.00405849
0.000465817
)
;

boundaryField
{
    leftWall
    {
        type            nutkWallFunction;
        blending        stepwise;
        value           nonuniform List<scalar> 
50
(
0
0
0
0
0
0
0
0
0
0
0
0
0
0
0
0
0
0
0
0
0
0
0
0
0
0
0
5.36008e-05
1.87817e-05
5.34025e-06
4.76026e-06
5.95219e-06
6.87862e-06
7.5682e-06
8.10182e-06
8.53369e-06
8.90428e-06
9.24913e-06
9.60422e-06
1.00095e-05
1.05108e-05
1.11601e-05
1.2014e-05
1.31328e-05
1.45854e-05
1.64672e-05
1.89449e-05
2.23838e-05
2.80618e-05
4.76264e-05
)
;
    }
    rightWall
    {
        type            nutkWallFunction;
        blending        stepwise;
        value           nonuniform List<scalar> 
50
(
0
8.72369e-07
2.80775e-06
4.19434e-06
5.25818e-06
6.12478e-06
6.86302e-06
7.51132e-06
8.4055e-06
9.31155e-06
9.98379e-06
1.04923e-05
1.08816e-05
1.11813e-05
1.14124e-05
1.159e-05
1.1726e-05
1.18293e-05
1.19072e-05
1.19654e-05
1.20086e-05
1.20403e-05
1.20634e-05
1.20802e-05
1.20924e-05
1.21013e-05
1.21082e-05
1.21139e-05
1.21192e-05
1.21252e-05
1.21328e-05
1.21437e-05
1.21598e-05
1.21844e-05
1.22221e-05
1.22801e-05
1.23691e-05
1.25048e-05
1.27096e-05
1.30145e-05
1.34596e-05
1.40936e-05
1.49708e-05
1.615e-05
1.77003e-05
1.97202e-05
2.23912e-05
2.62003e-05
3.34236e-05
5.55323e-05
)
;
    }
    lowerWall
    {
        type            nutkWallFunction;
        blending        stepwise;
        value           nonuniform List<scalar> 
62
(
0
0
0
0
0
0
0
0
0
0
0
0
2.16739e-05
0
0
0
0
0
0
0
0
0
0
0
0
1.57624e-06
3.0536e-06
4.33096e-06
5.68394e-06
7.59364e-06
1.12265e-05
1.33336e-05
1.17846e-05
1.20161e-05
1.41279e-05
0
1.85893e-06
4.31261e-06
6.15201e-06
7.749e-06
9.41951e-06
1.16919e-05
1.57485e-05
0
0
0
0
0
0
0
0
0
0
0
0
0
0
0
0
0
0
0
)
;
    }
    atmosphere
    {
        type            calculated;
        value           uniform 0.009;
    }
    defaultFaces
    {
        type            empty;
    }
}


// ************************************************************************* //
