/*--------------------------------*- C++ -*----------------------------------*\
| =========                 |                                                 |
| \\      /  F ield         | OpenFOAM: The Open Source CFD Toolbox           |
|  \\    /   O peration     | Version:  2406                                  |
|   \\  /    A nd           | Website:  www.openfoam.com                      |
|    \\/     M anipulation  |                                                 |
\*---------------------------------------------------------------------------*/
FoamFile
{
    version     2.0;
    format      ascii;
    arch        "LSB;label=32;scalar=64";
    class       surfaceScalarField;
    location    "0.9";
    object      phi;
}
// * * * * * * * * * * * * * * * * * * * * * * * * * * * * * * * * * * * * * //

dimensions      [0 3 -1 0 0 0 0];

oriented        oriented;

internalField   nonuniform List<scalar> 
4432
(
-4.84027e-304
-2.56598e-304
-9.49249e-304
-1.17083e-303
-1.418e-303
-1.54123e-303
-1.89172e-303
-1.50799e-303
-2.37442e-303
-1.02641e-303
-2.86071e-303
2.69844e-305
-3.331e-303
1.84719e-303
-3.73809e-303
4.72682e-303
-3.96703e-303
9.11409e-303
-3.66422e-303
1.57417e-302
-1.46186e-303
2.58768e-302
9.93226e-303
4.10794e-302
1.51989e-302
6.18814e-302
-1.71998e-303
2.62361e-302
-8.23691e-303
6.45627e-303
-6.23161e-303
-6.35314e-304
-4.14954e-303
-2.03705e-303
-2.69417e-303
-1.87266e-303
-1.7206e-303
-1.28965e-303
-1.06532e-303
-6.88806e-304
-6.10079e-304
-1.90959e-304
-2.63074e-304
1.52506e-304
2.33322e-304
-1.49265e-303
-4.75091e-304
-2.89918e-303
-2.11063e-303
-4.29896e-303
-2.83585e-303
-5.7144e-303
-2.77211e-303
-7.1525e-303
-1.81294e-303
-8.59454e-303
2.83742e-304
-9.9801e-303
3.89572e-303
-1.117e-302
9.58052e-303
-1.18535e-302
1.81752e-302
-1.12865e-302
3.0991e-302
-7.29545e-303
5.02207e-302
9.72243e-304
7.98843e-302
1.11163e-302
1.22783e-301
-6.3094e-303
4.94735e-302
-1.13543e-302
8.86999e-303
-8.41136e-303
2.18368e-304
-5.88069e-303
-1.68824e-303
-4.00643e-303
-1.75334e-303
-2.68533e-303
-1.25243e-303
-1.75845e-303
-6.50447e-304
-1.09081e-303
-1.02607e-304
-5.50362e-304
3.24322e-304
4.74571e-304
-2.50863e-303
-7.35228e-304
-4.89801e-303
-3.01456e-303
-7.28054e-303
-4.0906e-303
-9.69575e-303
-4.01074e-303
-1.21591e-302
-2.59334e-303
-1.46474e-302
5.21983e-304
-1.70761e-302
5.88474e-303
-1.92508e-302
1.42972e-302
-2.07619e-302
2.69436e-302
-2.07545e-302
4.56473e-302
-1.70956e-302
7.34186e-302
-1.33667e-302
1.15928e-301
2.78517e-303
1.76653e-301
-1.18492e-302
6.75927e-302
-1.34523e-302
1.10389e-302
-9.95624e-303
1.15618e-303
-7.15447e-303
-1.16173e-303
-5.0261e-303
-1.46378e-303
-3.47678e-303
-1.08898e-303
-2.36025e-303
-5.35209e-304
-1.53732e-303
2.05439e-305
-8.48027e-304
5.03962e-304
7.28827e-304
-3.56536e-303
-1.01577e-303
-6.99508e-303
-3.92896e-303
-1.04256e-302
-5.37112e-303
-1.39139e-302
-5.30237e-303
-1.74885e-302
-3.45614e-303
-2.11313e-302
6.44122e-304
-2.47515e-302
7.71049e-303
-2.81367e-302
1.87674e-302
-3.08586e-302
3.53077e-302
-3.21137e-302
5.95922e-302
-3.00667e-302
9.52775e-302
-3.16546e-302
1.48906e-301
-7.68194e-303
2.22766e-301
-1.75247e-302
8.1122e-302
-1.56494e-302
1.3305e-302
-1.15545e-302
2.08353e-303
-8.43079e-303
-6.33027e-304
-6.04998e-303
-1.15294e-303
-4.2873e-303
-9.05369e-304
-2.99677e-303
-4.1226e-304
-2.03304e-303
1.35704e-304
-1.20462e-303
6.65503e-304
9.80866e-304
-4.69078e-303
-1.31989e-303
-9.23567e-303
-4.90089e-303
-1.3795e-302
-6.74729e-303
-1.84446e-302
-6.73198e-303
-2.32308e-302
-4.49889e-303
-2.81498e-302
5.43834e-304
-3.31213e-302
9.26017e-303
-3.7945e-302
2.28765e-302
-4.2227e-302
4.31533e-302
-4.5283e-302
7.27115e-302
-4.55576e-302
1.15671e-301
-5.2752e-302
1.78919e-301
-1.96856e-302
2.63165e-301
-2.35516e-302
9.25923e-302
-1.82121e-302
1.55909e-302
-1.33622e-302
2.97262e-303
-9.82954e-303
-1.43994e-304
-7.16002e-303
-8.65294e-304
-5.17094e-303
-7.38172e-304
-3.70405e-303
-3.10639e-304
-2.60484e-303
2.14968e-304
-1.64135e-303
7.71962e-304
1.17081e-303
-5.90912e-303
-1.6572e-303
-1.16623e-302
-5.97249e-303
-1.74474e-302
-8.28477e-303
-2.33614e-302
-8.38336e-303
-2.94728e-302
-5.81909e-303
-3.57999e-302
1.12915e-304
-4.22868e-302
1.04199e-302
-4.87672e-302
2.65085e-302
-5.49109e-302
5.03668e-302
-6.01688e-302
8.48942e-302
-6.31733e-302
1.34509e-301
-7.60574e-302
2.06199e-301
-3.30396e-302
2.99622e-301
-3.00787e-302
1.03031e-301
-2.11841e-302
1.78574e-302
-1.5422e-302
3.82529e-303
-1.13932e-302
2.9915e-304
-8.38831e-303
-6.14484e-304
-6.14854e-303
-6.02241e-304
-4.49448e-303
-2.45591e-304
-3.26272e-303
2.3664e-304
-2.1785e-303
7.77946e-304
1.18206e-303
-7.24231e-303
-2.04213e-303
-1.43156e-302
-7.18372e-303
-2.14403e-302
-1.00491e-302
-2.87366e-302
-1.03424e-302
-3.6299e-302
-7.51918e-303
-4.41743e-302
-7.62293e-304
-5.23411e-302
1.10693e-302
-6.06814e-302
2.9543e-302
-6.89431e-302
5.68335e-302
-7.67089e-302
9.60412e-302
-8.27294e-302
1.51745e-301
-1.01356e-301
2.30915e-301
-4.77331e-302
3.32882e-301
-3.71683e-302
1.12691e-301
-2.45424e-302
2.00854e-302
-1.77378e-302
4.65292e-303
-1.31357e-302
7.03278e-304
-9.74764e-303
-4.01173e-304
-7.22705e-303
-5.02096e-304
-5.36754e-303
-2.23876e-304
-4.00103e-303
1.86923e-304
-2.83496e-303
6.3173e-304
8.25944e-304
-8.71062e-303
-2.4887e-303
-1.7235e-302
-8.56265e-303
-2.58305e-302
-1.209e-302
-3.46419e-302
-1.26802e-302
-4.37928e-302
-9.68995e-303
-5.33636e-302
-2.19068e-303
-6.3374e-302
1.10835e-302
-7.3762e-302
3.18419e-302
-8.43596e-302
6.24068e-302
-9.48754e-302
1.0601e-301
-1.04048e-301
1.67268e-301
-1.28806e-301
2.52918e-301
-6.35627e-302
3.61461e-301
-4.48321e-302
1.21241e-301
-2.82282e-302
2.22686e-302
-2.02834e-302
5.47501e-303
-1.50455e-302
1.08728e-303
-1.12311e-302
-2.12967e-304
-8.39715e-303
-4.3004e-304
-6.30447e-303
-2.39821e-304
-4.78171e-303
7.19766e-305
-3.62134e-303
3.43288e-304
2.24937e-304
-1.08775e-306
-5.49497e-306
-1.52052e-306
-1.97922e-305
-1.25913e-306
-1.74777e-305
-1.28885e-306
-1.05177e-305
-1.23907e-306
-5.25576e-306
-1.02513e-306
-2.33584e-306
-7.45641e-307
-9.36718e-307
-4.91927e-307
-3.25301e-307
-3.01119e-307
-8.0387e-308
-1.73457e-307
5.51075e-309
-9.47687e-308
2.73461e-308
-4.92615e-308
2.63688e-308
-2.43383e-308
1.93822e-308
-1.13656e-308
1.24858e-308
-4.95424e-309
7.35196e-309
-1.96354e-309
4.00679e-309
-6.64671e-310
1.99853e-309
-1.5664e-310
8.38909e-310
1.80081e-310
-2.04476e-306
-1.39579e-305
-3.57607e-306
-3.50205e-305
-3.64439e-306
-2.8109e-305
-3.52283e-306
-1.6331e-305
-3.04167e-306
-7.99231e-306
-2.34359e-306
-3.45644e-306
-1.64297e-306
-1.30891e-306
-1.06861e-306
-3.9041e-307
-6.54227e-307
-4.05866e-308
-3.80577e-307
6.67874e-308
-2.11476e-307
8.07611e-308
-1.12469e-307
6.51219e-308
-5.71802e-308
4.48385e-308
-2.76558e-308
2.81093e-308
-1.25902e-308
1.64376e-308
-5.27545e-309
9.04113e-309
-1.92803e-309
4.64336e-309
-5.045e-310
2.09177e-309
5.43386e-310
-3.61854e-306
-2.97879e-305
-6.66771e-306
-5.60267e-305
-7.14685e-306
-4.08136e-305
-6.62266e-306
-2.26543e-305
-5.40098e-306
-1.07839e-305
-3.98589e-306
-4.53033e-306
-2.72073e-306
-1.62283e-306
-1.74532e-306
-4.05833e-307
-1.06366e-306
3.70966e-308
-6.2007e-307
1.55217e-307
-3.47059e-307
1.52777e-307
-1.86712e-307
1.1616e-307
-9.64126e-308
7.81646e-308
-4.75688e-308
4.86469e-308
-2.22133e-308
2.85303e-308
-9.62537e-309
1.58909e-308
-3.68937e-309
8.37737e-309
-1.04082e-309
3.97985e-309
1.18431e-309
-7.11355e-306
-6.02885e-305
-1.21442e-305
-8.7176e-305
-1.28093e-305
-5.74387e-305
-1.13096e-305
-3.02963e-305
-8.80957e-306
-1.39934e-305
-6.28392e-306
-5.71837e-306
-4.19587e-306
-1.94621e-306
-2.65854e-306
-3.96772e-307
-1.61204e-306
1.46038e-307
-9.40191e-307
2.71497e-307
-5.28757e-307
2.46317e-307
-2.86867e-307
1.82519e-307
-1.49888e-307
1.21798e-307
-7.51013e-308
7.58346e-308
-3.57739e-308
4.47795e-308
-1.59157e-308
2.52824e-308
-6.33357e-309
1.36468e-308
-1.89811e-309
6.77053e-309
2.23715e-309
-1.49913e-305
-1.18973e-304
-2.20099e-305
-1.32347e-304
-2.20202e-305
-7.87894e-305
-1.84176e-305
-3.95004e-305
-1.37646e-305
-1.77426e-305
-9.54045e-306
-7.08743e-306
-6.25513e-306
-2.31299e-306
-3.92308e-306
-3.78332e-307
-2.36903e-306
2.81032e-307
-1.38239e-306
4.15088e-307
-7.80701e-307
3.62675e-307
-4.26652e-307
2.65936e-307
-2.25207e-307
1.77323e-307
-1.14342e-307
1.10912e-307
-5.53977e-308
6.60793e-308
-2.52049e-308
3.78303e-308
-1.03534e-308
2.08636e-308
-3.26439e-309
1.07367e-308
3.87298e-309
-3.26422e-305
-2.30211e-304
-3.95707e-305
-1.94118e-304
-3.66858e-305
-1.04777e-304
-2.89598e-305
-5.02099e-305
-2.08265e-305
-2.20651e-305
-1.40825e-305
-8.67871e-306
-9.09594e-306
-2.74986e-306
-5.65967e-306
-3.63948e-307
-3.40821e-306
4.36867e-307
-1.99102e-306
5.85048e-307
-1.12919e-306
5.0276e-307
-6.21347e-307
3.67874e-307
-3.31042e-307
2.46155e-307
-1.70086e-307
1.55032e-307
-8.36561e-308
9.32847e-308
-3.88197e-308
5.41327e-308
-1.63939e-308
3.04297e-308
-5.40415e-309
1.61358e-308
6.25757e-309
-7.15075e-305
-4.48918e-304
-7.02411e-305
-2.70054e-304
-5.93001e-305
-1.33855e-304
-4.41326e-305
-6.20656e-305
-3.06407e-305
-2.69295e-305
-2.02891e-305
-1.05194e-305
-1.29505e-305
-3.28274e-306
-8.01247e-306
-3.69837e-307
-4.81885e-306
6.05081e-307
-2.82074e-306
7.7767e-307
-1.60713e-306
6.65402e-307
-8.90376e-307
4.8834e-307
-4.78599e-307
3.28738e-307
-2.48629e-307
2.0871e-307
-1.23976e-307
1.26836e-307
-5.85533e-308
7.45134e-308
-2.53375e-308
4.25508e-308
-8.68923e-309
2.30653e-308
9.42903e-309
-1.52708e-304
-6.6769e-304
-1.22262e-304
-3.40369e-304
-9.22341e-305
-1.61904e-304
-6.49228e-305
-7.40544e-305
-4.37259e-305
-3.20186e-305
-2.84682e-305
-1.2494e-305
-1.80105e-305
-3.86757e-306
-1.11022e-305
-3.79836e-307
-6.67675e-306
7.90688e-307
-3.91856e-306
9.93727e-307
-2.24322e-306
8.49985e-307
-1.25091e-306
6.26443e-307
-6.77921e-307
4.24279e-307
-3.55692e-307
2.71339e-307
-1.7952e-307
1.6629e-307
-8.60909e-308
9.86424e-308
-3.80367e-308
5.69626e-308
-1.35184e-308
3.12859e-308
1.31308e-308
-2.38313e-302
-3.63219e-303
-4.72018e-302
-1.20229e-302
-7.07883e-302
-1.73393e-302
-9.49872e-302
-1.89717e-302
-1.20168e-301
-1.60629e-302
-1.46624e-301
-7.46295e-303
-1.74548e-301
8.3275e-303
-2.04008e-301
3.32495e-302
-2.34924e-301
6.98241e-302
-2.67073e-301
1.21363e-301
-2.95431e-301
1.92268e-301
-3.73957e-301
2.88287e-301
-1.90391e-301
4.0504e-301
-1.22221e-301
1.35004e-301
-7.3034e-302
2.63837e-302
-5.21158e-302
7.08265e-303
-3.87174e-302
1.82503e-303
-2.9078e-302
1.23845e-304
-2.1913e-302
-3.35881e-304
-1.65715e-302
-3.35064e-304
-1.26165e-302
-2.24886e-304
-9.66483e-303
-2.32857e-304
-5.97569e-304
-6.68561e-303
-3.14931e-302
-5.07453e-303
-6.24329e-302
-1.63542e-302
-9.37115e-302
-2.40865e-302
-1.25874e-301
-2.74444e-302
-1.59462e-301
-2.53641e-302
-1.94962e-301
-1.64957e-302
-2.3279e-301
8.48547e-304
-2.73282e-301
2.87629e-302
-3.16685e-301
6.98429e-302
-3.63169e-301
1.273e-301
-4.06551e-301
2.05102e-301
-5.15747e-301
3.07889e-301
-2.7408e-301
4.29376e-301
-1.61149e-301
1.43304e-301
-9.19168e-302
2.92926e-302
-6.48559e-302
8.21027e-303
-4.8036e-302
2.30127e-303
-3.60966e-302
2.93933e-304
-2.72144e-302
-3.51204e-304
-2.04898e-302
-4.88357e-304
-1.53307e-302
-4.90859e-304
-1.12402e-302
-5.5899e-304
-7.97159e-304
-7.66248e-303
-3.95844e-302
-6.93563e-303
-7.84742e-302
-2.19456e-302
-1.17836e-301
-3.29572e-302
-1.58387e-301
-3.89343e-302
-2.00858e-301
-3.86142e-302
-2.45935e-301
-3.04607e-302
-2.94252e-301
-1.2628e-302
-3.46374e-301
1.70865e-302
-4.02796e-301
6.12902e-302
-4.6394e-301
1.23036e-301
-5.22697e-301
2.05841e-301
-6.60931e-301
3.13426e-301
-3.61008e-301
4.38256e-301
-2.02034e-301
1.4705e-301
-1.11994e-301
3.07198e-302
-7.8143e-302
8.59585e-303
-5.75623e-302
2.33321e-303
-4.3121e-302
1.82378e-304
-3.24018e-302
-5.35829e-304
-2.42397e-302
-7.14501e-304
-1.79084e-302
-7.26735e-304
-1.28722e-302
-7.42225e-304
-8.0728e-304
-8.72345e-303
-4.81192e-302
-9.35112e-303
-9.53312e-302
-2.92026e-302
-1.4314e-301
-4.46101e-302
-1.92451e-301
-5.43291e-302
-2.44197e-301
-5.68964e-302
-2.99269e-301
-5.05953e-302
-3.58498e-301
-3.34315e-302
-4.22643e-301
-3.11016e-303
-4.9238e-301
4.29812e-302
-5.68288e-301
1.07759e-301
-6.42204e-301
1.94401e-301
-8.08952e-301
3.06003e-301
-4.50462e-301
4.34295e-301
-2.4481e-301
1.46929e-301
-1.33257e-301
3.05763e-302
-9.20372e-302
8.09181e-303
-6.73858e-302
1.79701e-303
-5.02646e-302
-2.99763e-304
-3.76176e-302
-9.49286e-304
-2.7998e-302
-1.05717e-303
-2.05416e-302
-9.87248e-304
-1.46562e-302
-8.90135e-304
-8.0104e-304
-9.93432e-303
-5.70861e-302
-1.24689e-302
-1.12969e-301
-3.85602e-302
-1.69553e-301
-5.97565e-302
-2.27954e-301
-7.45915e-302
-2.89319e-301
-8.13914e-302
-3.54744e-301
-7.82503e-302
-4.25252e-301
-6.30211e-302
-5.0177e-301
-3.33052e-302
-5.85113e-301
1.35409e-302
-6.75972e-301
8.03711e-302
-7.65069e-301
1.7018e-301
-9.60242e-301
2.85743e-301
-5.42907e-301
4.18396e-301
-2.89589e-301
1.43011e-301
-1.55676e-301
2.86935e-302
-1.06555e-301
6.53686e-303
-7.75533e-302
5.62313e-304
-5.75958e-302
-1.25226e-303
-4.29422e-302
-1.66873e-303
-3.18425e-302
-1.58314e-303
-2.3276e-302
-1.3437e-303
-1.65645e-302
-1.08713e-303
-8.48255e-304
-1.12464e-302
-6.64514e-302
-1.64535e-302
-1.31309e-301
-5.05001e-302
-1.96956e-301
-7.91836e-302
-2.64737e-301
-1.00791e-301
-3.36037e-301
-1.13412e-301
-4.12171e-301
-1.14935e-301
-4.9435e-301
-1.0304e-301
-5.83661e-301
-7.52029e-302
-6.81043e-301
-2.86996e-302
-7.87275e-301
3.935e-302
-8.91951e-301
1.31924e-301
-1.11595e-300
2.51748e-301
-6.39258e-301
3.89999e-301
-3.36598e-301
1.34802e-301
-1.79233e-301
2.4745e-302
-1.21688e-301
3.7016e-303
-8.8076e-302
-1.53849e-303
-6.51391e-302
-2.79972e-303
-4.8404e-302
-2.79e-303
-3.5792e-302
-2.37153e-303
-2.61059e-302
-1.86691e-303
-1.85608e-302
-1.39511e-303
-9.84818e-304
-1.26205e-302
-7.61487e-302
-2.14922e-302
-1.50213e-301
-6.55662e-302
-2.25143e-301
-1.03782e-301
-3.0255e-301
-1.34135e-301
-3.84087e-301
-1.54444e-301
-4.71307e-301
-1.6236e-301
-5.65626e-301
-1.5537e-301
-6.68292e-301
-1.30793e-301
-7.80365e-301
-8.57811e-302
-9.02708e-301
-1.73354e-302
-1.02378e-300
7.76507e-302
-1.27751e-300
2.02091e-301
-7.4063e-301
3.47187e-301
-3.86127e-301
1.21244e-301
-2.03922e-301
1.82033e-302
-1.37412e-301
-7.41144e-304
-9.89374e-302
-4.72664e-303
-7.28866e-302
-5.09762e-303
-5.39979e-302
-4.42623e-303
-3.98363e-302
-3.50824e-303
-2.90105e-302
-2.62394e-303
-2.06149e-302
-1.86322e-303
-1.23666e-303
-1.40311e-302
-8.60612e-302
-2.78035e-302
-1.69438e-301
-8.4387e-302
-2.53768e-301
-1.34578e-301
-3.40974e-301
-1.76012e-301
-4.33024e-301
-2.06186e-301
-5.31743e-301
-2.2248e-301
-6.3877e-301
-2.22169e-301
-7.55528e-301
-2.02397e-301
-8.83202e-301
-1.60153e-301
-1.02274e-300
-9.22588e-302
-1.16148e-300
4.64431e-303
-1.44634e-300
1.33847e-301
-8.48121e-301
2.86741e-301
-4.38466e-301
1.00688e-301
-2.29725e-301
8.3154e-303
-1.53682e-301
-7.22736e-303
-1.10096e-301
-9.27981e-303
-8.08058e-302
-8.32998e-303
-5.96972e-302
-6.70297e-303
-4.39501e-302
-5.0814e-303
-3.19635e-302
-3.6772e-303
-2.27017e-302
-2.53313e-303
-1.62624e-303
-1.54596e-302
-9.59922e-302
-3.56482e-302
-1.88585e-301
-1.07704e-301
-2.82258e-301
-1.72774e-301
-3.79315e-301
-2.28038e-301
-4.82099e-301
-2.706e-301
-5.92748e-301
-2.97538e-301
-7.13152e-301
-3.05905e-301
-8.44922e-301
-2.92677e-301
-9.89373e-301
-2.5468e-301
-1.14754e-300
-1.88518e-301
-1.30564e-300
-9.0513e-302
-1.62354e-300
4.31464e-302
-9.62612e-301
2.04192e-301
-4.93822e-301
7.0866e-302
-2.56581e-301
-5.90253e-303
-1.70416e-301
-1.62949e-302
-1.21482e-301
-1.55207e-302
-8.88421e-302
-1.26975e-302
-6.54587e-302
-9.74821e-303
-4.80982e-302
-7.17449e-303
-3.49354e-302
-5.08162e-303
-2.47974e-302
-3.43962e-303
-2.17295e-303
-1.68893e-302
-1.05625e-301
-4.53474e-302
-2.07013e-301
-1.36414e-301
-3.09701e-301
-2.19812e-301
-4.16465e-301
-2.92122e-301
-5.30098e-301
-3.49969e-301
-6.53101e-301
-3.90103e-301
-7.87638e-301
-4.09377e-301
-9.35511e-301
-4.04642e-301
-1.09816e-300
-3.72601e-301
-1.27672e-300
-3.09672e-301
-1.45627e-300
-2.11838e-301
-1.80954e-300
-7.46982e-302
-1.08451e-300
9.39473e-302
-5.52217e-301
2.89089e-302
-2.84345e-301
-2.56409e-302
-1.87485e-301
-2.85517e-302
-1.32995e-301
-2.37874e-302
-9.69194e-302
-1.83938e-302
-7.12247e-302
-1.3675e-302
-5.22361e-302
-9.85514e-303
-3.78919e-302
-6.87841e-303
-2.68764e-302
-4.60751e-303
-2.89082e-303
-1.83028e-302
-1.14462e-301
-5.73108e-302
-2.23728e-301
-1.71638e-301
-3.34689e-301
-2.77463e-301
-4.50725e-301
-3.7056e-301
-5.75166e-301
-4.46971e-301
-7.10911e-301
-5.03116e-301
-8.60401e-301
-5.35718e-301
-1.02562e-300
-5.41606e-301
-1.20811e-300
-5.17468e-301
-1.40908e-300
-4.59619e-301
-1.61248e-300
-3.63781e-301
-2.0038e-300
-2.24984e-301
-1.21349e-300
-5.04758e-302
-6.13373e-301
-2.85678e-302
-3.12755e-301
-5.22202e-302
-2.04698e-301
-4.46066e-302
-1.44497e-301
-3.43782e-302
-1.04937e-301
-2.55658e-302
-7.69204e-302
-1.85555e-302
-5.63078e-302
-1.31591e-302
-4.0791e-302
-9.08573e-303
-2.89081e-302
-6.04636e-303
-3.78501e-303
-1.9679e-302
-1.21735e-301
-7.20881e-302
-2.37208e-301
-2.14823e-301
-3.55107e-301
-3.47957e-301
-4.79582e-301
-4.66157e-301
-6.14582e-301
-5.64769e-301
-7.63411e-301
-6.39934e-301
-9.28742e-301
-6.88395e-301
-1.11268e-300
-7.0714e-301
-1.31683e-300
-6.93023e-301
-1.54242e-300
-6.42434e-301
-1.77228e-300
-5.50988e-301
-2.20451e-300
-4.13297e-301
-1.34825e-300
-2.36056e-301
-6.76584e-301
-1.05239e-301
-3.41384e-301
-8.69261e-302
-2.21781e-301
-6.49426e-302
-1.558e-301
-4.74641e-302
-1.12761e-301
-3.42574e-302
-8.24486e-302
-2.43865e-302
-6.02406e-302
-1.707e-302
-4.35786e-302
-1.16873e-302
-3.0853e-302
-7.74391e-303
-4.84774e-303
-2.09905e-302
-1.26251e-301
-9.04671e-302
-2.45127e-301
-2.67927e-301
-3.67803e-301
-4.34196e-301
-4.99399e-301
-5.82407e-301
-6.44518e-301
-7.07123e-301
-8.06779e-301
-8.04368e-301
-9.88951e-301
-8.71175e-301
-1.19313e-300
-9.0498e-301
-1.42088e-300
-9.03068e-301
-1.67339e-300
-8.62145e-301
-1.93234e-300
-7.77986e-301
-2.40833e-300
-6.45077e-301
-1.48624e-300
-4.69689e-301
-7.40578e-301
-2.04631e-301
-3.69604e-301
-1.307e-301
-2.38362e-301
-8.97101e-302
-1.66658e-301
-6.29616e-302
-1.20216e-301
-4.4337e-302
-8.7678e-302
-3.10499e-302
-6.39358e-302
-2.14985e-302
-4.61808e-302
-1.46214e-302
-3.26572e-302
-9.65998e-303
-6.0547e-303
-2.21996e-302
-1.261e-301
-1.13679e-301
-2.43868e-301
-3.33726e-301
-3.68081e-301
-5.40071e-301
-5.04997e-301
-7.23726e-301
-6.59745e-301
-8.78508e-301
-8.3597e-301
-1.0007e-300
-1.03624e-300
-1.08807e-300
-1.2624e-300
-1.13891e-300
-1.5158e-300
-1.15128e-300
-1.79753e-300
-1.12249e-300
-2.08804e-300
-1.04882e-300
-2.61036e-300
-9.25083e-301
-1.62353e-300
-7.57424e-301
-8.03356e-301
-3.29347e-301
-3.96512e-301
-1.83606e-301
-2.53924e-301
-1.18417e-301
-1.76725e-301
-8.03722e-302
-1.27052e-301
-5.5419e-302
-9.2423e-302
-3.82759e-302
-6.72541e-302
-2.62654e-302
-4.84943e-302
-1.77724e-302
-3.42463e-302
-1.17223e-302
-7.36249e-303
-2.32551e-302
-1.18058e-301
-1.43839e-301
-2.27614e-301
-4.16358e-301
-3.48861e-301
-6.70923e-301
-4.89072e-301
-8.95717e-301
-6.53327e-301
-1.08419e-300
-8.44638e-301
-1.23361e-300
-1.06482e-300
-1.3432e-300
-1.31507e-300
-1.41262e-300
-1.59633e-300
-1.44104e-300
-1.90942e-300
-1.42668e-300
-2.23359e-300
-1.36668e-300
-2.80423e-300
-1.2568e-300
-1.75467e-300
-1.10357e-300
-8.61889e-301
-4.79683e-301
-4.2077e-301
-2.43926e-301
-2.67707e-301
-1.49513e-301
-1.85487e-301
-9.86115e-302
-1.329e-301
-6.68015e-302
-9.64117e-302
-4.56231e-302
-6.99962e-302
-3.10958e-302
-5.03754e-302
-2.09698e-302
-3.55192e-302
-1.38257e-302
-8.70805e-303
-2.40889e-302
-9.61607e-302
-1.84829e-301
-1.86532e-301
-5.22214e-301
-2.9928e-301
-8.34146e-301
-4.41417e-301
-1.10538e-300
-6.16379e-301
-1.33014e-300
-8.2522e-301
-1.508e-300
-1.06814e-300
-1.64059e-300
-1.34524e-300
-1.72948e-300
-1.65677e-300
-1.77524e-300
-2.00322e-300
-1.77719e-300
-2.36257e-300
-1.7336e-300
-2.98263e-300
-1.64187e-300
-1.87241e-300
-1.50975e-300
-9.11286e-301
-6.50941e-301
-4.40203e-301
-3.06687e-301
-2.7849e-301
-1.79908e-301
-1.92139e-301
-1.15897e-301
-1.37199e-301
-7.74597e-302
-9.92486e-302
-5.24924e-302
-7.18851e-302
-3.56317e-302
-5.16326e-302
-2.3996e-302
-3.63465e-302
-1.5837e-302
-1.00106e-302
-2.46164e-302
-4.78885e-302
-2.4356e-301
-1.03054e-301
-6.61135e-301
-2.02473e-301
-1.03962e-300
-3.48114e-301
-1.36091e-300
-5.3811e-301
-1.62262e-300
-7.69397e-301
-1.82856e-300
-1.03955e-300
-1.98379e-300
-1.34718e-300
-2.0923e-300
-1.69177e-300
-2.15615e-300
-2.0734e-300
-2.17569e-300
-2.46873e-300
-2.15031e-300
-3.13822e-300
-2.07968e-300
-1.96623e-300
-1.97402e-300
-9.42156e-301
-8.26836e-301
-4.50906e-301
-3.61308e-301
-2.84229e-301
-2.04685e-301
-1.95415e-301
-1.29834e-301
-1.39127e-301
-8.61481e-302
-1.00394e-301
-5.81927e-302
-7.25654e-302
-3.94689e-302
-5.20336e-302
-2.66055e-302
-3.65784e-302
-1.76042e-302
-1.11768e-302
-2.47436e-302
5.7419e-302
-3.01031e-301
5.57399e-302
-8.20812e-301
-3.25464e-302
-1.27308e-300
-1.91276e-301
-1.64455e-300
-4.06693e-301
-1.94108e-300
-6.69192e-301
-2.17284e-300
-9.73255e-301
-2.34923e-300
-1.31625e-300
-2.47686e-300
-1.69721e-300
-2.5591e-300
-2.11585e-300
-2.59685e-300
-2.54723e-300
-2.59006e-300
-3.2651e-300
-2.53618e-300
-2.01598e-300
-2.48944e-300
-9.32104e-301
-9.61271e-301
-4.45924e-301
-3.89092e-301
-2.81677e-301
-2.17586e-301
-1.93505e-301
-1.37906e-301
-1.37616e-301
-9.16543e-302
-9.92036e-302
-6.20597e-302
-7.16455e-302
-4.22131e-302
-5.13388e-302
-2.85535e-302
-3.60683e-302
-1.89723e-302
-1.2109e-302
-2.43827e-302
3.05221e-301
-6.43258e-301
3.51792e-301
-1.30262e-300
2.46565e-301
-1.83012e-300
4.81353e-302
-2.24841e-300
-2.12428e-301
-2.57609e-300
-5.1938e-301
-2.83093e-300
-8.65903e-301
-3.02693e-300
-1.24992e-300
-3.17313e-300
-1.67118e-300
-3.27395e-300
-2.12931e-300
-3.33024e-300
-2.59206e-300
-3.34182e-300
-3.36313e-300
-3.31479e-300
-1.97406e-300
-2.15056e-300
-8.25701e-301
-8.31573e-301
-4.16926e-301
-3.66884e-301
-2.66643e-301
-2.14273e-301
-1.8434e-301
-1.38555e-301
-1.31589e-301
-9.31613e-302
-9.51009e-302
-6.35973e-302
-6.88072e-302
-4.35467e-302
-4.9369e-302
-2.96321e-302
-3.47143e-302
-1.98042e-302
-1.27179e-302
-2.34763e-302
9.06948e-301
-1.00047e-301
8.43563e-301
-6.46272e-301
6.45065e-301
-1.05113e-300
3.64637e-301
-1.35457e-300
3.54886e-302
-1.58481e-300
-3.28333e-301
-1.76006e-300
-7.23728e-301
-1.89245e-300
-1.15256e-300
-1.98899e-300
-1.61752e-300
-2.05181e-300
-2.11891e-300
-2.07727e-300
-2.65092e-300
-2.05091e-300
-2.2609e-300
-1.93505e-300
-1.15091e-300
-1.1147e-300
-5.60387e-301
-5.42309e-301
-3.46834e-301
-3.08525e-301
-2.34956e-301
-1.96586e-301
-1.66583e-301
-1.31846e-301
-1.20563e-301
-9.04545e-302
-8.7896e-302
-6.25867e-302
-6.39744e-302
-4.32945e-302
-4.60946e-302
-2.97106e-302
-3.25064e-302
-2.00059e-302
-1.29384e-302
-2.20226e-302
5.93292e-301
-3.54581e-301
4.59888e-301
-5.88332e-301
3.16992e-301
-7.34259e-301
1.60801e-301
-8.37711e-301
1.22874e-304
-9.13593e-301
-1.66094e-301
-9.68394e-301
-3.40679e-301
-1.00591e-300
-5.25466e-301
-1.02796e-300
-7.17546e-301
-1.03383e-300
-9.01198e-301
-1.01797e-300
-1.02636e-300
-9.62515e-301
-8.70646e-301
-8.20604e-301
-5.58972e-301
-5.50217e-301
-3.75779e-301
-3.68285e-301
-2.66731e-301
-2.47962e-301
-1.93717e-301
-1.70805e-301
-1.42621e-301
-1.19402e-301
-1.05592e-301
-8.40334e-302
-7.81331e-302
-5.91786e-302
-5.74536e-302
-4.1485e-302
-4.16974e-302
-2.87748e-302
-2.95555e-302
-1.95512e-302
-1.27444e-302
-2.00898e-302
1.24388e-301
-2.74297e-301
6.62369e-302
-3.58029e-301
2.45323e-302
-3.97351e-301
-2.22789e-302
-4.3161e-301
-7.47691e-302
-4.60007e-301
-1.33109e-301
-4.81216e-301
-1.9687e-301
-4.94949e-301
-2.64241e-301
-5.01239e-301
-3.30365e-301
-4.99719e-301
-3.8476e-301
-4.88702e-301
-4.08849e-301
-4.64071e-301
-3.80869e-301
-4.20835e-301
-3.17197e-301
-3.44768e-301
-2.52949e-301
-2.63577e-301
-1.97721e-301
-1.95049e-301
-1.52597e-301
-1.42672e-301
-1.16829e-301
-1.03731e-301
-8.88008e-302
-7.50158e-302
-6.69252e-302
-5.38913e-302
-4.98653e-302
-3.83637e-302
-3.65392e-302
-2.69401e-302
-2.60779e-302
-1.84918e-302
-1.21567e-302
-1.78073e-302
-3.27703e-302
-1.75391e-301
-3.58023e-302
-2.30086e-301
-4.29833e-302
-2.55837e-301
-5.76423e-302
-2.76557e-301
-7.85443e-302
-2.93339e-301
-1.04467e-301
-3.05739e-301
-1.34061e-301
-3.13565e-301
-1.65315e-301
-3.16826e-301
-1.9495e-301
-3.15415e-301
-2.18036e-301
-3.08671e-301
-2.28481e-301
-2.94951e-301
-2.22398e-301
-2.71619e-301
-2.02121e-301
-2.35468e-301
-1.74251e-301
-1.92618e-301
-1.44651e-301
-1.51284e-301
-1.16875e-301
-1.15837e-301
-9.25908e-302
-8.71675e-302
-7.21928e-302
-6.47066e-302
-5.5459e-302
-4.74402e-302
-4.19236e-302
-3.43236e-302
-3.10565e-302
-2.44232e-302
-2.23428e-302
-1.69467e-302
-1.1239e-302
-1.53395e-302
-5.67744e-302
-1.0441e-301
-5.54205e-302
-1.49714e-301
-5.53732e-302
-1.72957e-301
-6.00768e-302
-1.8941e-301
-6.92892e-302
-2.01706e-301
-8.2102e-302
-2.10439e-301
-9.73731e-302
-2.15826e-301
-1.13604e-301
-2.18008e-301
-1.28795e-301
-2.16981e-301
-1.40485e-301
-2.12413e-301
-1.46225e-301
-2.03477e-301
-1.44629e-301
-1.88959e-301
-1.35942e-301
-1.67958e-301
-1.21926e-301
-1.42512e-301
-1.05136e-301
-1.16301e-301
-8.78409e-302
-9.21378e-302
-7.15611e-302
-7.13449e-302
-5.70762e-302
-5.4223e-302
-4.46504e-302
-4.05316e-302
-3.42428e-302
-2.97987e-302
-2.56534e-302
-2.14871e-302
-1.8612e-302
-1.50734e-302
-1.00836e-302
-1.28517e-302
-5.06982e-302
-6.22491e-302
-5.1692e-302
-9.73642e-302
-5.12737e-302
-1.17628e-301
-5.2955e-302
-1.3168e-301
-5.72768e-302
-1.41754e-301
-6.38782e-302
-1.48716e-301
-7.20523e-302
-1.52989e-301
-8.08396e-302
-1.54809e-301
-8.90572e-302
-1.54245e-301
-9.53998e-302
-1.51138e-301
-9.86801e-302
-1.45065e-301
-9.81653e-302
-1.35472e-301
-9.37409e-302
-1.22127e-301
-8.59789e-302
-1.05959e-301
-7.60079e-302
-8.87374e-302
-6.50755e-302
-7.21169e-302
-5.42072e-302
-5.71564e-302
-4.40801e-302
-4.43367e-302
-3.50529e-302
-3.37319e-302
-2.72489e-302
-2.51769e-302
-2.06376e-302
-1.83881e-302
-1.50981e-302
-1.30367e-302
-8.79315e-303
-1.04844e-302
-3.91963e-302
-3.74938e-302
-4.17113e-302
-6.32836e-302
-4.20798e-302
-7.97775e-302
-4.3034e-302
-9.15511e-302
-4.52972e-302
-9.99976e-302
-4.88439e-302
-1.05826e-301
-5.33194e-302
-1.09455e-301
-5.81709e-302
-1.11136e-301
-6.27191e-302
-1.10973e-301
-6.62428e-302
-1.08912e-301
-6.80972e-302
-1.04755e-301
-6.78424e-302
-9.82691e-302
-6.5326e-302
-8.94384e-302
-6.07446e-302
-7.87682e-302
-5.46169e-302
-6.71887e-302
-4.7612e-302
-5.5673e-302
-4.03631e-302
-4.49616e-302
-3.33573e-302
-3.54894e-302
-2.69084e-302
-2.74266e-302
-2.11757e-302
-2.07551e-302
-1.62012e-302
-1.53401e-302
-1.19457e-302
-1.09839e-302
-7.46451e-303
-8.33875e-303
-2.84476e-302
-2.27935e-302
-3.1383e-302
-4.11061e-302
-3.23225e-302
-5.38408e-302
-3.31767e-302
-6.33306e-302
-3.45658e-302
-7.02944e-302
-3.65933e-302
-7.51813e-302
-3.91151e-302
-7.8308e-302
-4.18389e-302
-7.98847e-302
-4.43876e-302
-8.00184e-302
-4.63569e-302
-7.87127e-302
-4.73785e-302
-7.58924e-302
-4.71811e-302
-7.14795e-302
-4.56401e-302
-6.55265e-302
-4.28175e-302
-5.83401e-302
-3.89591e-302
-5.04477e-302
-3.44243e-302
-4.24348e-302
-2.95911e-302
-3.47973e-302
-2.47841e-302
-2.78727e-302
-2.02396e-302
-2.18362e-302
-1.61012e-302
-1.67295e-302
-1.24317e-302
-1.2499e-302
-9.23167e-303
-9.03059e-303
-6.17798e-303
-6.47381e-303
-1.98906e-302
-1.39523e-302
-2.2624e-302
-2.66716e-302
-2.37693e-302
-3.61341e-302
-2.46072e-302
-4.35023e-302
-2.55904e-302
-4.9079e-302
-2.6842e-302
-5.30955e-302
-2.83208e-302
-5.57506e-302
-2.9884e-302
-5.71942e-302
-3.13292e-302
-5.75159e-302
-3.2431e-302
-5.6744e-302
-3.29764e-302
-5.4865e-302
-3.27989e-302
-5.18715e-302
-3.18092e-302
-4.7832e-302
-3.00204e-302
-4.29458e-302
-2.75512e-302
-3.75304e-302
-2.45958e-302
-3.19479e-302
-2.1377e-302
-2.65265e-302
-1.81026e-302
-2.1512e-302
-1.49381e-302
-1.70527e-302
-1.19961e-302
-1.32071e-302
-9.337e-303
-9.96276e-303
-6.977e-303
-7.25594e-303
-4.99208e-303
-4.91131e-303
-1.35516e-302
-8.58348e-303
-1.58269e-302
-1.7275e-302
-1.69303e-302
-2.41052e-302
-1.77045e-302
-2.96446e-302
-1.84554e-302
-3.39766e-302
-1.9285e-302
-3.71894e-302
-2.01937e-302
-3.93867e-302
-2.1117e-302
-4.06612e-302
-2.195e-302
-4.10776e-302
-2.25686e-302
-4.06687e-302
-2.28504e-302
-3.94476e-302
-2.26949e-302
-3.7435e-302
-2.20421e-302
-3.46957e-302
-2.08892e-302
-3.13652e-302
-1.92937e-302
-2.76433e-302
-1.73616e-302
-2.37596e-302
-1.52232e-302
-1.99316e-302
-1.30088e-302
-1.63328e-302
-1.08296e-302
-1.30786e-302
-8.76727e-303
-1.02253e-302
-6.87164e-303
-7.77879e-303
-5.16227e-303
-5.70488e-303
-3.94317e-303
-3.64457e-303
-9.05357e-303
-5.30069e-303
-1.08209e-302
-1.11603e-302
-1.17613e-302
-1.59773e-302
-1.24234e-302
-2.00291e-302
-1.30062e-302
-2.32999e-302
-1.35829e-302
-2.57988e-302
-1.41663e-302
-2.75661e-302
-1.47296e-302
-2.86499e-302
-1.52203e-302
-2.90907e-302
-1.55711e-302
-2.89164e-302
-1.57127e-302
-2.81473e-302
-1.55853e-302
-2.68117e-302
-1.51505e-302
-2.49643e-302
-1.44015e-302
-2.2699e-302
-1.33664e-302
-2.01459e-302
-1.21033e-302
-1.74541e-302
-1.06885e-302
-1.47679e-302
-9.20245e-303
-1.22082e-302
-7.71769e-303
-9.86061e-303
-6.29116e-303
-7.77249e-303
-4.96032e-303
-5.95608e-303
-3.74298e-303
-4.39405e-303
-3.04805e-303
-2.64796e-303
-5.95739e-303
-3.28304e-303
-7.26505e-303
-7.18616e-303
-8.00591e-303
-1.05175e-302
-8.53506e-303
-1.3412e-302
-8.97958e-303
-1.58192e-302
-9.38826e-303
-1.77122e-302
-9.77461e-303
-1.90944e-302
-1.01289e-302
-1.99842e-302
-1.04254e-302
-2.0403e-302
-1.06282e-302
-2.037e-302
-1.06984e-302
-1.99042e-302
-1.0601e-302
-1.90321e-302
-1.03121e-302
-1.77969e-302
-9.82523e-303
-1.62642e-302
-9.15419e-303
-1.45209e-302
-8.33102e-303
-1.26651e-302
-7.40026e-303
-1.07934e-302
-6.41118e-303
-8.98919e-303
-5.41036e-303
-7.31424e-303
-4.43611e-303
-5.80573e-303
-3.51526e-303
-4.47669e-303
-2.66206e-303
-3.3189e-303
-2.30814e-303
-1.88543e-303
-3.87541e-303
-2.03805e-303
-4.80742e-303
-4.6093e-303
-5.35867e-303
-6.87438e-303
-5.75808e-303
-8.8999e-303
-6.08633e-303
-1.06316e-302
-6.37487e-303
-1.20312e-302
-6.63443e-303
-1.30845e-302
-6.86229e-303
-1.37924e-302
-7.04599e-303
-1.41626e-302
-7.16654e-303
-1.42064e-302
-7.20213e-303
-1.39381e-302
-7.13236e-303
-1.33792e-302
-6.94263e-303
-1.25619e-302
-6.62796e-303
-1.15326e-302
-6.195e-303
-1.03496e-302