/*--------------------------------*- C++ -*----------------------------------*\
| =========                 |                                                 |
| \\      /  F ield         | OpenFOAM: The Open Source CFD Toolbox           |
|  \\    /   O peration     | Version:  2406                                  |
|   \\  /    A nd           | Website:  www.openfoam.com                      |
|    \\/     M anipulation  |                                                 |
\*---------------------------------------------------------------------------*/
FoamFile
{
    version     2.0;
    format      ascii;
    arch        "LSB;label=32;scalar=64";
    class       volVectorField;
    location    "0.9";
    object      U;
}
// * * * * * * * * * * * * * * * * * * * * * * * * * * * * * * * * * * * * * //

dimensions      [0 1 -1 0 0 0 0];

internalField   nonuniform List<vector> 
2268
(
(-2.88789e-300 -8.79139e-301 0)
(-8.1632e-300 -3.70532e-300 0)
(-1.35096e-299 -4.72892e-300 0)
(-1.88656e-299 -4.64472e-300 0)
(-2.43252e-299 -3.35352e-300 0)
(-2.98864e-299 -5.13786e-301 0)
(-3.54281e-299 4.42432e-300 0)
(-4.06239e-299 1.22916e-299 0)
(-4.47226e-299 2.44078e-299 0)
(-4.58508e-299 4.30709e-299 0)
(-3.7809e-299 7.25567e-299 0)
(3.73201e-300 1.13621e-298 0)
(2.44654e-298 1.62398e-298 0)
(6.38304e-299 7.3668e-299 0)
(-1.031e-298 2.74648e-299 0)
(-8.49611e-299 -5.52308e-300 0)
(-5.73161e-299 -1.15005e-299 0)
(-3.74243e-299 -1.00394e-299 0)
(-2.40879e-299 -6.77991e-300 0)
(-1.5196e-299 -3.6485e-300 0)
(-9.12695e-300 -1.1852e-300 0)
(-4.8021e-300 3.82677e-301 0)
(-1.20427e-300 6.20846e-301 0)
(-8.95313e-300 -1.88956e-300 0)
(-2.51264e-299 -8.92798e-300 0)
(-4.10665e-299 -1.19009e-299 0)
(-5.70854e-299 -1.16265e-299 0)
(-7.33832e-299 -7.72148e-300 0)
(-8.99194e-299 8.04949e-301 0)
(-1.06307e-298 1.55069e-299 0)
(-1.21554e-298 3.87109e-299 0)
(-1.33474e-298 7.39334e-299 0)
(-1.3716e-298 1.26782e-298 0)
(-1.20529e-298 2.06655e-298 0)
(-4.90383e-299 3.29627e-298 0)
(1.36986e-298 5.05303e-298 0)
(2.78536e-300 2.0942e-298 0)
(-1.46839e-298 4.21985e-299 0)
(-1.12398e-298 -1.33196e-300 0)
(-7.9646e-299 -1.04793e-299 0)
(-5.46192e-299 -1.01666e-299 0)
(-3.68537e-299 -7.13548e-300 0)
(-2.44565e-299 -3.78373e-300 0)
(-1.56918e-299 -8.75252e-301 0)
(-9.21323e-300 1.26287e-300 0)
(-3.35238e-300 1.8967e-300 0)
(-1.4912e-299 -3.23667e-300 0)
(-4.2364e-299 -1.38457e-299 0)
(-6.94651e-299 -1.86979e-299 0)
(-9.67609e-299 -1.82846e-299 0)
(-1.24608e-298 -1.18402e-299 0)
(-1.53003e-298 2.25663e-300 0)
(-1.8142e-298 2.65279e-299 0)
(-2.08454e-298 6.46631e-299 0)
(-2.31071e-298 1.22178e-298 0)
(-2.42954e-298 2.07612e-298 0)
(-2.30903e-298 3.35227e-298 0)
(-1.64417e-298 5.32326e-298 0)
(-3.11821e-299 8.19528e-298 0)
(-9.50354e-299 3.244e-298 0)
(-1.75501e-298 5.35088e-299 0)
(-1.31635e-298 3.68816e-300 0)
(-9.56814e-299 -7.73692e-300 0)
(-6.76662e-299 -8.75201e-300 0)
(-4.70875e-299 -6.37826e-300 0)
(-3.22928e-299 -3.2346e-300 0)
(-2.15954e-299 -2.31882e-301 0)
(-1.35039e-299 2.23658e-300 0)
(-5.85783e-300 3.22393e-300 0)
(-2.10329e-299 -4.69645e-300 0)
(-6.03698e-299 -1.86814e-299 0)
(-9.93388e-299 -2.54397e-299 0)
(-1.38695e-298 -2.49914e-299 0)
(-1.78981e-298 -1.6142e-299 0)
(-2.20308e-298 3.37557e-300 0)
(-2.62151e-298 3.69686e-299 0)
(-3.02965e-298 8.96041e-299 0)
(-3.3944e-298 1.68545e-298 0)
(-3.65109e-298 2.84923e-298 0)
(-3.68095e-298 4.5696e-298 0)
(-3.25376e-298 7.18544e-298 0)
(-2.43931e-298 1.08656e-297 0)
(-1.9482e-298 4.04927e-298 0)
(-2.05296e-298 6.56016e-299 0)
(-1.52003e-298 8.78704e-300 0)
(-1.11804e-298 -4.79812e-300 0)
(-8.06841e-299 -7.04218e-300 0)
(-5.74463e-299 -5.37186e-300 0)
(-4.04393e-299 -2.54031e-300 0)
(-2.79815e-299 4.53551e-301 0)
(-1.8436e-299 3.20119e-300 0)
(-9.06722e-300 4.64012e-300 0)
(-2.75271e-299 -6.26375e-300 0)
(-7.95707e-299 -2.37121e-299 0)
(-1.31294e-298 -3.25148e-299 0)
(-1.83667e-298 -3.22214e-299 0)
(-2.37452e-298 -2.11499e-299 0)
(-2.92944e-298 3.57452e-300 0)
(-3.49758e-298 4.62278e-299 0)
(-4.06452e-298 1.12896e-298 0)
(-4.59891e-298 2.12426e-298 0)
(-5.04216e-298 3.58078e-298 0)
(-5.29664e-298 5.71086e-298 0)
(-5.1949e-298 8.88153e-298 0)
(-4.87669e-298 1.31709e-297 0)
(-2.97364e-298 4.70381e-298 0)
(-2.40356e-298 7.79595e-299 0)
(-1.75454e-298 1.36942e-299 0)
(-1.29625e-298 -2.03225e-300 0)
(-9.47988e-299 -5.39806e-300 0)
(-6.86756e-299 -4.39709e-300 0)
(-4.93849e-299 -1.90798e-300 0)
(-3.51842e-299 1.0107e-300 0)
(-2.42882e-299 3.97961e-300 0)
(-1.31864e-299 5.94343e-300 0)
(-3.456e-299 -7.97785e-300 0)
(-1.00354e-298 -2.91686e-299 0)
(-1.65913e-298 -4.02885e-299 0)
(-2.32437e-298 -4.04168e-299 0)
(-3.0094e-298 -2.73932e-299 0)
(-3.7197e-298 2.29346e-300 0)
(-4.45396e-298 5.36896e-299 0)
(-5.20077e-298 1.33942e-298 0)
(-5.93353e-298 2.53198e-298 0)
(-6.60347e-298 4.26481e-298 0)
(-7.13398e-298 6.77002e-298 0)
(-7.39949e-298 1.04239e-297 0)
(-7.55475e-298 1.52246e-297 0)
(-4.05504e-298 5.28692e-298 0)
(-2.81238e-298 9.0267e-299 0)
(-2.02428e-298 1.83804e-299 0)
(-1.49679e-298 4.7856e-301 0)
(-1.10446e-298 -3.93848e-300 0)
(-8.10723e-299 -3.5678e-300 0)
(-5.93083e-299 -1.44381e-300 0)
(-4.33076e-299 1.30881e-300 0)
(-3.11853e-299 4.34987e-300 0)
(-1.85532e-299 6.68965e-300 0)
(-4.22701e-299 -9.90332e-300 0)
(-1.23083e-298 -3.52746e-299 0)
(-2.03763e-298 -4.91043e-299 0)
(-2.85751e-298 -5.00398e-299 0)
(-3.70349e-298 -3.53949e-299 0)
(-4.58412e-298 -1.0751e-300 0)
(-5.50154e-298 5.87417e-299 0)
(-6.44874e-298 1.52086e-298 0)
(-7.40575e-298 2.9026e-298 0)
(-8.33503e-298 4.8953e-298 0)
(-9.17879e-298 7.74352e-298 0)
(-9.83966e-298 1.18251e-297 0)
(-1.04523e-297 1.71047e-297 0)
(-5.21141e-298 5.83019e-298 0)
(-3.27469e-298 1.02415e-298 0)
(-2.32871e-298 2.28945e-299 0)
(-1.72111e-298 2.74927e-300 0)
(-1.27797e-298 -2.69181e-300 0)
(-9.47567e-299 -2.93039e-300 0)
(-7.0248e-299 -1.20612e-300 0)
(-5.23011e-299 1.24454e-300 0)
(-3.90485e-299 4.04417e-300 0)
(-2.56781e-299 6.06479e-300 0)
(-5.07738e-299 -1.21313e-299 0)
(-1.48103e-298 -4.22378e-299 0)
(-2.45399e-298 -5.93252e-299 0)
(-3.44351e-298 -6.15548e-299 0)
(-4.46576e-298 -4.57372e-299 0)
(-5.53281e-298 -7.15006e-300 0)
(-6.65092e-298 6.06966e-299 0)
(-7.81835e-298 1.66684e-298 0)
(-9.02266e-298 3.22974e-298 0)
(-1.02379e-297 5.46757e-298 0)
(-1.14236e-297 8.62979e-298 0)
(-1.25096e-297 1.30907e-297 0)
(-1.35839e-297 1.88134e-297 0)
(-6.45453e-298 6.32922e-298 0)
(-3.78134e-298 1.14307e-298 0)
(-2.66361e-298 2.73106e-299 0)
(-1.96741e-298 4.8391e-300 0)
(-1.46772e-298 -1.63686e-300 0)
(-1.09653e-298 -2.48723e-300 0)
(-8.20672e-299 -1.20951e-300 0)
(-6.18736e-299 7.7237e-301 0)
(-4.73003e-299 2.7722e-300 0)
(-3.53806e-299 2.84716e-300 0)
(-4.44808e-303 -1.17892e-302 0)
(-2.0387e-302 -6.32868e-302 0)
(-1.43288e-302 -6.00524e-302 0)
(-1.4419e-302 -3.68493e-302 0)
(-1.50074e-302 -1.86157e-302 0)
(-1.32825e-302 -8.42363e-303 0)
(-1.01228e-302 -3.51716e-303 0)
(-6.90138e-303 -1.34125e-303 0)
(-4.33007e-303 -4.36437e-304 0)
(-2.54493e-303 -9.01794e-305 0)
(-1.41536e-303 2.30605e-305 0)
(-7.48361e-304 4.63654e-305 0)
(-3.76356e-304 3.99562e-305 0)
(-1.79326e-304 2.73624e-305 0)
(-8.01685e-305 1.64677e-305 0)
(-3.29445e-305 8.94127e-306 0)
(-1.18862e-305 4.31745e-306 0)
(-3.2893e-306 1.64271e-306 0)
(-2.87037e-307 2.6026e-307 0)
(-6.24798e-303 -4.15763e-302 0)
(-4.0437e-302 -1.28929e-301 0)
(-4.12102e-302 -1.09686e-301 0)
(-4.19969e-302 -6.5295e-302 0)
(-3.84348e-302 -3.24266e-302 0)
(-3.10113e-302 -1.42613e-302 0)
(-2.24966e-302 -5.57996e-303 0)
(-1.5015e-302 -1.81798e-303 0)
(-9.38306e-303 -3.44257e-304 0)
(-5.55396e-303 1.43698e-304 0)
(-3.13519e-303 2.42516e-304 0)
(-1.69313e-303 2.09721e-304 0)
(-8.74706e-304 1.48278e-304 0)
(-4.30806e-304 9.38961e-305 0)
(-2.00619e-304 5.49323e-305 0)
(-8.6834e-305 2.99714e-305 0)
(-3.36127e-305 1.50917e-305 0)
(-1.04071e-305 6.50452e-306 0)
(-1.11141e-306 1.48864e-306 0)
(-1.21842e-302 -9.39787e-302 0)
(-7.04326e-302 -2.1118e-301 0)
(-8.18015e-302 -1.633e-301 0)
(-8.13722e-302 -9.33063e-302 0)
(-6.98335e-302 -4.51923e-302 0)
(-5.34793e-302 -1.93066e-302 0)
(-3.75248e-302 -7.13177e-303 0)
(-2.45937e-302 -1.97357e-303 0)
(-1.52546e-302 -4.99084e-305 0)
(-9.03036e-303 5.04921e-304 0)
(-5.12679e-303 5.41811e-304 0)
(-2.79711e-303 4.22723e-304 0)
(-1.46583e-303 2.8718e-304 0)
(-7.35421e-304 1.79092e-304 0)
(-3.50648e-304 1.04704e-304 0)
(-1.56516e-304 5.78333e-305 0)
(-6.32458e-305 3.00032e-305 0)
(-2.09883e-305 1.38101e-305 0)
(-2.77509e-306 3.78856e-306 0)
(-3.52789e-302 -1.95313e-301 0)
(-1.27134e-301 -3.32934e-301 0)
(-1.50136e-301 -2.33069e-301 0)
(-1.42321e-301 -1.26706e-301 0)
(-1.15894e-301 -5.95381e-302 0)
(-8.52418e-302 -2.46906e-302 0)
(-5.82298e-302 -8.62869e-303 0)
(-3.75683e-302 -1.96776e-303 0)
(-2.31301e-302 4.10179e-304 0)
(-1.36753e-302 1.0025e-303 0)
(-7.79072e-303 9.41915e-304 0)
(-4.28161e-303 7.05389e-304 0)
(-2.268e-303 4.71931e-304 0)
(-1.15418e-303 2.93352e-304 0)
(-5.60496e-304 1.72373e-304 0)
(-2.56277e-304 9.64944e-305 0)
(-1.07102e-304 5.13552e-305 0)
(-3.75031e-305 2.4841e-305 0)
(-5.83363e-306 7.71308e-306 0)
(-1.05698e-301 -3.9019e-301 0)
(-2.36575e-301 -5.13692e-301 0)
(-2.65944e-301 -3.24759e-301 0)
(-2.36812e-301 -1.67523e-301 0)
(-1.83691e-301 -7.63619e-302 0)
(-1.30576e-301 -3.08445e-302 0)
(-8.72477e-302 -1.02723e-302 0)
(-5.55665e-302 -1.88558e-303 0)
(-3.40036e-302 1.0081e-303 0)
(-2.0085e-302 1.6342e-303 0)
(-1.14771e-302 1.45024e-303 0)
(-6.34753e-303 1.06718e-303 0)
(-3.39359e-303 7.10939e-304 0)
(-1.74822e-303 4.43131e-304 0)
(-8.62374e-304 2.62512e-304 0)
(-4.0244e-304 1.49041e-304 0)
(-1.73027e-304 8.1178e-305 0)
(-6.33573e-305 4.09123e-305 0)
(-1.11738e-305 1.40134e-305 0)
(-2.99562e-301 -7.65236e-301 0)
(-4.45711e-301 -7.71622e-301 0)
(-4.57749e-301 -4.4042e-301 0)
(-3.79845e-301 -2.16093e-301 0)
(-2.81352e-301 -9.59486e-302 0)
(-1.94149e-301 -3.79864e-302 0)
(-1.27376e-301 -1.21907e-302 0)
(-8.0298e-302 -1.78867e-303 0)
(-4.89211e-302 1.7212e-303 0)
(-2.88935e-302 2.39701e-303 0)
(-1.65645e-302 2.07196e-303 0)
(-9.21663e-303 1.51551e-303 0)
(-4.96968e-303 1.01117e-303 0)
(-2.58853e-303 6.34012e-304 0)
(-1.29481e-303 3.79231e-304 0)
(-6.15192e-304 2.18355e-304 0)
(-2.71121e-304 1.21443e-304 0)
(-1.03177e-304 6.33597e-305 0)
(-2.0208e-305 2.35998e-305 0)
(-7.93442e-301 -1.47051e-300 0)
(-8.39184e-301 -1.11359e-300 0)
(-7.6453e-301 -5.77141e-301 0)
(-5.89384e-301 -2.7153e-301 0)
(-4.1823e-301 -1.18341e-301 0)
(-2.81344e-301 -4.62986e-302 0)
(-1.81888e-301 -1.4515e-302 0)
(-1.13793e-301 -1.74588e-303 0)
(-6.91441e-302 2.52152e-303 0)
(-4.08777e-302 3.2848e-303 0)
(-2.3524e-302 2.8107e-303 0)
(-1.31692e-302 2.05717e-303 0)
(-7.15943e-303 1.37942e-303 0)
(-3.76773e-303 8.71613e-304 0)
(-1.90885e-303 5.26722e-304 0)
(-9.21702e-304 3.07365e-304 0)
(-4.1516e-304 1.74082e-304 0)
(-1.63334e-304 9.33464e-305 0)
(-3.50549e-305 3.71719e-305 0)
(-1.9205e-300 -2.88925e-300 0)
(-1.56605e-300 -1.50909e-300 0)
(-1.22538e-300 -7.22817e-301 0)
(-8.80467e-301 -3.31232e-301 0)
(-6.01822e-301 -1.4319e-301 0)
(-3.96508e-301 -5.58622e-302 0)
(-2.53465e-301 -1.7366e-302 0)
(-1.57742e-301 -1.84586e-303 0)
(-9.57381e-302 3.35484e-303 0)
(-5.67025e-302 4.2677e-303 0)
(-3.27644e-302 3.65149e-303 0)
(-1.84519e-302 2.68544e-303 0)
(-1.01084e-302 1.81318e-303 0)
(-5.36961e-303 1.15532e-303 0)
(-2.75139e-303 7.05075e-304 0)
(-1.34732e-303 4.16287e-304 0)
(-6.18267e-304 2.39159e-304 0)
(-2.50169e-304 1.30656e-304 0)
(-5.8477e-305 5.43999e-305 0)
(-6.5214e-299 -1.61816e-299 0)
(-1.90591e-298 -5.46138e-299 0)
(-3.16073e-298 -7.77767e-299 0)
(-4.43767e-298 -8.2991e-299 0)
(-5.75824e-298 -6.61886e-299 0)
(-7.14055e-298 -2.17493e-299 0)
(-8.59801e-298 5.78786e-299 0)
(-1.01379e-297 1.82643e-298 0)
(-1.17602e-297 3.6585e-298 0)
(-1.34565e-297 6.25452e-298 0)
(-1.5211e-297 9.86281e-298 0)
(-1.69947e-297 1.4824e-297 0)
(-1.886e-297 2.09632e-297 0)
(-8.49859e-298 6.99126e-298 0)
(-4.62061e-298 1.32545e-298 0)
(-3.21885e-298 3.42749e-299 0)
(-2.37526e-298 8.04988e-300 0)
(-1.78066e-298 -1.11187e-301 0)
(-1.34057e-298 -1.96451e-300 0)
(-1.01156e-298 -1.4732e-300 0)
(-7.6722e-299 -4.28585e-301 0)
(-5.87032e-299 -1.05169e-301 0)
(-4.50389e-299 -2.26124e-300 0)
(-8.6097e-299 -2.30099e-299 0)
(-2.51949e-298 -7.51129e-299 0)
(-4.18204e-298 -1.09315e-298 0)
(-5.87693e-298 -1.21714e-298 0)
(-7.63437e-298 -1.0713e-298 0)
(-9.48222e-298 -5.87762e-299 0)
(-1.14449e-297 3.19753e-299 0)
(-1.35427e-297 1.76119e-298 0)
(-1.57913e-297 3.87553e-298 0)
(-1.82017e-297 6.84054e-298 0)
(-2.07809e-297 1.0883e-297 0)
(-2.3531e-297 1.62823e-297 0)
(-2.64751e-297 2.27407e-297 0)
(-1.14459e-297 7.5757e-298 0)
(-5.85177e-298 1.52136e-298 0)
(-4.01456e-298 4.2147e-299 0)
(-2.94706e-298 1.16422e-299 0)
(-2.20912e-298 1.44747e-300 0)
(-1.66548e-298 -1.65966e-300 0)
(-1.25571e-298 -2.14215e-300 0)
(-9.43664e-299 -1.99794e-300 0)
(-7.01926e-299 -2.40736e-300 0)
(-5.0459e-299 -4.18654e-300 0)
(-1.08263e-298 -3.17444e-299 0)
(-3.16635e-298 -1.0135e-298 0)
(-5.25705e-298 -1.50579e-298 0)
(-7.39148e-298 -1.74412e-298 0)
(-9.60979e-298 -1.66549e-298 0)
(-1.19502e-297 -1.19213e-298 0)
(-1.44484e-297 -2.28194e-299 0)
(-1.71366e-297 1.34232e-298 0)
(-2.00432e-297 3.66053e-298 0)
(-2.31929e-297 6.89514e-298 0)
(-2.66063e-297 1.12475e-297 0)
(-3.03005e-297 1.6939e-297 0)
(-3.42719e-297 2.3589e-297 0)
(-1.4516e-297 7.88683e-298 0)
(-7.17028e-298 1.63932e-298 0)
(-4.85111e-298 4.64419e-299 0)
(-3.53675e-298 1.31885e-299 0)
(-2.64198e-298 1.72407e-300 0)
(-1.98662e-298 -2.12985e-300 0)
(-1.49139e-298 -3.12723e-300 0)
(-1.1105e-298 -3.29844e-300 0)
(-8.1179e-299 -3.62414e-300 0)
(-5.69907e-299 -4.41482e-300 0)
(-1.31784e-298 -4.30912e-299 0)
(-3.84726e-298 -1.35444e-298 0)
(-6.38557e-298 -2.0503e-298 0)
(-8.97904e-298 -2.45691e-298 0)
(-1.16786e-297 -2.50099e-298 0)
(-1.45335e-297 -2.09458e-298 0)
(-1.759e-297 -1.13437e-298 0)
(-2.08911e-297 5.01308e-299 0)
(-2.44753e-297 2.9527e-298 0)
(-2.83766e-297 6.38045e-298 0)
(-3.26233e-297 1.09628e-297 0)
(-3.72392e-297 1.68797e-297 0)
(-4.22041e-297 2.3699e-297 0)
(-1.77048e-297 7.97988e-298 0)
(-8.57305e-298 1.67535e-298 0)
(-5.73077e-298 4.63075e-299 0)
(-4.14849e-298 1.19868e-299 0)
(-3.08468e-298 2.43789e-301 0)
(-2.31072e-298 -3.65175e-300 0)
(-1.72715e-298 -4.58225e-300 0)
(-1.27815e-298 -4.54305e-300 0)
(-9.26778e-299 -4.38447e-300 0)
(-6.46412e-299 -4.29574e-300 0)
(-1.56654e-298 -5.78076e-299 0)
(-4.56108e-298 -1.79652e-298 0)
(-7.56497e-298 -2.76314e-298 0)
(-1.06349e-297 -3.40522e-298 0)
(-1.38336e-297 -3.63814e-298 0)
(-1.72218e-297 -3.36466e-298 0)
(-2.08564e-297 -2.4729e-298 0)
(-2.47901e-297 -8.36895e-299 0)
(-2.90698e-297 1.68498e-298 0)
(-3.37362e-297 5.24674e-298 0)
(-3.88225e-297 1.00131e-297 0)
(-4.43562e-297 1.6138e-297 0)
(-5.03089e-297 2.31615e-297 0)
(-2.10276e-297 7.87382e-298 0)
(-1.00568e-297 1.62384e-298 0)
(-6.65342e-298 4.10033e-299 0)
(-4.78414e-298 7.40288e-300 0)
(-3.54041e-298 -3.47824e-300 0)
(-2.64191e-298 -6.59106e-300 0)
(-1.9675e-298 -6.82464e-300 0)
(-1.45047e-298 -6.10938e-300 0)
(-1.04797e-298 -5.2201e-300 0)
(-7.30065e-299 -4.34749e-300 0)
(-1.82802e-298 -7.67323e-299 0)
(-5.30485e-298 -2.36414e-298 0)
(-8.78986e-298 -3.68459e-298 0)
(-1.23514e-297 -4.64321e-298 0)
(-1.60654e-297 -5.144e-298 0)
(-2.00048e-297 -5.07856e-298 0)
(-2.42376e-297 -4.32709e-298 0)
(-2.88259e-297 -2.75675e-298 0)
(-3.38242e-297 -2.23912e-299 0)
(-3.92788e-297 3.42532e-298 0)
(-4.52271e-297 8.34934e-298 0)
(-5.1699e-297 1.46937e-297 0)
(-5.86616e-297 2.19834e-297 0)
(-2.45097e-297 7.55706e-298 0)
(-1.16207e-297 1.47219e-298 0)
(-7.61814e-298 2.95295e-299 0)
(-5.44382e-298 -1.33551e-300 0)
(-4.01025e-298 -1.00336e-299 0)
(-2.98177e-298 -1.14145e-299 0)
(-2.21391e-298 -1.02575e-299 0)
(-1.62799e-298 -8.38915e-300 0)
(-1.17421e-298 -6.51009e-300 0)
(-8.18101e-299 -4.80519e-300 0)
(-2.10081e-298 -1.00801e-298 0)
(-6.07297e-298 -3.08483e-298 0)
(-1.00509e-297 -4.85934e-298 0)
(-1.4116e-297 -6.23211e-298 0)
(-1.83596e-297 -7.09319e-298 0)
(-2.28682e-297 -7.32294e-298 0)
(-2.77219e-297 -6.79097e-298 0)
(-3.29924e-297 -5.35766e-298 0)
(-3.8742e-297 -2.87278e-298 0)
(-4.50222e-297 8.2056e-299 0)
(-5.18743e-297 5.88523e-298 0)
(-5.93306e-297 1.24699e-297 0)
(-6.73543e-297 2.00975e-297 0)
(-2.81813e-297 6.98805e-298 0)
(-1.32655e-297 1.1978e-298 0)
(-8.62349e-298 1.04108e-299 0)
(-6.12633e-298 -1.52648e-299 0)
(-4.49359e-298 -2.01754e-299 0)
(-3.33005e-298 -1.86896e-299 0)
(-2.46608e-298 -1.53314e-299 0)
(-1.80994e-298 -1.17549e-299 0)
(-1.30404e-298 -8.54321e-300 0)
(-9.0876e-299 -5.82101e-300 0)
(-2.38211e-298 -1.311e-298 0)
(-6.85568e-298 -3.98977e-298 0)
(-1.13318e-297 -6.33879e-298 0)
(-1.59077e-297 -8.24106e-298 0)
(-2.06924e-297 -9.57135e-298 0)
(-2.57883e-297 -1.01957e-297 0)
(-3.12889e-297 -9.97347e-298 0)
(-3.72766e-297 -8.75498e-298 0)
(-4.38216e-297 -6.38301e-298 0)
(-5.09811e-297 -2.69106e-298 0)
(-5.87998e-297 2.4933e-298 0)
(-6.73133e-297 9.33578e-298 0)
(-7.64767e-297 1.73641e-297 0)
(-3.20732e-297 6.0942e-298 0)
(-1.49917e-297 7.66341e-299 0)
(-9.66699e-298 -1.84077e-299 0)
(-6.82918e-298 -3.57357e-299 0)
(-4.98846e-298 -3.48281e-299 0)
(-3.68522e-298 -2.90695e-299 0)
(-2.72267e-298 -2.25226e-299 0)
(-1.99493e-298 -1.65575e-299 0)
(-1.43602e-298 -1.15609e-299 0)
(-1.00077e-298 -7.52257e-300 0)
(-2.66711e-298 -1.689e-298 0)
(-7.63668e-298 -5.1156e-298 0)
(-1.2606e-297 -8.18217e-298 0)
(-1.76916e-297 -1.07507e-297 0)
(-2.30241e-297 -1.26761e-297 0)
(-2.87243e-297 -1.381e-297 0)
(-3.49011e-297 -1.39986e-297 0)
(-4.16485e-297 -1.30836e-297 0)
(-4.90452e-297 -1.08975e-297 0)
(-5.71539e-297 -7.26369e-298 0)
(-6.60233e-297 -1.99218e-298 0)
(-7.56918e-297 5.1063e-298 0)
(-8.61009e-297 1.35753e-297 0)
(-3.62095e-297 4.77002e-298 0)
(-1.67972e-297 1.30892e-299 0)
(-1.07441e-297 -5.95756e-299 0)
(-7.54824e-298 -6.43936e-299 0)
(-5.49158e-298 -5.50525e-299 0)
(-4.04472e-298 -4.32557e-299 0)
(-2.98161e-298 -3.23058e-299 0)
(-2.18125e-298 -2.31196e-299 0)
(-1.56871e-298 -1.57716e-299 0)
(-1.09304e-298 -1.00246e-299 0)
(-2.94792e-298 -2.15745e-298 0)
(-8.38983e-298 -6.50567e-298 0)
(-1.38309e-297 -1.04602e-297 0)
(-1.94123e-297 -1.38547e-297 0)
(-2.5291e-297 -1.65217e-297 0)
(-3.16097e-297 -1.82944e-297 0)
(-3.84941e-297 -1.90087e-297 0)
(-4.60509e-297 -1.84963e-297 0)
(-5.43667e-297 -1.65824e-297 0)
(-6.35101e-297 -1.30774e-297 0)
(-7.35331e-297 -7.77419e-298 0)
(-8.44781e-297 -4.50794e-299 0)
(-9.6262e-297 8.45699e-298 0)
(-4.06005e-297 2.87644e-298 0)
(-1.86744e-297 -7.67776e-299 0)
(-1.18472e-297 -1.16246e-298 0)
(-8.27738e-298 -1.03075e-298 0)
(-5.99828e-298 -8.19539e-299 0)
(-4.40503e-298 -6.19277e-299 0)
(-3.24021e-298 -4.51071e-299 0)
(-2.3668e-298 -3.17112e-299 0)
(-1.70051e-298 -2.1342e-299 0)
(-1.1844e-298 -1.34216e-299 0)
(-3.21212e-298 -2.73554e-298 0)
(-9.0742e-298 -8.21347e-298 0)
(-1.49407e-297 -1.32576e-297 0)
(-2.09848e-297 -1.76654e-297 0)
(-2.7396e-297 -2.12401e-297 0)
(-3.43421e-297 -2.37977e-297 0)
(-4.19669e-297 -2.51632e-297 0)
(-5.03884e-297 -2.51647e-297 0)
(-5.97011e-297 -2.36213e-297 0)
(-6.99777e-297 -2.03362e-297 0)
(-8.12732e-297 -1.50831e-297 0)
(-9.36338e-297 -7.60916e-298 0)
(-1.06941e-296 1.67994e-298 0)
(-4.52326e-297 2.4284e-299 0)
(-2.06068e-297 -1.99888e-298 0)
(-1.29643e-297 -1.91827e-298 0)
(-9.00793e-298 -1.53591e-298 0)
(-6.5023e-298 -1.16515e-298 0)
(-4.76156e-298 -8.5626e-299 0)
(-3.49506e-298 -6.12301e-299 0)
(-2.54901e-298 -4.2507e-299 0)
(-1.82949e-298 -2.83732e-299 0)
(-1.2735e-298 -1.77705e-299 0)
(-3.44035e-298 -3.44831e-298 0)
(-9.6267e-298 -1.03063e-297 0)
(-1.58351e-297 -1.66806e-297 0)
(-2.2282e-297 -2.23181e-297 0)
(-2.91963e-297 -2.69882e-297 0)
(-3.67729e-297 -3.04885e-297 0)
(-4.51715e-297 -3.26409e-297 0)
(-5.45194e-297 -3.32747e-297 0)
(-6.49149e-297 -3.22135e-297 0)
(-7.64333e-297 -2.92568e-297 0)
(-8.91301e-297 -2.4169e-297 0)
(-1.03057e-296 -1.66666e-297 0)
(-1.18044e-296 -7.12629e-298 0)
(-5.0058e-297 -3.32531e-298 0)
(-2.25663e-297 -3.63569e-298 0)
(-1.40778e-297 -2.89479e-298 0)
(-9.72817e-298 -2.17351e-298 0)
(-6.99542e-298 -1.5934e-298 0)
(-5.10833e-298 -1.14588e-298 0)
(-3.74168e-298 -8.07564e-299 0)
(-2.72453e-298 -5.55282e-299 0)
(-1.95319e-298 -3.68671e-299 0)
(-1.35857e-298 -2.30698e-299 0)
(-3.60251e-298 -4.33001e-298 0)
(-9.94921e-298 -1.28731e-297 0)
(-1.63626e-297 -2.08639e-297 0)
(-2.31172e-297 -2.79803e-297 0)
(-3.04882e-297 -3.39505e-297 0)
(-3.86943e-297 -3.85604e-297 0)
(-4.79052e-297 -4.16369e-297 0)
(-5.82486e-297 -4.30258e-297 0)
(-6.98212e-297 -4.25638e-297 0)
(-8.26954e-297 -4.0062e-297 0)
(-9.69264e-297 -3.52828e-297 0)
(-1.1257e-296 -2.79282e-297 0)
(-1.29392e-296 -1.83442e-297 0)
(-5.49836e-297 -8.02998e-298 0)
(-2.45099e-297 -5.74365e-298 0)
(-1.51633e-297 -4.11253e-298 0)
(-1.04224e-297 -2.94788e-298 0)
(-7.46667e-298 -2.10298e-298 0)
(-5.4373e-298 -1.48543e-298 0)
(-3.97405e-298 -1.03429e-298 0)
(-2.88881e-298 -7.05785e-299 0)
(-2.06823e-298 -4.66898e-299 0)
(-1.4372e-298 -2.92374e-299 0)
(-3.65003e-298 -5.43141e-298 0)
(-9.88552e-298 -1.60362e-297 0)
(-1.62912e-297 -2.59859e-297 0)
(-2.32185e-297 -3.48615e-297 0)
(-3.09878e-297 -4.23482e-297 0)
(-3.98291e-297 -4.8231e-297 0)
(-4.99038e-297 -5.2363e-297 0)
(-6.13263e-297 -5.46217e-297 0)
(-7.41792e-297 -5.48774e-297 0)
(-8.85269e-297 -5.29636e-297 0)
(-1.04419e-296 -4.8662e-297 0)
(-1.21918e-296 -4.16758e-297 0)
(-1.40712e-296 -3.23353e-297 0)
(-5.98579e-297 -1.40498e-297 0)
(-2.63743e-297 -8.35895e-298 0)
(-1.61873e-297 -5.56721e-298 0)
(-1.10689e-297 -3.84569e-298 0)
(-7.9007e-298 -2.68099e-298 0)
(-5.73707e-298 -1.86486e-298 0)
(-4.18359e-298 -1.28541e-298 0)
(-3.03545e-298 -8.71869e-299 0)
(-2.16992e-298 -5.75415e-299 0)
(-1.50607e-298 -3.60929e-299 0)
(-3.49836e-298 -6.83452e-298 0)
(-9.17399e-298 -1.99729e-297 0)
(-1.5258e-297 -3.22879e-297 0)
(-2.21886e-297 -4.32287e-297 0)
(-3.03082e-297 -5.24429e-297 0)
(-3.98198e-297 -5.97443e-297 0)
(-5.08435e-297 -6.50398e-297 0)
(-6.34539e-297 -6.82674e-297 0)
(-7.77054e-297 -6.9346e-297 0)
(-9.36441e-297 -6.81534e-297 0)
(-1.11312e-296 -6.45056e-297 0)
(-1.30776e-296 -5.81409e-297 0)
(-1.51645e-296 -4.93908e-297 0)
(-6.44497e-297 -2.14868e-297 0)
(-2.80653e-297 -1.14521e-297 0)
(-1.71001e-297 -7.21005e-298 0)
(-1.16355e-297 -4.82648e-298 0)
(-8.27463e-298 -3.29873e-298 0)
(-5.99087e-298 -2.26511e-298 0)
(-4.35794e-298 -1.54864e-298 0)
(-3.15544e-298 -1.04578e-298 0)
(-2.25184e-298 -6.89418e-299 0)
(-1.56078e-298 -4.33484e-299 0)
(-2.97644e-298 -8.68577e-298 0)
(-7.34543e-298 -2.49521e-297 0)
(-1.26769e-297 -4.01049e-297 0)
(-1.94478e-297 -5.34194e-297 0)
(-2.79338e-297 -6.45409e-297 0)
(-3.82282e-297 -7.33621e-297 0)
(-5.03507e-297 -7.98917e-297 0)
(-6.43036e-297 -8.41549e-297 0)
(-8.00942e-297 -8.61424e-297 0)
(-9.77435e-297 -8.57856e-297 0)
(-1.17281e-296 -8.29592e-297 0)
(-1.3878e-296 -7.74678e-297 0)
(-1.61774e-296 -6.96846e-297 0)
(-6.8388e-297 -3.02711e-297 0)
(-2.94292e-297 -1.48676e-297 0)
(-1.78221e-297 -8.92238e-298 0)
(-1.2071e-297 -5.81371e-298 0)
(-8.55312e-298 -3.90916e-298 0)
(-6.17377e-298 -2.65762e-298 0)
(-4.47956e-298 -1.8066e-298 0)
(-3.23657e-298 -1.21687e-298 0)
(-2.30566e-298 -8.02381e-299 0)
(-1.59577e-298 -5.06116e-299 0)
(-1.65348e-298 -1.12573e-297 0)
(-3.48687e-298 -3.13948e-297 0)
(-7.57494e-298 -4.98996e-297 0)
(-1.41584e-297 -6.58512e-297 0)
(-2.3208e-297 -7.89812e-297 0)
(-3.45525e-297 -8.93519e-297 0)
(-4.80344e-297 -9.71281e-297 0)
(-6.3551e-297 -1.02456e-296 0)
(-8.10554e-297 -1.05407e-296 0)
(-1.00539e-296 -1.05974e-296 0)
(-1.22019e-296 -1.04097e-296 0)
(-1.45565e-296 -9.96899e-297 0)
(-1.70672e-296 -9.32182e-297 0)
(-7.09469e-297 -3.99656e-297 0)
(-3.01839e-297 -1.8224e-297 0)
(-1.82163e-297 -1.04898e-297 0)
(-1.22928e-297 -6.69162e-298 0)
(-8.68299e-298 -4.44875e-298 0)
(-6.25083e-298 -3.00632e-298 0)
(-4.52541e-298 -2.03807e-298 0)
(-3.26374e-298 -1.37231e-298 0)
(-2.32154e-298 -9.06437e-299 0)
(-1.60478e-298 -5.74034e-299 0)
(1.85248e-298 -1.50228e-297 0)
(4.31087e-298 -3.99417e-297 0)
(1.67223e-298 -6.22757e-297 0)
(-5.16576e-298 -8.0991e-297 0)
(-1.53658e-297 -9.60998e-297 0)
(-2.82886e-297 -1.0795e-296 0)
(-4.35423e-297 -1.16923e-296 0)
(-6.09267e-297 -1.23303e-296 0)
(-8.03598e-297 -1.27243e-296 0)
(-1.01819e-296 -1.28783e-296 0)
(-1.25297e-296 -1.27922e-296 0)
(-1.50842e-296 -1.24708e-296 0)
(-1.77989e-296 -1.19779e-296 0)
(-7.02435e-297 -4.92501e-297 0)
(-2.98084e-297 -2.07612e-297 0)
(-1.8057e-297 -1.15958e-297 0)
(-1.21782e-297 -7.3175e-298 0)
(-8.59258e-298 -4.84664e-298 0)
(-6.17907e-298 -3.27269e-298 0)
(-4.46942e-298 -2.22063e-298 0)
(-3.22099e-298 -1.49843e-298 0)
(-2.28971e-298 -9.93061e-299 0)
(-1.58185e-298 -6.31946e-299 0)
(1.25815e-297 -1.97048e-297 0)
(2.01809e-297 -5.15151e-297 0)
(1.75804e-297 -7.79805e-297 0)
(8.88588e-298 -9.93471e-297 0)
(-3.71904e-298 -1.16234e-296 0)
(-1.90829e-297 -1.29391e-296 0)
(-3.66672e-297 -1.39451e-296 0)
(-5.62786e-297 -1.46841e-296 0)
(-7.78873e-297 -1.51776e-296 0)
(-1.01497e-296 -1.54309e-296 0)
(-1.27063e-296 -1.54438e-296 0)
(-1.5449e-296 -1.52324e-296 0)
(-1.83365e-296 -1.48832e-296 0)
(-6.09186e-297 -5.44711e-297 0)
(-2.7712e-297 -2.12219e-297 0)
(-1.70407e-297 -1.18818e-297 0)
(-1.15806e-297 -7.56253e-298 0)
(-8.20635e-298 -5.04287e-298 0)
(-5.91842e-298 -3.42356e-298 0)
(-4.28969e-298 -2.33417e-298 0)
(-3.09606e-298 -1.5825e-298 0)
(-2.2032e-298 -1.05406e-298 0)
(-1.52303e-298 -6.74616e-299 0)
(4.81528e-297 -2.70979e-297 0)
(4.91988e-297 -6.57885e-297 0)
(4.13491e-297 -9.62405e-297 0)
(2.7892e-297 -1.20007e-296 0)
(1.1248e-297 -1.38477e-296 0)
(-7.43868e-298 -1.52818e-296 0)
(-2.78046e-297 -1.63905e-296 0)
(-4.98802e-297 -1.72291e-296 0)
(-7.38348e-297 -1.78234e-296 0)
(-9.979e-297 -1.81776e-296 0)
(-1.27654e-296 -1.82888e-296 0)
(-1.56895e-296 -1.81592e-296 0)
(-8.57895e-297 -8.3214e-297 0)
(-3.77486e-297 -3.52557e-297 0)
(-2.24032e-297 -1.83649e-297 0)
(-1.48259e-297 -1.12384e-297 0)
(-1.03942e-297 -7.3876e-298 0)
(-7.48682e-298 -5.00925e-298 0)
(-5.45436e-298 -3.4386e-298 0)
(-3.98037e-298 -2.36453e-298 0)
(-2.88663e-298 -1.61481e-298 0)
(-2.06116e-298 -1.08282e-298 0)
(-1.42807e-298 -6.97651e-299 0)
(3.54602e-297 -2.05194e-297 0)
(2.82237e-297 -3.98885e-297 0)
(2.11406e-297 -5.28523e-297 0)
(1.28852e-297 -6.15972e-297 0)
(4.37511e-298 -6.77952e-297 0)
(-4.36192e-298 -7.22255e-297 0)
(-1.34665e-297 -7.53059e-297 0)
(-2.31018e-297 -7.72263e-297 0)
(-3.33016e-297 -7.79393e-297 0)
(-4.37196e-297 -7.69819e-297 0)
(-5.30148e-297 -7.27508e-297 0)
(-5.71545e-297 -6.05342e-297 0)
(-3.63005e-297 -3.70625e-297 0)
(-2.36995e-297 -2.32595e-297 0)
(-1.66365e-297 -1.4925e-297 0)
(-1.19944e-297 -9.97327e-298 0)
(-8.79919e-298 -6.8386e-298 0)
(-6.50968e-298 -4.75081e-298 0)
(-4.82458e-298 -3.31451e-298 0)
(-3.56222e-298 -2.30696e-298 0)
(-2.60483e-298 -1.59097e-298 0)
(-1.87096e-298 -1.07582e-298 0)
(-1.30152e-298 -6.98407e-299 0)
(8.74119e-298 -1.77399e-297 0)
(4.61057e-298 -2.35926e-297 0)
(2.49929e-298 -2.63744e-297 0)
(1.34003e-299 -2.8792e-297 0)
(-2.52541e-298 -3.07817e-297 0)
(-5.50029e-298 -3.22643e-297 0)
(-8.78765e-298 -3.3232e-297 0)
(-1.23443e-297 -3.36911e-297 0)
(-1.60193e-297 -3.36112e-297 0)
(-1.9442e-297 -3.28575e-297 0)
(-2.18581e-297 -3.11047e-297 0)
(-2.20277e-297 -2.80092e-297 0)
(-1.88547e-297 -2.2306e-297 0)
(-1.51931e-297 -1.64785e-297 0)
(-1.19584e-297 -1.18301e-297 0)
(-9.26492e-298 -8.45663e-298 0)
(-7.1148e-298 -6.0449e-298 0)
(-5.42562e-298 -4.31641e-298 0)
(-4.10624e-298 -3.07086e-298 0)
(-3.0775e-298 -2.16928e-298 0)
(-2.27503e-298 -1.51383e-298 0)
(-1.64708e-298 -1.03375e-298 0)
(-1.15212e-298 -6.76715e-299 0)
(-1.6804e-298 -1.18568e-297 0)
(-1.83716e-298 -1.50388e-297 0)
(-2.00585e-298 -1.64999e-297 0)
(-2.60797e-298 -1.77788e-297 0)
(-3.57934e-298 -1.88531e-297 0)
(-4.85159e-298 -1.9659e-297 0)
(-6.36186e-298 -2.01731e-297 0)
(-8.0282e-298 -2.03926e-297 0)
(-9.71665e-298 -2.03086e-297 0)
(-1.12093e-297 -1.98735e-297 0)
(-1.21947e-297 -1.89687e-297 0)
(-1.23305e-297 -1.7399e-297 0)
(-1.15417e-297 -1.48945e-297 0)
(-1.01539e-297 -1.19615e-297 0)
(-8.55008e-298 -9.21563e-298 0)
(-6.97671e-298 -6.9377e-298 0)
(-5.56861e-298 -5.14772e-298 0)
(-4.37007e-298 -3.7778e-298 0)
(-3.37909e-298 -2.74401e-298 0)
(-2.57387e-298 -1.97016e-298 0)
(-1.9262e-298 -1.39301e-298 0)
(-1.40739e-298 -9.61522e-299 0)
(-9.90874e-299 -6.34995e-299 0)
(-3.05687e-298 -7.06794e-298 0)
(-3.03728e-298 -9.78755e-298 0)
(-2.91154e-298 -1.1105e-297 0)
(-3.0322e-298 -1.20618e-297 0)
(-3.41643e-298 -1.27982e-297 0)
(-4.02105e-298 -1.33303e-297 0)
(-4.79176e-298 -1.36606e-297 0)
(-5.66025e-298 -1.37929e-297 0)
(-6.53403e-298 -1.37247e-297 0)
(-7.29079e-298 -1.34321e-297 0)
(-7.78884e-298 -1.28566e-297 0)
(-7.9069e-298 -1.19087e-297 0)
(-7.6175e-298 -1.05125e-297 0)
(-6.97449e-298 -8.82206e-298 0)
(-6.11298e-298 -7.108e-298 0)
(-5.17226e-298 -5.56118e-298 0)
(-4.25656e-298 -4.25766e-298 0)
(-3.4248e-298 -3.20405e-298 0)
(-2.70175e-298 -2.37479e-298 0)
(-2.09101e-298 -1.73336e-298 0)
(-1.5846e-298 -1.24226e-298 0)
(-1.16903e-298 -8.67034e-299 0)
(-8.28776e-299 -5.77698e-299 0)
(-2.63647e-298 -4.19791e-298 0)
(-2.80547e-298 -6.36666e-298 0)
(-2.74314e-298 -7.55712e-298 0)
(-2.76057e-298 -8.37556e-298 0)
(-2.92361e-298 -8.96588e-298 0)
(-3.22446e-298 -9.37608e-298 0)
(-3.63221e-298 -9.62706e-298 0)
(-4.10188e-298 -9.73013e-298 0)
(-4.57543e-298 -9.68758e-298 0)
(-4.98394e-298 -9.48727e-298 0)
(-5.25625e-298 -9.09863e-298 0)
(-5.33605e-298 -8.47992e-298 0)
(-5.20099e-298 -7.61012e-298 0)
(-4.86113e-298 -6.55497e-298 0)
(-4.36783e-298 -5.44086e-298 0)
(-3.79084e-298 -4.38051e-298 0)
(-3.19435e-298 -3.44047e-298 0)
(-2.62424e-298 -2.64662e-298 0)
(-2.10731e-298 -1.99858e-298 0)
(-1.65527e-298 -1.48193e-298 0)
(-1.26963e-298 -1.07621e-298 0)
(-9.45609e-299 -7.59388e-299 0)
(-6.75018e-299 -5.10327e-299 0)
(-1.97918e-298 -2.51878e-298 0)
(-2.22815e-298 -4.13895e-298 0)
(-2.24914e-298 -5.13493e-298 0)
(-2.2677e-298 -5.83273e-298 0)
(-2.35156e-298 -6.32945e-298 0)
(-2.51063e-298 -6.67044e-298 0)
(-2.73226e-298 -6.88052e-298 0)
(-2.99104e-298 -6.97379e-298 0)
(-3.25301e-298 -6.95546e-298 0)
(-3.47924e-298 -6.82052e-298 0)
(-3.63125e-298 -6.55394e-298 0)
(-3.6783e-298 -6.13748e-298 0)
(-3.60389e-298 -5.56741e-298 0)
(-3.40819e-298 -4.87803e-298 0)