/*--------------------------------*- C++ -*----------------------------------*\
| =========                 |                                                 |
| \\      /  F ield         | OpenFOAM: The Open Source CFD Toolbox           |
|  \\    /   O peration     | Version:  2406                                  |
|   \\  /    A nd           | Website:  www.openfoam.com                      |
|    \\/     M anipulation  |                                                 |
\*---------------------------------------------------------------------------*/
FoamFile
{
    version     2.0;
    format      ascii;
    arch        "LSB;label=32;scalar=64";
    class       volScalarField;
    location    "0.05";
    object      epsilon;
}
// * * * * * * * * * * * * * * * * * * * * * * * * * * * * * * * * * * * * * //

dimensions      [0 2 -3 0 0 0 0];

internalField   nonuniform List<scalar> 
2268
(
3.11056
4.22461
4.22461
4.22461
4.22461
4.22461
4.22461
4.22461
4.22461
4.22461
4.22461
4.22461
4.22461
0.880534
0.924515
0.949291
0.955251
0.956362
0.95572
0.951561
0.933634
0.868128
0.703395
1.99652
3.53904
3.87395
3.99094
4.04704
4.07914
4.09939
4.11283
4.12192
4.12795
4.13166
4.13342
4.13342
0.658058
0.497529
0.473646
0.468021
0.46685
0.46737
0.470553
0.481726
0.516388
0.661715
1.99652
3.12319
3.57196
3.77086
3.87483
3.93633
3.97569
4.00203
4.01992
4.03182
4.03915
4.04264
4.04264
0.612482
0.363989
0.316698
0.304418
0.301648
0.302811
0.309833
0.333653
0.409726
0.737007
1.99652
2.85875
3.32578
3.57199
3.71211
3.79846
3.85491
3.89312
3.91925
3.93672
3.94749
3.95263
3.95263
0.588238
0.29868
0.238513
0.221874
0.217839
0.21938
0.228767
0.259508
0.357377
0.768967
1.99652
2.68257
3.12892
3.39682
3.56139
3.66727
3.73819
3.78691
3.82052
3.84311
3.85709
3.86377
3.86377
0.571933
0.262733
0.19514
0.175644
0.170636
0.172329
0.183062
0.217632
0.32819
0.786292
1.99652
2.55993
2.97192
3.24472
3.42379
3.54388
3.62644
3.68407
3.72424
3.75143
3.76831
3.77641
3.77641
0.560109
0.241945
0.169904
0.148467
0.142683
0.14433
0.155612
0.1918
0.309287
0.798731
1.99652
2.47111
2.84601
3.11356
3.29935
3.42889
3.52025
3.58513
3.63087
3.66205
3.6815
3.69085
3.69085
0.551229
0.229837
0.155073
0.132224
0.125764
0.127172
0.138291
0.173923
0.29266
0.822429
1.99652
2.40455
2.74407
3.00065
3.18748
3.32241
3.41998
3.49047
3.54074
3.57529
3.59695
3.60739
3.60739
0.544428
0.22311
0.146671
0.122688
0.115567
0.116546
0.12682
0.159341
0.270125
0.941489
0.71871
0.881096
0.939424
0.953428
0.956243
0.956759
0.956849
0.956864
0.956867
0.956867
0.956867
0.956863
0.956843
0.956736
0.956171
0.953262
0.939294
0.885532
0.737317
0.637481
0.509962
0.478394
0.469144
0.466853
0.466376
0.466289
0.466275
0.466273
0.466273
0.466273
0.466277
0.466297
0.466405
0.466939
0.46932
0.478621
0.511328
0.656807
0.711544
0.395988
0.326566
0.306775
0.301592
0.30042
0.300189
0.300148
0.300142
0.300141
0.300143
0.300154
0.300212
0.300499
0.301816
0.307239
0.327146
0.396524
0.714758
0.741231
0.33993
0.250437
0.224741
0.217638
0.215908
0.215541
0.215471
0.215459
0.215458
0.215462
0.215482
0.215582
0.216049
0.218038
0.225623
0.25178
0.340903
0.741368
0.757062
0.3086
0.207411
0.178452
0.170182
0.168056
0.167576
0.167479
0.167462
0.16746
0.167466
0.167496
0.167641
0.168279
0.170831
0.179993
0.210197
0.311325
0.755755
0.768694
0.288434
0.18099
0.150689
0.141866
0.139502
0.13894
0.138821
0.138798
0.138796
0.138804
0.138846
0.139037
0.139836
0.142868
0.153235
0.186266
0.295158
0.763471
0.791362
0.2713
0.163105
0.133301
0.124468
0.12201
0.121397
0.12126
0.121233
0.12123
0.121241
0.121296
0.121537
0.122495
0.125959
0.137307
0.17243
0.286415
0.76741
0.898536
0.249627
0.14928
0.122017
0.113663
0.111231
0.110592
0.110442
0.11041
0.110407
0.110422
0.110493
0.11079
0.111917
0.115801
0.128011
0.164735
0.281956
0.769254
1.99652
2.32441
2.61365
2.84849
3.0307
3.16898
3.27267
3.34952
3.40533
3.44414
3.46866
3.48054
3.48053
0.536244
0.218178
0.140037
0.114444
0.106241
0.106301
0.114356
0.137667
0.198344
0.365645
1.99652
2.25443
2.4912
2.69465
2.86182
2.9952
3.09937
3.17905
3.23828
3.28016
3.30692
3.31996
3.31996
0.526303
0.215103
0.1368
0.110295
0.101135
0.0997566
0.104218
0.116854
0.143948
0.196065
1.99652
2.20582
2.40241
2.57747
2.72707
2.85094
2.95082
3.02926
3.08876
3.13147
3.15905
3.17257
3.17257
0.516858
0.212842
0.135324
0.10864
0.0989641
0.0964656
0.0981827
0.104123
0.115574
0.133023
1.99652
2.17007
2.33537
2.48603
2.61833
2.7309
2.82396
2.89859
2.95619
2.99809
3.02538
3.03883
3.03883
0.508005
0.21091
0.134463
0.107916
0.0980237
0.094852
0.094926
0.0972805
0.101795
0.107781
1.99652
2.14267
2.28312
2.41315
2.52954
2.63057
2.71571
2.78515
2.83949
2.87946
2.9057
2.9187
2.91869
0.499796
0.209166
0.133826
0.107535
0.0976049
0.0941135
0.0933724
0.094046
0.0956653
0.0977316
1.99652
2.12103
2.2414
2.35404
2.45626
2.54632
2.62331
2.68695
2.73733
2.77471
2.79941
2.81169
2.81169
0.492262
0.20757
0.133287
0.107283
0.0974047
0.0938002
0.0927194
0.0927038
0.0932164
0.0939769
1.99652
2.10356
2.20748
2.30547
2.39527
2.47527
2.54442
2.60217
2.64829
2.68277
2.70568
2.7171
2.7171
0.485414
0.206114
0.132807
0.107087
0.0972932
0.0936718
0.0924742
0.0922119
0.0923443
0.0927026
1.99652
2.08926
2.17956
2.26517
2.3442
2.41517
2.47705
2.52913
2.57103
2.60253
2.62354
2.63405
2.63405
0.479248
0.204797
0.132377
0.10692
0.0972178
0.0936157
0.0923887
0.0920499
0.0920658
0.0923121
1.99652
2.07743
2.15638
2.23153
2.30126
2.36428
2.41957
2.4664
2.50427
2.53288
2.55203
2.56163
2.56163
0.473749
0.203616
0.131991
0.106773
0.0971583
0.0935856
0.0923588
0.0920007
0.0919848
0.0922031
1.99652
2.06759
2.13705
2.20335
2.26512
2.3212
2.37063
2.41271
2.44688
2.47279
2.49018
2.49891
2.49891
0.46889
0.202567
0.131648
0.106643
0.0971079
0.0935651
0.0923465
0.0919861
0.0919628
0.092175
1.99652
2.0594
2.12091
2.17975
2.23474
2.28482
2.32914
2.367
2.39786
2.42131
2.43709
2.44502
2.44502
0.464639
0.201645
0.131347
0.106529
0.0970642
0.0935488
0.0923396
0.0919812
0.0919571
0.0921681
1.99652
2.05258
2.10746
2.16005
2.2093
2.25428
2.29419
2.32838
2.35631
2.37759
2.39193
2.39914
2.39914
0.460965
0.200845
0.131084
0.106429
0.0970262
0.0935349
0.0923347
0.091979
0.0919554
0.0921665
1.99652
2.04694
2.09634
2.14373
2.18818
2.22886
2.26503
2.29607
2.32149
2.34089
2.35397
2.36056
2.36056
0.457834
0.200159
0.130858
0.106343
0.0969929
0.0935228
0.0923306
0.0919776
0.0919548
0.0921661
1.99652
2.04234
2.08725
2.13038
2.17087
2.20799
2.24104
2.26946
2.29276
2.31056
2.32258
2.32864
2.32864
0.455211
0.199577
0.13066
0.106265
0.0969619
0.0935113
0.0923267
0.0919764
0.0919544
0.0921659
1.99652
2.03866
2.07998
2.11968
2.15699
2.19123
2.22175
2.24803
2.26959
2.28608
2.29723
2.30285
2.30285
0.453058
0.199067
0.130466
0.106179
0.0969256
0.0934973
0.0923218
0.0919748
0.0919539
0.0921658
1.99652
2.03581
2.07435
2.11138
2.14622
2.17821
2.20676
2.23135
2.25155
2.26701
2.27746
2.28274
2.28273
0.451279
0.198507
0.130184
0.106037
0.0968615
0.093472
0.092313
0.0919721
0.0919531
0.0921656
1.99652
2.03373
2.07023
2.10532
2.13834
2.16868
2.19577
2.21912
2.23831
2.253
2.26294
2.26795
2.26795
0.449385
0.197367
0.129507
0.105695
0.0967123
0.0934152
0.0922939
0.0919663
0.0919515
0.0921652
1.99652
2.03236
2.06753
2.10134
2.13317
2.16243
2.18856
2.21109
2.22961
2.2438
2.2534
2.25824
2.25824
0.443959
0.193533
0.12755
0.104821
0.0963622
0.0932898
0.0922535
0.0919544
0.0919483
0.0921644
1.99652
2.03169
2.06619
2.09938
2.13062
2.15933
2.18499
2.20711
2.22531
2.23924
2.24867
2.25343
2.25343
0.410432
0.180034
0.122429
0.102883
0.0956621
0.0930555
0.0921814
0.0919339
0.0919429
0.0921631
1.99652
2.03169
2.06619
2.09938
2.13062
2.15933
2.18498
2.20711
2.2253
2.23924
2.24867
2.25343
0.543303
0.235658
0.145578
0.112707
0.0997075
0.0946066
0.09272
0.0920814
0.091906
0.0919356
0.0921613
0.80306
0.508673
0.455628
0.441638
0.438988
0.439872
0.441638
0.443401
0.444815
0.445317
0.441434
0.408606
0.235212
0.156575
0.120595
0.104004
0.0966185
0.0935493
0.0923802
0.0919795
0.0918774
0.091928
0.0921595
0.788186
0.344706
0.24309
0.211182
0.200445
0.197166
0.196454
0.19649
0.196544
0.195901
0.192396
0.179142
0.14519
0.120481
0.105857
0.0980917
0.0943627
0.092747
0.092116
0.0918987
0.0918543
0.0919218
0.0921579
0.797137
0.311489
0.191619
0.151761
0.137092
0.13181
0.130092
0.129602
0.129382
0.128832
0.126985
0.12198
0.112455
0.103896
0.0980613
0.0946981
0.0930047
0.0922488
0.0919478
0.0918461
0.0918389
0.0919175
0.0921569
0.799912
0.302789
0.175831
0.132177
0.115439
0.10904
0.10676
0.106012
0.105723
0.105383
0.104544
0.102661
0.099567
0.0965482
0.0943354
0.0929976
0.0923023
0.0919845
0.0918564
0.0918168
0.0918301
0.0919151
0.0921562
0.800613
0.30043
0.17083
0.125398
0.107586
0.100577
0.0979828
0.0970975
0.0967892
0.0965865
0.0962379
0.0955592
0.0945376
0.0935114
0.0927298
0.0922424
0.0919825
0.0918614
0.0918129
0.0918025
0.0918257
0.0919138
0.0921559
0.800779
0.299818
0.169327
0.123156
0.104845
0.0975373
0.0947854
0.0938313
0.0935156
0.0933802
0.09324
0.0930107
0.0926875
0.09236
0.0921045
0.0919412
0.0918521
0.09181
0.0917942
0.0917962
0.0918238
0.0919132
0.0921557
0.800817
0.299668
0.168909
0.122471
0.10396
0.0965249
0.0937039
0.0927192
0.0923999
0.0922915
0.092229
0.0921545
0.0920579
0.0919602
0.0918827
0.091832
0.0918038
0.0917905
0.091787
0.0917937
0.0918229
0.091913
0.0921556
0.800826
0.299633
0.168802
0.122278
0.103697
0.096215
0.0933674
0.0923706
0.0920496
0.0919504
0.0919135
0.0918876
0.0918597
0.0918323
0.0918102
0.0917955
0.0917872
0.0917837
0.0917844
0.0917928
0.0918226
0.0919129
0.0921556
0.800828
0.299626
0.168776
0.122228
0.103625
0.0961273
0.0932705
0.0922695
0.0919478
0.0918512
0.091822
0.0918102
0.0918016
0.0917941
0.0917882
0.0917842
0.091782
0.0917815
0.0917835
0.0917925
0.0918225
0.0919128
0.0921556
0.800828
0.299624
0.16877
0.122216
0.103606
0.0961042
0.0932446
0.0922421
0.0919201
0.0918243
0.0917971
0.091789
0.0917856
0.0917835
0.0917819
0.0917809
0.0917804
0.0917808
0.0917832
0.0917924
0.0918225
0.0919128
0.0921556
0.800828
0.299624
0.168769
0.122213
0.103602
0.0960984
0.093238
0.0922352
0.091913
0.0918174
0.0917907
0.0917836
0.0917815
0.0917806
0.0917802
0.09178
0.09178
0.0917806
0.0917831
0.0917923
0.0918225
0.0919128
0.0921556
0.800828
0.299624
0.168768
0.122212
0.103601
0.0960971
0.0932364
0.0922335
0.0919113
0.0918157
0.0917892
0.0917822
0.0917804
0.0917799
0.0917798
0.0917797
0.0917798
0.0917805
0.0917831
0.0917923
0.0918225
0.0919128
0.0921556
0.800829
0.299624
0.168768
0.122212
0.103601
0.0960968
0.0932361
0.0922331
0.0919109
0.0918153
0.0917888
0.0917819
0.0917802
0.0917798
0.0917797
0.0917797
0.0917798
0.0917805
0.0917831
0.0917923
0.0918225
0.0919128
0.0921556
0.800829
0.299624
0.168768
0.122212
0.103601
0.0960968
0.0932361
0.0922332
0.0919109
0.0918154
0.0917889
0.091782
0.0917803
0.0917799
0.0917798
0.0917798
0.0917799
0.0917806
0.0917832
0.0917924
0.0918225
0.0919128
0.0921556
0.800829
0.299623
0.168768
0.122212
0.103601
0.0960971
0.0932366
0.0922337
0.0919115
0.091816
0.0917895
0.0917826
0.0917809
0.0917804
0.0917803
0.0917802
0.0917803
0.091781
0.0917835
0.0917927
0.0918227
0.091913
0.0921557
0.80083
0.299622
0.168765
0.122209
0.1036
0.096098
0.0932385
0.0922361
0.0919141
0.0918186
0.0917921
0.0917852
0.0917834
0.0917828
0.0917825
0.0917823
0.0917822
0.0917826
0.091785
0.0917939
0.0918237
0.0919136
0.092156
0.800834
0.299616
0.16875
0.122197
0.103596
0.0961012
0.093246
0.0922456
0.0919243
0.091829
0.0918026
0.0917956
0.0917935
0.0917926
0.0917918
0.091791
0.0917902
0.0917898
0.0917914
0.0917994
0.0918281
0.0919168
0.0921578
0.80086
0.29957
0.168663
0.122132
0.103574
0.0961114
0.0932737
0.0922809
0.0919624
0.091868
0.0918417
0.0918345
0.0918319
0.0918299
0.0918275
0.0918248
0.0918219
0.0918192
0.0918181
0.0918232
0.091848
0.091932
0.0921669
0.801036
0.299253
0.168193
0.121833
0.103474
0.0961428
0.0933702
0.0924043
0.0920954
0.0920039
0.0919783
0.0919707
0.0919667
0.091962
0.0919556
0.0919483
0.0919399
0.0919304
0.0919223
0.0919188
0.0919315
0.0919997
0.0922123
0.802658
0.297073
0.165855
0.120604
0.103107
0.0962447
0.0936839
0.0928003
0.0925194
0.0924365
0.092413
0.0924052
0.092399
0.0923892
0.0923749
0.0923587
0.0923393
0.0923152
0.092292
0.092269
0.0922511
0.0922764
0.0924198
0.830534
0.28365
0.155975
0.116466
0.102064
0.0966081
0.094619
0.0939434
0.0937308
0.0936684
0.0936504
0.0936433
0.0936353
0.0936204
0.0935975
0.0935721
0.0935401
0.0934975
0.0934556
0.093405
0.0933355
0.0932814
0.0932686
1.57205
0.224562
0.126451
0.106559
0.100212
0.0979243
0.0971125
0.0968416
0.0967574
0.0967328
0.0967256
0.0967223
0.0967173
0.0967068
0.0966898
0.096672
0.0966478
0.0966121
0.096579
0.0965325
0.0964507
0.0963568
0.096194
0.943381
0.831066
0.830578
0.939388
0.261573
0.276118
0.276117
0.261814
0.146214
0.150485
0.150361
0.145821
0.11119
0.112283
0.112235
0.111015
0.0988124
0.099179
0.0991825
0.0988205
0.0944959
0.0947227
0.0947441
0.0945817
0.0931059
0.0933182
0.093343
0.0932139
0.0926997
0.0929158
0.0929404
0.0928115
0.0925914
0.0928106
0.0928347
0.0927031
0.0925647
0.0927851
0.092809
0.092676
0.0925586
0.0927794
0.0928031
0.0926697
0.0925572
0.0927781
0.0928019
0.0926683
0.0925569
0.0927778
0.0928016
0.092668
0.0925568
0.0927778
0.0928015
0.0926679
0.0925567
0.0927778
0.0928015
0.0926679
0.0925567
0.0927777
0.0928015
0.0926679
0.0925565
0.0927777
0.0928015
0.0926679
0.0925562
0.0927776
0.0928014
0.0926679
0.0925558
0.0927774
0.0928014
0.0926678
0.0925552
0.0927771
0.0928012
0.0926678
0.0925545
0.0927768
0.0928011
0.0926677
0.092554
0.0927766
0.092801
0.0926677
0.0925536
0.0927764
0.0928009
0.0926677
0.0925533
0.0927763
0.0928009
0.0926676
0.0925532
0.0927762
0.0928009
0.0926676
0.0925532
0.0927762
0.0928008
0.0926676
0.0925531
0.0927762
0.0928008
0.0926676
0.0925531
0.0927762
0.0928008
0.0926676
0.0925531
0.0927762
0.0928008
0.0926676
0.0925531
0.0927762
0.0928008
0.0926676
0.0925531
0.0927762
0.0928008
0.0926676
0.0925531
0.0927762
0.0928008
0.0926676
0.0925531
0.0927762
0.0928008
0.0926676
0.0925531
0.0927762
0.0928008
0.0926676
0.0925531
0.0927762
0.0928008
0.0926676
0.0925532
0.0927762
0.0928008
0.0926676
0.0925539
0.0927765
0.092801
0.0926676
0.0925578
0.0927785
0.092802
0.0926683
0.0925812
0.0927921
0.0928108
0.0926748
0.0927105
0.0928795
0.0928751
0.0927264
0.0933532
0.0933859
0.0932975
0.0930934
0.0960247
0.0958283
0.0956158
0.095308
0.352644
0.187096
0.130392
0.110212
0.103189
0.100939
0.100291
0.100124
0.100086
0.100083
0.100106
0.10021
0.100613
0.10204
0.106614
0.120092
0.15869
0.278667
0.770335
0.192247
0.138815
0.11281
0.101392
0.0968865
0.0953083
0.0948177
0.0946812
0.0946481
0.0946475
0.0946785
0.0948102
0.0953005
0.0969602
0.10205
0.116447
0.156349
0.277701
0.770602
0.131734
0.113447
0.102137
0.0964324
0.0939797
0.0930653
0.0927652
0.0926773
0.0926556
0.0926583
0.0926935
0.0928381
0.0933683
0.0951324
0.100447
0.115233
0.15566
0.277486
0.770665
0.107414
0.101007
0.0963745
0.0938182
0.0926525
0.0921974
0.0920416
0.0919941
0.0919828
0.0919883
0.0920255
0.0921756
0.0927219
0.0945272
0.0999288
0.114858
0.155465
0.277432
0.770682
0.0976805
0.0953909
0.0936044
0.0925645
0.0920706
0.0918706
0.0917997
0.0917776
0.091773
0.0917804
0.0918185
0.0919706
0.0925226
0.0943423
0.0997735
0.11475
0.155413
0.277418
0.770686
0.094005
0.0930941
0.0924181
0.0920224
0.0918307
0.091751
0.091722
0.0917129
0.091712
0.0917204
0.091759
0.0919117
0.0924656
0.0942898
0.0997301
0.114721
0.155399
0.277415
0.770687
0.0927343
0.0922474
0.0919627
0.0918104
0.0917386
0.0917087
0.0916977
0.0916944
0.0916953
0.0917041
0.0917429
0.0918958
0.0924502
0.0942758
0.0997187
0.114713
0.155396
0.277414
0.770687
0.0923348
0.0919646
0.0918043
0.0917347
0.0917057
0.0916943
0.0916902
0.0916893
0.0916909
0.0916999
0.0917387
0.0918918
0.0924463
0.0942722
0.0997158
0.114711
0.155395
0.277414
0.770687
0.0922197
0.0918781
0.0917538
0.0917099
0.0916947
0.0916896
0.091688
0.0916879
0.0916898
0.0916989
0.0917377
0.0918908
0.0924453
0.0942714
0.0997151
0.114711
0.155395
0.277414
0.770687
0.092189
0.0918536
0.0917389
0.0917023
0.0916913
0.0916881
0.0916873
0.0916875
0.0916895
0.0916986
0.0917375
0.0918906
0.0924451
0.0942712
0.0997149
0.114711
0.155395
0.277414
0.770687
0.0921813
0.0918471
0.0917347
0.0917001
0.0916903
0.0916877
0.0916871
0.0916874
0.0916894
0.0916986
0.0917374
0.0918905
0.0924451
0.0942711
0.0997149
0.114711
0.155395
0.277414
0.770687
0.0921795
0.0918455
0.0917336
0.0916995
0.09169
0.0916876
0.0916871
0.0916874
0.0916894
0.0916986
0.0917374
0.0918905
0.092445
0.0942711
0.0997149
0.114711
0.155395
0.277414
0.770687
0.0921791
0.0918451
0.0917333
0.0916993
0.0916899
0.0916875
0.0916871
0.0916874
0.0916894
0.0916986
0.0917374
0.0918905
0.092445
0.0942711
0.0997149
0.114711
0.155395
0.277414
0.770687
0.092179
0.091845
0.0917333
0.0916993
0.0916899
0.0916875
0.0916871
0.0916874
0.0916894
0.0916986
0.0917374
0.0918905
0.092445
0.0942711
0.0997149
0.114711
0.155395
0.277414
0.770687
0.092179
0.091845
0.0917333
0.0916993
0.0916899
0.0916875
0.0916871
0.0916874
0.0916894
0.0916986
0.0917374
0.0918905
0.092445
0.0942711
0.0997149
0.114711
0.155395
0.277414
0.770687
0.092179
0.091845
0.0917333
0.0916993
0.0916899
0.0916875
0.0916871
0.0916874
0.0916894
0.0916986
0.0917374
0.0918905
0.092445
0.0942711
0.0997149
0.114711
0.155395
0.277414
0.770687
0.092179
0.091845
0.0917333
0.0916993
0.0916899
0.0916875
0.0916871
0.0916874
0.0916894
0.0916986
0.0917374
0.0918905
0.092445
0.0942711
0.0997149
0.114711
0.155395
0.277414
0.770687
0.092179
0.091845
0.0917333
0.0916993
0.0916899
0.0916875
0.0916871
0.0916874
0.0916894
0.0916986
0.0917374
0.0918905
0.092445
0.0942711
0.0997149
0.114711
0.155395
0.277414
0.770687
0.092179
0.091845
0.0917333
0.0916993
0.0916899
0.0916875
0.0916871
0.0916874
0.0916894
0.0916986
0.0917374
0.0918905
0.092445
0.0942711
0.0997149
0.114711
0.155395
0.277414
0.770687
0.092179
0.091845
0.0917333
0.0916993
0.0916899
0.0916875
0.0916871
0.0916874
0.0916894
0.0916986
0.0917374
0.0918905
0.092445
0.0942711
0.0997149
0.114711
0.155395
0.277414
0.770687
0.092179
0.091845
0.0917333
0.0916993
0.0916899
0.0916875
0.0916871
0.0916874
0.0916894
0.0916986
0.0917374
0.0918905
0.092445
0.0942711
0.0997149
0.114711
0.155395
0.277414
0.770687
0.092179
0.091845
0.0917333
0.0916993
0.0916899
0.0916875
0.0916871
0.0916874
0.0916894
0.0916986
0.0917374
0.0918905
0.092445
0.0942711
0.0997149
0.114711
0.155395
0.277414
0.770687
0.0921789
0.091845
0.0917333
0.0916993
0.0916899
0.0916875
0.0916871
0.0916874
0.0916894
0.0916986
0.0917374
0.0918905
0.092445
0.0942711
0.0997149
0.114711
0.155395
0.277414
0.770687
0.0921789
0.091845
0.0917333
0.0916993
0.0916899
0.0916875
0.0916871
0.0916874
0.0916894
0.0916986
0.0917374
0.0918905
0.092445
0.0942711
0.0997149
0.114711
0.155395
0.277414
0.770687
0.0921789
0.091845
0.0917333
0.0916993
0.0916899
0.0916875
0.0916871
0.0916874
0.0916894
0.0916986
0.0917374
0.0918905
0.092445
0.0942711
0.0997149
0.114711
0.155395
0.277414
0.770687
0.0921789
0.091845
0.0917333
0.0916993
0.0916899
0.0916875
0.0916871
0.0916874
0.0916894
0.0916986
0.0917374
0.0918905
0.092445
0.0942711
0.0997149
0.114711
0.155395
0.277414
0.770687
0.0921789
0.091845
0.0917333
0.0916993
0.0916899
0.0916875
0.0916871
0.0916874
0.0916894
0.0916986
0.0917374
0.0918905
0.092445
0.0942711
0.0997149
0.114711
0.155395
0.277414
0.770687
0.0921789
0.091845
0.0917333
0.0916993
0.0916899
0.0916875
0.0916871
0.0916874
0.0916894
0.0916986
0.0917374
0.0918905
0.092445
0.0942711
0.0997149
0.114711
0.155395
0.277414
0.770687
0.0921789
0.091845
0.0917333
0.0916993
0.0916899
0.0916875
0.0916871
0.0916874
0.0916894
0.0916986
0.0917374
0.0918905
0.092445
0.0942711
0.0997149
0.114711
0.155395
0.277414
0.770687
0.0921789
0.091845
0.0917333
0.0916993
0.0916899
0.0916875
0.0916871
0.0916874
0.0916894
0.0916986
0.0917374
0.0918905
0.092445
0.0942711
0.0997149
0.114711
0.155395
0.277414
0.770687
0.0921789
0.091845
0.0917333
0.0916993
0.0916899
0.0916875
0.0916871
0.0916874
0.0916894
0.0916986
0.0917374
0.0918905
0.092445
0.0942711
0.0997149
0.114711
0.155395
0.277414
0.770687
0.0921789
0.091845
0.0917333
0.0916993
0.0916899
0.0916875
0.0916871
0.0916874
0.0916894
0.0916986
0.0917374
0.0918905
0.092445
0.0942711
0.0997149
0.114711
0.155395
0.277414
0.770687
0.0921789
0.091845
0.0917333
0.0916993
0.0916899
0.0916875
0.0916871
0.0916874
0.0916894
0.0916986
0.0917374
0.0918905
0.092445
0.0942711
0.0997149
0.114711
0.155395
0.277414
0.770687
0.0921789
0.091845
0.0917333
0.0916993
0.0916899
0.0916875
0.0916871
0.0916874
0.0916894
0.0916986
0.0917374
0.0918905
0.092445
0.0942711
0.0997149
0.114711
0.155395
0.277414
0.770687
0.0921789
0.091845
0.0917332
0.0916992
0.0916899
0.0916875
0.091687
0.0916873
0.0916894
0.0916986
0.0917374
0.0918905
0.092445
0.0942711
0.0997149
0.114711
0.155395
0.277414
0.770687
0.0921789
0.0918449
0.0917332
0.0916992
0.0916898
0.0916875
0.091687
0.0916873
0.0916893
0.0916985
0.0917374
0.0918904
0.092445
0.094271
0.0997149
0.114711
0.155395
0.277414
0.770687
0.0921789
0.0918449
0.091733
0.091699
0.0916896
0.0916873
0.0916868
0.0916871
0.0916891
0.0916983
0.0917372
0.0918902
0.0924448
0.0942709
0.0997148
0.114711
0.155395
0.277414
0.770687
0.0921796
0.091845
0.0917324
0.0916983
0.0916889
0.0916865
0.0916861
0.0916864
0.0916884
0.0916976
0.0917364
0.0918895
0.0924442
0.0942704
0.0997145
0.114711
0.155395
0.277414
0.770687
0.0921859
0.0918482
0.0917308
0.091696
0.0916865
0.0916841
0.0916837
0.091684
0.091686
0.0916952
0.0917341
0.0918872
0.092442
0.0942686
0.0997133
0.11471
0.155396
0.277415
0.770687
0.0922337
0.09188
0.0917289
0.0916895
0.0916793
0.0916768
0.0916763
0.0916766
0.0916786
0.0916878
0.0917268
0.09188
0.0924352
0.0942629
0.0997098
0.114711
0.155399
0.277418
0.770686
0.0925569
0.0921326
0.0917447
0.0916742
0.0916598
0.0916567
0.0916561
0.0916564
0.0916585
0.0916677
0.0917067
0.0918603
0.0924165
0.0942469
0.0997001
0.114712
0.155415
0.27744
0.770682
0.0945328
0.0939868
0.0919409
0.0916583
0.0916161
0.0916093
0.0916082
0.0916084
0.0916104
0.0916197
0.0916589
0.0918131
0.0923713
0.0942079
0.0996765
0.11472
0.155474
0.277539
0.770656
)
;

boundaryField
{
    leftWall
    {
        type            epsilonWallFunction;
        blending        stepwise;
        value           nonuniform List<scalar> 
50
(
3.11056
1.99652
1.99652
1.99652
1.99652
1.99652
1.99652
1.99652
1.99652
1.99652
1.99652
1.99652
1.99652
1.99652
1.99652
1.99652
1.99652
1.99652
1.99652
1.99652
1.99652
1.99652
1.99652
1.99652
1.99652
1.99652
1.99652
1.99652
0.80306
0.788186
0.797137
0.799912
0.800613
0.800779
0.800817
0.800826
0.800828
0.800828
0.800828
0.800828
0.800829
0.800829
0.800829
0.80083
0.800834
0.80086
0.801036
0.802658
0.830534
1.57205
)
;
    }
    rightWall
    {
        type            epsilonWallFunction;
        blending        stepwise;
        value           nonuniform List<scalar> 
50
(
0.737317
0.656807
0.714758
0.741368
0.755755
0.763471
0.76741
0.769254
0.770335
0.770602
0.770665
0.770682
0.770686
0.770687
0.770687
0.770687
0.770687
0.770687
0.770687
0.770687
0.770687
0.770687
0.770687
0.770687
0.770687
0.770687
0.770687
0.770687
0.770687
0.770687
0.770687
0.770687
0.770687
0.770687
0.770687
0.770687
0.770687
0.770687
0.770687
0.770687
0.770687
0.770687
0.770687
0.770687
0.770687
0.770687
0.770687
0.770686
0.770682
0.770656
)
;
    }
    lowerWall
    {
        type            epsilonWallFunction;
        blending        stepwise;
        value           nonuniform List<scalar> 
62
(
3.11056
4.22461
4.22461
4.22461
4.22461
4.22461
4.22461
4.22461
4.22461
4.22461
4.22461
4.22461
4.22461
0.880534
0.924515
0.949291
0.955251
0.956362
0.95572
0.951561
0.933634
0.868128
0.703395
0.703395
0.661715
0.737007
0.768967
0.786292
0.798731
0.822429
0.941489
0.943381
0.831066
0.830578
0.939388
0.71871
0.637481
0.711544
0.741231
0.757062
0.768694
0.791362
0.898536
0.71871
0.881096
0.939424
0.953428
0.956243
0.956759
0.956849
0.956864
0.956867
0.956867
0.956867
0.956863
0.956843
0.956736
0.956171
0.953262
0.939294
0.885532
0.737317
)
;
    }
    atmosphere
    {
        type            inletOutlet;
        inletValue      uniform 0.1;
        value           nonuniform List<scalar> 
46
(
0.1
0.1
0.1
0.1
0.1
0.1
0.1
0.1
0.1
0.1
0.1
0.1
0.1
0.1
0.1
0.1
0.1
0.1
0.1
0.1
0.1
0.1
0.1
0.1
0.1
0.1
0.1
0.1
0.1
0.0919409
0.0916583
0.0916161
0.0916093
0.0916082
0.0916084
0.0916104
0.0916197
0.0916589
0.0918131
0.0923713
0.0942079
0.0996765
0.11472
0.155474
0.277539
0.770656
)
;
    }
    defaultFaces
    {
        type            empty;
    }
}


// ************************************************************************* //
