/*--------------------------------*- C++ -*----------------------------------*\
| =========                 |                                                 |
| \\      /  F ield         | OpenFOAM: The Open Source CFD Toolbox           |
|  \\    /   O peration     | Version:  2406                                  |
|   \\  /    A nd           | Website:  www.openfoam.com                      |
|    \\/     M anipulation  |                                                 |
\*---------------------------------------------------------------------------*/
FoamFile
{
    version     2.0;
    format      ascii;
    arch        "LSB;label=32;scalar=64";
    class       volScalarField;
    location    "0.05";
    object      epsilon;
}
// * * * * * * * * * * * * * * * * * * * * * * * * * * * * * * * * * * * * * //

dimensions      [0 2 -3 0 0 0 0];

internalField   nonuniform List<scalar> 
2268
(
0.724157
0.872415
0.932335
0.949976
0.954293
0.955297
0.955526
0.955578
0.95559
0.955592
0.955593
0.955593
0.955593
0.955593
0.955591
0.955581
0.955538
0.955332
0.954384
0.950159
0.932485
0.867729
0.703382
0.678915
0.518094
0.482964
0.47195
0.468584
0.467633
0.467383
0.46732
0.467305
0.467302
0.467301
0.467301
0.467301
0.467301
0.467304
0.467315
0.467367
0.467587
0.468469
0.471731
0.482627
0.516634
0.66164
0.739262
0.411209
0.336461
0.312964
0.305395
0.303087
0.302428
0.302251
0.302206
0.302195
0.302192
0.302192
0.302192
0.302193
0.302201
0.302235
0.302377
0.302943
0.305053
0.312322
0.335616
0.410376
0.736741
0.768295
0.360074
0.264677
0.234139
0.223705
0.220262
0.219197
0.218889
0.218805
0.218784
0.218778
0.218777
0.218777
0.218781
0.218795
0.218855
0.219092
0.219975
0.223033
0.232863
0.262914
0.358809
0.768375
0.783924
0.333132
0.225468
0.190463
0.177985
0.173613
0.172171
0.171728
0.171601
0.171566
0.171557
0.171555
0.171556
0.171561
0.171582
0.171669
0.171992
0.173128
0.176847
0.188224
0.222048
0.330227
0.785399
0.792173
0.318392
0.202858
0.16474
0.15073
0.145597
0.143819
0.143244
0.143071
0.143022
0.143009
0.143006
0.143007
0.143014
0.143042
0.143151
0.143541
0.144852
0.148957
0.161074
0.196557
0.311577
0.797667
0.796392
0.310225
0.189472
0.149051
0.133845
0.128083
0.126008
0.125311
0.125093
0.125029
0.125012
0.125007
0.125008
0.125017
0.125051
0.125176
0.12561
0.127011
0.131241
0.143357
0.178399
0.294871
0.821317
0.798484
0.305737
0.181512
0.139343
0.123179
0.116893
0.11456
0.113752
0.113492
0.113413
0.113391
0.113386
0.113386
0.113396
0.113434
0.113568
0.114019
0.11543
0.119542
0.130943
0.16306
0.272051
0.940345
0.718699
0.880726
0.938281
0.952057
0.954911
0.955464
0.955568
0.955587
0.955591
0.955591
0.95559
0.955586
0.955562
0.955444
0.954847
0.951903
0.938109
0.88508
0.737304
0.637427
0.510214
0.479285
0.470323
0.467988
0.467446
0.46733
0.467307
0.467303
0.467302
0.467303
0.467309
0.467338
0.467474
0.468071
0.470512
0.479616
0.511656
0.656742
0.711354
0.396416
0.328447
0.309202
0.30391
0.302581
0.302275
0.30221
0.302197
0.302195
0.302198
0.302217
0.302302
0.30267
0.304159
0.309755
0.329298
0.397335
0.714529
0.740775
0.341146
0.253714
0.228675
0.221386
0.219412
0.218922
0.218809
0.218785
0.218782
0.218789
0.218825
0.218978
0.219591
0.221879
0.229766
0.255454
0.342574
0.740853
0.756337
0.310512
0.211718
0.183398
0.174852
0.172405
0.171759
0.171602
0.171567
0.171562
0.171574
0.171629
0.171855
0.172708
0.175684
0.185283
0.214991
0.31368
0.754966
0.767808
0.290691
0.185712
0.155944
0.146761
0.144019
0.14326
0.143066
0.143021
0.143015
0.143032
0.143109
0.143409
0.144485
0.148046
0.158969
0.191545
0.297836
0.762524
0.790427
0.273552
0.167653
0.138227
0.12898
0.12612
0.125297
0.125078
0.125025
0.125019
0.125041
0.12514
0.125511
0.12679
0.130847
0.142827
0.177568
0.289034
0.766443
0.897584
0.251637
0.153175
0.126112
0.117343
0.114533
0.113693
0.113463
0.113405
0.113399
0.113427
0.113547
0.113984
0.115443
0.119923
0.132763
0.16918
0.284179
0.768406
0.800012
0.302018
0.174235
0.129987
0.112618
0.105653
0.102974
0.102013
0.101692
0.101592
0.101563
0.101555
0.101556
0.101567
0.101607
0.101744
0.102184
0.103496
0.107113
0.116454
0.13983
0.199865
0.366282
0.800516
0.300576
0.170964
0.125356
0.107103
0.0996072
0.0966445
0.0955501
0.0951747
0.0950545
0.0950184
0.0950087
0.0950085
0.0950175
0.0950511
0.0951614
0.095499
0.0964549
0.0989407
0.104868
0.117936
0.144939
0.19705
0.800636
0.300183
0.169944
0.123761
0.105088
0.0973235
0.094211
0.093044
0.0926375
0.0925054
0.0924651
0.0924539
0.0924526
0.0924587
0.0924816
0.0925547
0.09277
0.0933559
0.094811
0.0980772
0.10465
0.116363
0.134058
0.800664
0.300081
0.169646
0.123249
0.104402
0.0965203
0.0933394
0.092138
0.0917164
0.0915783
0.0915359
0.0915237
0.0915215
0.0915247
0.091538
0.0915794
0.0916974
0.0920079
0.0927512
0.0943471
0.0973646
0.102251
0.108598
0.800671
0.300056
0.169564
0.123096
0.104186
0.0962577
0.0930492
0.0918336
0.0914055
0.0912648
0.0912213
0.0912087
0.0912058
0.0912071
0.0912138
0.0912343
0.0912913
0.0914368
0.0917744
0.0924743
0.093741
0.0956708
0.0979635
0.800673
0.300049
0.169542
0.123052
0.104121
0.0961773
0.0929588
0.0917378
0.0913073
0.0911656
0.0911217
0.0911089
0.0911055
0.0911056
0.0911085
0.0911177
0.0911425
0.0912039
0.0913424
0.091621
0.0921083
0.0928202
0.0936214
0.800673
0.300048
0.169536
0.12304
0.104103
0.0961541
0.0929322
0.0917094
0.091278
0.0911359
0.0910919
0.0910789
0.0910754
0.0910749
0.091076
0.0910797
0.0910895
0.0911132
0.0911653
0.0912672
0.0914401
0.0916849
0.0919507
0.800673
0.300048
0.169535
0.123037
0.104098
0.0961477
0.0929248
0.0917014
0.0912697
0.0911275
0.0910833
0.0910704
0.0910668
0.091066
0.0910662
0.0910676
0.0910712
0.0910797
0.0910979
0.0911325
0.0911898
0.091269
0.0913533
0.800673
0.300048
0.169535
0.123037
0.104097
0.096146
0.0929228
0.0916992
0.0912674
0.0911252
0.091081
0.091068
0.0910644
0.0910635
0.0910634
0.0910638
0.0910651
0.0910679
0.0910739
0.091085
0.0911031
0.0911278
0.0911544
0.800673
0.300047
0.169535
0.123037
0.104097
0.0961455
0.0929222
0.0916986
0.0912668
0.0911246
0.0910804
0.0910674
0.0910637
0.0910628
0.0910626
0.0910627
0.0910631
0.091064
0.0910659
0.0910694
0.091075
0.091083
0.0910924
0.800673
0.300047
0.169535
0.123036
0.104096
0.0961454
0.0929221
0.0916985
0.0912667
0.0911244
0.0910802
0.0910672
0.0910636
0.0910626
0.0910624
0.0910623
0.0910625
0.0910627
0.0910633
0.0910645
0.0910664
0.0910695
0.0910741
0.800673
0.300047
0.169535
0.123036
0.104096
0.0961454
0.0929221
0.0916984
0.0912666
0.0911244
0.0910802
0.0910672
0.0910635
0.0910625
0.0910623
0.0910622
0.0910623
0.0910624
0.0910626
0.091063
0.0910639
0.0910657
0.091069
0.800673
0.300047
0.169535
0.123036
0.104096
0.0961454
0.0929221
0.0916984
0.0912666
0.0911243
0.0910802
0.0910672
0.0910635
0.0910625
0.0910623
0.0910622
0.0910622
0.0910623
0.0910624
0.0910626
0.0910632
0.0910646
0.0910676
0.800673
0.300047
0.169535
0.123036
0.104096
0.0961454
0.0929221
0.0916984
0.0912666
0.0911243
0.0910802
0.0910672
0.0910635
0.0910625
0.0910623
0.0910622
0.0910622
0.0910622
0.0910623
0.0910625
0.0910631
0.0910644
0.0910672
0.800673
0.300047
0.169535
0.123036
0.104096
0.0961454
0.0929221
0.0916984
0.0912666
0.0911243
0.0910802
0.0910672
0.0910635
0.0910625
0.0910623
0.0910622
0.0910622
0.0910622
0.0910623
0.0910625
0.091063
0.0910643
0.0910671
0.800673
0.300047
0.169535
0.123036
0.104096
0.0961454
0.0929221
0.0916984
0.0912666
0.0911243
0.0910802
0.0910672
0.0910635
0.0910625
0.0910623
0.0910622
0.0910622
0.0910622
0.0910623
0.0910625
0.091063
0.0910643
0.0910671
0.800673
0.300047
0.169535
0.123036
0.104096
0.0961454
0.0929221
0.0916984
0.0912666
0.0911243
0.0910802
0.0910672
0.0910635
0.0910625
0.0910623
0.0910622
0.0910622
0.0910622
0.0910623
0.0910625
0.091063
0.0910643
0.0910671
0.800673
0.300047
0.169535
0.123036
0.104096
0.0961454
0.0929221
0.0916984
0.0912666
0.0911243
0.0910802
0.0910672
0.0910635
0.0910625
0.0910623
0.0910622
0.0910622
0.0910622
0.0910623
0.0910625
0.091063
0.0910643
0.0910671
0.800673
0.300047
0.169535
0.123036
0.104096
0.0961454
0.0929221
0.0916984
0.0912666
0.0911243
0.0910802
0.0910672
0.0910635
0.0910625
0.0910623
0.0910622
0.0910622
0.0910622
0.0910623
0.0910625
0.091063
0.0910643
0.0910671
0.800673
0.300047
0.169535
0.123036
0.104096
0.0961454
0.0929221
0.0916984
0.0912666
0.0911243
0.0910802
0.0910672
0.0910635
0.0910625
0.0910623
0.0910622
0.0910622
0.0910622
0.0910623
0.0910625
0.091063
0.0910643
0.0910671
0.800673
0.300047
0.169535
0.123036
0.104096
0.0961454
0.0929221
0.0916984
0.0912666
0.0911243
0.0910802
0.0910672
0.0910635
0.0910625
0.0910623
0.0910622
0.0910622
0.0910622
0.0910623
0.0910625
0.091063
0.0910643
0.0910671
0.800673
0.300047
0.169535
0.123036
0.104096
0.0961454
0.0929221
0.0916984
0.0912666
0.0911243
0.0910802
0.0910672
0.0910635
0.0910625
0.0910623
0.0910622
0.0910622
0.0910622
0.0910623
0.0910625
0.091063
0.0910643
0.0910671
0.800673
0.300047
0.169535
0.123036
0.104096
0.0961454
0.0929221
0.0916984
0.0912666
0.0911243
0.0910802
0.0910672
0.0910635
0.0910625
0.0910623
0.0910622
0.0910622
0.0910622
0.0910623
0.0910625
0.091063
0.0910643
0.0910671
0.800673
0.300047
0.169535
0.123036
0.104096
0.0961454
0.0929221
0.0916984
0.0912666
0.0911243
0.0910802
0.0910672
0.0910635
0.0910625
0.0910623
0.0910622
0.0910622
0.0910622
0.0910623
0.0910625
0.091063
0.0910643
0.0910671
0.800673
0.300047
0.169535
0.123036
0.104096
0.0961454
0.0929221
0.0916984
0.0912666
0.0911243
0.0910802
0.0910672
0.0910635
0.0910625
0.0910623
0.0910622
0.0910622
0.0910622
0.0910623
0.0910625
0.091063
0.0910643
0.0910671
0.800673
0.300047
0.169535
0.123036
0.104096
0.0961454
0.0929221
0.0916984
0.0912666
0.0911243
0.0910802
0.0910672
0.0910635
0.0910625
0.0910623
0.0910622
0.0910622
0.0910622
0.0910623
0.0910625
0.091063
0.0910643
0.0910671
0.800673
0.300047
0.169535
0.123036
0.104096
0.0961454
0.0929221
0.0916984
0.0912666
0.0911243
0.0910802
0.0910672
0.0910635
0.0910625
0.0910623
0.0910622
0.0910622
0.0910622
0.0910623
0.0910625
0.091063
0.0910643
0.0910671
0.800673
0.300047
0.169535
0.123036
0.104096
0.0961454
0.0929221
0.0916984
0.0912666
0.0911243
0.0910802
0.0910672
0.0910635
0.0910625
0.0910623
0.0910622
0.0910622
0.0910622
0.0910623
0.0910625
0.091063
0.0910643
0.0910671
0.800673
0.300047
0.169535
0.123036
0.104096
0.0961454
0.0929221
0.0916984
0.0912666
0.0911243
0.0910802
0.0910672
0.0910635
0.0910625
0.0910623
0.0910622
0.0910622
0.0910622
0.0910623
0.0910625
0.091063
0.0910643
0.0910671
0.800673
0.300047
0.169535
0.123036
0.104096
0.0961454
0.0929221
0.0916984
0.0912666
0.0911243
0.0910802
0.0910672
0.0910635
0.0910625
0.0910623
0.0910622
0.0910622
0.0910622
0.0910623
0.0910625
0.091063
0.0910643
0.0910671
0.800673
0.300047
0.169535
0.123036
0.104096
0.0961454
0.0929221
0.0916984
0.0912666
0.0911243
0.0910802
0.0910672
0.0910635
0.0910625
0.0910623
0.0910622
0.0910622
0.0910622
0.0910623
0.0910625
0.091063
0.0910643
0.0910671
0.800673
0.300047
0.169535
0.123036
0.104096
0.0961454
0.0929221
0.0916984
0.0912666
0.0911243
0.0910802
0.0910672
0.0910635
0.0910625
0.0910623
0.0910622
0.0910622
0.0910622
0.0910623
0.0910625
0.091063
0.0910643
0.0910671
0.800673
0.300047
0.169535
0.123036
0.104096
0.0961454
0.0929221
0.0916984
0.0912666
0.0911243
0.0910802
0.0910672
0.0910635
0.0910625
0.0910623
0.0910622
0.0910622
0.0910622
0.0910623
0.0910625
0.091063
0.0910643
0.0910671
0.800673
0.300047
0.169535
0.123036
0.104096
0.0961454
0.0929221
0.0916984
0.0912666
0.0911243
0.0910802
0.0910672
0.0910635
0.0910625
0.0910623
0.0910622
0.0910622
0.0910622
0.0910623
0.0910625
0.091063
0.0910643
0.0910671
0.800673
0.300047
0.169535
0.123036
0.104096
0.0961454
0.0929221
0.0916984
0.0912666
0.0911243
0.0910802
0.0910672
0.0910635
0.0910625
0.0910623
0.0910622
0.0910622
0.0910622
0.0910623
0.0910625
0.091063
0.0910643
0.0910671
0.800673
0.300047
0.169535
0.123036
0.104096
0.0961454
0.0929221
0.0916984
0.0912666
0.0911243
0.0910802
0.0910672
0.0910635
0.0910625
0.0910623
0.0910622
0.0910622
0.0910622
0.0910623
0.0910625
0.091063
0.0910643
0.0910671
0.800673
0.300047
0.169535
0.123036
0.104096
0.0961454
0.0929221
0.0916984
0.0912666
0.0911243
0.0910802
0.0910672
0.0910635
0.0910625
0.0910623
0.0910622
0.0910622
0.0910622
0.0910623
0.0910625
0.091063
0.0910643
0.0910671
0.800673
0.300047
0.169535
0.123036
0.104096
0.0961454
0.0929221
0.0916984
0.0912666
0.0911243
0.0910802
0.0910672
0.0910635
0.0910625
0.0910623
0.0910622
0.0910622
0.0910622
0.0910623
0.0910625
0.091063
0.0910643
0.0910671
0.800673
0.300047
0.169535
0.123036
0.104096
0.0961454
0.0929221
0.0916984
0.0912666
0.0911243
0.0910802
0.0910672
0.0910635
0.0910625
0.0910623
0.0910622
0.0910622
0.0910622
0.0910623
0.0910624
0.091063
0.0910642
0.091067
0.800673
0.300047
0.169535
0.123037
0.104096
0.0961454
0.0929221
0.0916984
0.0912666
0.0911243
0.0910802
0.0910672
0.0910635
0.0910625
0.0910622
0.0910622
0.0910622
0.0910622
0.0910622
0.0910624
0.0910629
0.0910642
0.0910669
0.800673
0.300048
0.169535
0.123037
0.104096
0.0961454
0.0929221
0.0916984
0.0912666
0.0911243
0.0910802
0.0910672
0.0910635
0.0910625
0.0910622
0.0910622
0.0910621
0.0910622
0.0910622
0.0910624
0.0910629
0.0910641
0.0910667
0.800673
0.300048
0.169535
0.123037
0.104096
0.0961454
0.0929221
0.0916984
0.0912666
0.0911243
0.0910801
0.0910671
0.0910635
0.0910625
0.0910622
0.0910621
0.0910621
0.0910621
0.0910622
0.0910624
0.0910629
0.091064
0.0910665
0.942578
0.830324
0.829805
0.938534
0.26257
0.276956
0.277006
0.262756
0.147705
0.152323
0.152324
0.147699
0.112445
0.113807
0.113802
0.112426
0.0991932
0.0996256
0.0996228
0.0991845
0.0940243
0.0941648
0.094164
0.0940218
0.0920805
0.0921259
0.0921259
0.0920806
0.0913948
0.09141
0.0914103
0.0913958
0.091169
0.0911749
0.0911753
0.0911702
0.0910991
0.0911024
0.0911028
0.0911004
0.0910787
0.0910813
0.0910816
0.0910799
0.091073
0.0910754
0.0910757
0.0910742
0.0910714
0.0910738
0.0910742
0.0910727
0.091071
0.0910734
0.0910738
0.0910723
0.0910709
0.0910733
0.0910737
0.0910722
0.0910709
0.0910733
0.0910736
0.0910722
0.0910709
0.0910733
0.0910736
0.0910722
0.0910709
0.0910733
0.0910736
0.0910722
0.0910709
0.0910733
0.0910736
0.0910722
0.0910709
0.0910733
0.0910736
0.0910722
0.0910709
0.0910733
0.0910736
0.0910722
0.0910709
0.0910733
0.0910736
0.0910722
0.0910709
0.0910733
0.0910736
0.0910722
0.0910709
0.0910733
0.0910736
0.0910722
0.0910709
0.0910733
0.0910736
0.0910722
0.0910709
0.0910733
0.0910736
0.0910722
0.0910709
0.0910733
0.0910736
0.0910722
0.0910709
0.0910733
0.0910736
0.0910722
0.0910709
0.0910733
0.0910736
0.0910722
0.0910709
0.0910733
0.0910736
0.0910722
0.0910709
0.0910733
0.0910736
0.0910722
0.0910709
0.0910733
0.0910736
0.0910722
0.0910709
0.0910733
0.0910736
0.0910722
0.0910709
0.0910733
0.0910736
0.0910722
0.0910709
0.0910733
0.0910736
0.0910722
0.0910709
0.0910733
0.0910736
0.0910722
0.0910709
0.0910732
0.0910736
0.0910721
0.0910709
0.0910732
0.0910736
0.0910721
0.0910708
0.0910731
0.0910735
0.091072
0.0910706
0.0910728
0.0910732
0.0910717
0.0910702
0.0910723
0.0910726
0.0910711
0.0910696
0.0910715
0.0910716
0.0910702
0.353291
0.1886
0.132645
0.112491
0.105175
0.10266
0.101865
0.101635
0.101576
0.101571
0.101608
0.101759
0.102289
0.103993
0.109029
0.122966
0.161417
0.280134
0.769852
0.193303
0.139878
0.113916
0.102343
0.0976025
0.0958427
0.0952529
0.0950736
0.0950262
0.0950258
0.0950721
0.0952523
0.0958651
0.0977767
0.103258
0.118022
0.157851
0.278549
0.770332
0.132981
0.114207
0.102626
0.0966775
0.0940228
0.0929786
0.0926123
0.0924966
0.0924661
0.0924713
0.092524
0.0927211
0.0933803
0.0954037
0.101115
0.116283
0.156715
0.278113
0.770448
0.10826
0.101368
0.0964338
0.093659
0.092346
0.0918069
0.0916106
0.0915468
0.0915311
0.0915408
0.0915973
0.0918029
0.0924845
0.09456
0.100375
0.115713
0.156376
0.277998
0.770476
0.0978526
0.0953264
0.0933495
0.0921709
0.0915894
0.0913421
0.0912493
0.0912186
0.0912126
0.0912254
0.0912838
0.0914933
0.0921843
0.0942812
0.100137
0.115539
0.156281
0.277969
0.770482
0.0935855
0.0926946
0.0919576
0.0914998
0.0912662
0.0911638
0.0911242
0.0911113
0.0911108
0.0911253
0.0911845
0.0913955
0.0920901
0.094195
0.100065
0.115489
0.156256
0.277962
0.770484
0.09194
0.0916423
0.0913867
0.0912227
0.0911365
0.0910977
0.0910823
0.0910777
0.0910798
0.0910952
0.0911548
0.0913664
0.0920623
0.0941698
0.100045
0.115476
0.156249
0.27796
0.770484
0.0913505
0.0912555
0.0911722
0.0911174
0.0910878
0.0910741
0.0910687
0.0910675
0.0910708
0.0910865
0.0911464
0.0913581
0.0920544
0.0941628
0.100039
0.115472
0.156248
0.27796
0.770484
0.0911541
0.0911238
0.0910976
0.0910802
0.0910705
0.091066
0.0910643
0.0910645
0.0910683
0.0910841
0.091144
0.0913559
0.0920523
0.0941609
0.100038
0.115471
0.156247
0.27796
0.770484
0.0910927
0.0910819
0.0910733
0.0910678
0.0910648
0.0910634
0.091063
0.0910637
0.0910676
0.0910835
0.0911434
0.0913553
0.0920517
0.0941604
0.100037
0.115471
0.156247
0.27796
0.770484
0.0910746
0.0910692
0.0910659
0.0910639
0.0910629
0.0910625
0.0910625
0.0910634
0.0910674
0.0910833
0.0911433
0.0913551
0.0920516
0.0941603
0.100037
0.115471
0.156247
0.27796
0.770484
0.0910695
0.0910656
0.0910637
0.0910628
0.0910624
0.0910623
0.0910624
0.0910634
0.0910674
0.0910833
0.0911432
0.0913551
0.0920516
0.0941603
0.100037
0.115471
0.156247
0.27796
0.770484
0.0910681
0.0910646
0.0910631
0.0910625
0.0910622
0.0910622
0.0910624
0.0910633
0.0910674
0.0910833
0.0911432
0.0913551
0.0920515
0.0941602
0.100037
0.115471
0.156247
0.27796
0.770484
0.0910677
0.0910643
0.0910629
0.0910624
0.0910622
0.0910622
0.0910624
0.0910633
0.0910674
0.0910833
0.0911432
0.0913551
0.0920515
0.0941602
0.100037
0.115471
0.156247
0.27796
0.770484
0.0910676
0.0910643
0.0910629
0.0910623
0.0910622
0.0910622
0.0910624
0.0910633
0.0910674
0.0910833
0.0911432
0.0913551
0.0920515
0.0941602
0.100037
0.115471
0.156247
0.27796
0.770484
0.0910676
0.0910643
0.0910629
0.0910623
0.0910622
0.0910622
0.0910624
0.0910633
0.0910674
0.0910833
0.0911432
0.0913551
0.0920515
0.0941602
0.100037
0.115471
0.156247
0.27796
0.770484
0.0910676
0.0910643
0.0910628
0.0910623
0.0910622
0.0910622
0.0910624
0.0910633
0.0910674
0.0910833
0.0911432
0.0913551
0.0920515
0.0941602
0.100037
0.115471
0.156247
0.27796
0.770484
0.0910676
0.0910643
0.0910628
0.0910623
0.0910622
0.0910622
0.0910624
0.0910633
0.0910674
0.0910833
0.0911432
0.0913551
0.0920515
0.0941602
0.100037
0.115471
0.156247
0.27796
0.770484
0.0910676
0.0910643
0.0910628
0.0910623
0.0910622
0.0910622
0.0910624
0.0910633
0.0910674
0.0910833
0.0911432
0.0913551
0.0920515
0.0941602
0.100037
0.115471
0.156247
0.27796
0.770484
0.0910676
0.0910643
0.0910628
0.0910623
0.0910622
0.0910622
0.0910624
0.0910633
0.0910674
0.0910833
0.0911432
0.0913551
0.0920515
0.0941602
0.100037
0.115471
0.156247
0.27796
0.770484
0.0910676
0.0910643
0.0910628
0.0910623
0.0910622
0.0910622
0.0910624
0.0910633
0.0910674
0.0910833
0.0911432
0.0913551
0.0920515
0.0941602
0.100037
0.115471
0.156247
0.27796
0.770484
0.0910676
0.0910643
0.0910628
0.0910623
0.0910622
0.0910622
0.0910624
0.0910633
0.0910674
0.0910833
0.0911432
0.0913551
0.0920515
0.0941602
0.100037
0.115471
0.156247
0.27796
0.770484
0.0910676
0.0910643
0.0910628
0.0910623
0.0910622
0.0910622
0.0910624
0.0910633
0.0910674
0.0910833
0.0911432
0.0913551
0.0920515
0.0941602
0.100037
0.115471
0.156247
0.27796
0.770484
0.0910676
0.0910643
0.0910628
0.0910623
0.0910622
0.0910622
0.0910624
0.0910633
0.0910674
0.0910833
0.0911432
0.0913551
0.0920515
0.0941602
0.100037
0.115471
0.156247
0.27796
0.770484
0.0910676
0.0910643
0.0910628
0.0910623
0.0910622
0.0910622
0.0910624
0.0910633
0.0910674
0.0910833
0.0911432
0.0913551
0.0920515
0.0941602
0.100037
0.115471
0.156247
0.27796
0.770484
0.0910676
0.0910643
0.0910628
0.0910623
0.0910622
0.0910622
0.0910624
0.0910633
0.0910674
0.0910833
0.0911432
0.0913551
0.0920515
0.0941602
0.100037
0.115471
0.156247
0.27796
0.770484
0.0910676
0.0910643
0.0910628
0.0910623
0.0910622
0.0910622
0.0910624
0.0910633
0.0910674
0.0910833
0.0911432
0.0913551
0.0920515
0.0941602
0.100037
0.115471
0.156247
0.27796
0.770484
0.0910676
0.0910643
0.0910628
0.0910623
0.0910622
0.0910622
0.0910624
0.0910633
0.0910674
0.0910833
0.0911432
0.0913551
0.0920515
0.0941602
0.100037
0.115471
0.156247
0.27796
0.770484
0.0910676
0.0910643
0.0910628
0.0910623
0.0910622
0.0910622
0.0910624
0.0910633
0.0910674
0.0910833
0.0911432
0.0913551
0.0920515
0.0941602
0.100037
0.115471
0.156247
0.27796
0.770484
0.0910676
0.0910643
0.0910628
0.0910623
0.0910622
0.0910622
0.0910624
0.0910633
0.0910674
0.0910833
0.0911432
0.0913551
0.0920515
0.0941602
0.100037
0.115471
0.156247
0.27796
0.770484
0.0910676
0.0910643
0.0910628
0.0910623
0.0910622
0.0910622
0.0910624
0.0910633
0.0910674
0.0910833
0.0911432
0.0913551
0.0920515
0.0941602
0.100037
0.115471
0.156247
0.27796
0.770484
0.0910676
0.0910643
0.0910628
0.0910623
0.0910622
0.0910622
0.0910624
0.0910633
0.0910674
0.0910833
0.0911432
0.0913551
0.0920515
0.0941602
0.100037
0.115471
0.156247
0.27796
0.770484
0.0910676
0.0910643
0.0910628
0.0910623
0.0910622
0.0910622
0.0910624
0.0910633
0.0910674
0.0910833
0.0911432
0.0913551
0.0920515
0.0941602
0.100037
0.115471
0.156247
0.27796
0.770484
0.0910676
0.0910643
0.0910628
0.0910623
0.0910622
0.0910622
0.0910624
0.0910633
0.0910674
0.0910833
0.0911432
0.0913551
0.0920515
0.0941602
0.100037
0.115471
0.156247
0.27796
0.770484
0.0910676
0.0910643
0.0910628
0.0910623
0.0910622
0.0910622
0.0910624
0.0910633
0.0910674
0.0910833
0.0911432
0.0913551
0.0920515
0.0941602
0.100037
0.115471
0.156247
0.27796
0.770484
0.0910676
0.0910643
0.0910628
0.0910623
0.0910622
0.0910622
0.0910624
0.0910633
0.0910674
0.0910833
0.0911432
0.0913551
0.0920515
0.0941602
0.100037
0.115471
0.156247
0.27796
0.770484
0.0910676
0.0910642
0.0910628
0.0910623
0.0910622
0.0910622
0.0910624
0.0910633
0.0910674
0.0910833
0.0911432
0.0913551
0.0920515
0.0941602
0.100037
0.115471
0.156247
0.27796
0.770484
0.0910676
0.0910642
0.0910628
0.0910623
0.0910622
0.0910622
0.0910624
0.0910633
0.0910674
0.0910833
0.0911432
0.0913551
0.0920515
0.0941602
0.100037
0.115471
0.156247
0.27796
0.770484
0.0910675
0.0910642
0.0910628
0.0910623
0.0910622
0.0910622
0.0910624
0.0910633
0.0910674
0.0910833
0.0911432
0.0913551
0.0920515
0.0941602
0.100037
0.115471
0.156247
0.27796
0.770484
0.0910673
0.0910641
0.0910628
0.0910623
0.0910621
0.0910622
0.0910624
0.0910633
0.0910673
0.0910833
0.0911432
0.0913551
0.0920515
0.0941602
0.100037
0.115471
0.156247
0.27796
0.770484
0.0910669
0.091064
0.0910627
0.0910623
0.0910621
0.0910621
0.0910624
0.0910633
0.0910673
0.0910833
0.0911432
0.091355
0.0920515
0.0941602
0.100037
0.115471
0.156247
0.27796
0.770484
0.0910665
0.0910638
0.0910626
0.0910622
0.0910621
0.0910621
0.0910623
0.0910633
0.0910673
0.0910833
0.0911432
0.091355
0.0920515
0.0941602
0.100037
0.115471
0.156247
0.27796
0.770484
)
;

boundaryField
{
    leftWall
    {
        type            epsilonWallFunction;
        blending        stepwise;
        value           nonuniform List<scalar> 
50
(
0.724157
0.678915
0.739262
0.768295
0.783924
0.792173
0.796392
0.798484
0.800012
0.800516
0.800636
0.800664
0.800671
0.800673
0.800673
0.800673
0.800673
0.800673
0.800673
0.800673
0.800673
0.800673
0.800673
0.800673
0.800673
0.800673
0.800673
0.800673
0.800673
0.800673
0.800673
0.800673
0.800673
0.800673
0.800673
0.800673
0.800673
0.800673
0.800673
0.800673
0.800673
0.800673
0.800673
0.800673
0.800673
0.800673
0.800673
0.800673
0.800673
0.800673
)
;
    }
    rightWall
    {
        type            epsilonWallFunction;
        blending        stepwise;
        value           nonuniform List<scalar> 
50
(
0.737304
0.656742
0.714529
0.740853
0.754966
0.762524
0.766443
0.768406
0.769852
0.770332
0.770448
0.770476
0.770482
0.770484
0.770484
0.770484
0.770484
0.770484
0.770484
0.770484
0.770484
0.770484
0.770484
0.770484
0.770484
0.770484
0.770484
0.770484
0.770484
0.770484
0.770484
0.770484
0.770484
0.770484
0.770484
0.770484
0.770484
0.770484
0.770484
0.770484
0.770484
0.770484
0.770484
0.770484
0.770484
0.770484
0.770484
0.770484
0.770484
0.770484
)
;
    }
    lowerWall
    {
        type            epsilonWallFunction;
        blending        stepwise;
        value           nonuniform List<scalar> 
62
(
0.724157
0.872415
0.932335
0.949976
0.954293
0.955297
0.955526
0.955578
0.95559
0.955592
0.955593
0.955593
0.955593
0.955593
0.955591
0.955581
0.955538
0.955332
0.954384
0.950159
0.932485
0.867729
0.703382
0.703382
0.66164
0.736741
0.768375
0.785399
0.797667
0.821317
0.940345
0.942578
0.830324
0.829805
0.938534
0.718699
0.637427
0.711354
0.740775
0.756337
0.767808
0.790427
0.897584
0.718699
0.880726
0.938281
0.952057
0.954911
0.955464
0.955568
0.955587
0.955591
0.955591
0.95559
0.955586
0.955562
0.955444
0.954847
0.951903
0.938109
0.88508
0.737304
)
;
    }
    atmosphere
    {
        type            inletOutlet;
        inletValue      uniform 0.1;
        value           nonuniform List<scalar> 
46
(
0.800673
0.300048
0.169535
0.123037
0.104096
0.0961454
0.0929221
0.0916984
0.0912666
0.0911243
0.0910801
0.0910671
0.0910635
0.0910625
0.0910622
0.0910621
0.0910621
0.0910621
0.0910622
0.0910624
0.0910629
0.091064
0.0910665
0.0910696
0.0910715
0.0910716
0.0910702
0.0910665
0.0910638
0.0910626
0.0910622
0.0910621
0.0910621
0.0910623
0.0910633
0.0910673
0.0910833
0.0911432
0.091355
0.0920515
0.0941602
0.100037
0.115471
0.156247
0.27796
0.770484
)
;
    }
    defaultFaces
    {
        type            empty;
    }
}


// ************************************************************************* //
