/*--------------------------------*- C++ -*----------------------------------*\
| =========                 |                                                 |
| \\      /  F ield         | OpenFOAM: The Open Source CFD Toolbox           |
|  \\    /   O peration     | Version:  2406                                  |
|   \\  /    A nd           | Website:  www.openfoam.com                      |
|    \\/     M anipulation  |                                                 |
\*---------------------------------------------------------------------------*/
FoamFile
{
    version     2.0;
    format      ascii;
    arch        "LSB;label=32;scalar=64";
    class       volScalarField;
    location    "0.05";
    object      k;
}
// * * * * * * * * * * * * * * * * * * * * * * * * * * * * * * * * * * * * * //

dimensions      [0 2 -2 0 0 0 0];

internalField   nonuniform List<scalar> 
2268
(
0.1
0.1
0.1
0.1
0.1
0.1
0.1
0.1
0.1
0.1
0.1
0.1
0.1
0.0321647
0.0334781
0.0342808
0.0344938
0.0345371
0.0345126
0.0343626
0.0337744
0.0317959
0.0269145
0.1
0.1
0.1
0.1
0.1
0.1
0.1
0.1
0.1
0.1
0.1
0.1
0.1
0.0603996
0.0650941
0.0671067
0.0677396
0.067888
0.0678038
0.0673321
0.0657109
0.060609
0.0439463
0.1
0.1
0.1
0.1
0.1
0.1
0.1
0.1
0.1
0.1
0.1
0.1
0.1
0.0712942
0.0767487
0.0790932
0.079933
0.0801559
0.0800289
0.0793638
0.07729
0.071014
0.0476909
0.1
0.1
0.1
0.1
0.1
0.1
0.1
0.1
0.1
0.1
0.1
0.1
0.1
0.0765876
0.0823492
0.0847673
0.0856965
0.0859646
0.0858146
0.0850505
0.0827832
0.0759494
0.0493162
0.1
0.1
0.1
0.1
0.1
0.1
0.1
0.1
0.1
0.1
0.1
0.1
0.1
0.0794026
0.0854155
0.0878578
0.0888277
0.0891246
0.0889683
0.0881677
0.0858401
0.0787184
0.0502265
0.1
0.1
0.1
0.1
0.1
0.1
0.1
0.1
0.1
0.1
0.1
0.1
0.1
0.0809816
0.0872134
0.089688
0.0906848
0.0910044
0.0908561
0.0900638
0.0877744
0.080608
0.0509099
0.1
0.1
0.1
0.1
0.1
0.1
0.1
0.1
0.1
0.1
0.1
0.1
0.1
0.0819063
0.0883043
0.0908266
0.091851
0.0921934
0.0920653
0.0913177
0.0891715
0.0823581
0.0521776
0.1
0.1
0.1
0.1
0.1
0.1
0.1
0.1
0.1
0.1
0.1
0.1
0.1
0.082469
0.0889735
0.0915528
0.0926092
0.092977
0.0928798
0.0922073
0.0903177
0.0845319
0.0578744
0.027378
0.0321823
0.0339611
0.0344297
0.0345343
0.0345554
0.0345595
0.0345602
0.0345604
0.0345604
0.0345603
0.0345601
0.0345592
0.0345543
0.034531
0.0344226
0.0339544
0.0322987
0.0354147
0.046148
0.0616379
0.0662203
0.0675432
0.0678882
0.0679693
0.0679871
0.0679908
0.0679915
0.0679916
0.0679914
0.0679903
0.0679854
0.067964
0.0678737
0.0675131
0.0661836
0.0616748
0.0471739
0.0501479
0.0722689
0.0779377
0.0796649
0.080174
0.0803112
0.0803453
0.0803533
0.080355
0.0803553
0.0803547
0.080352
0.0803412
0.080299
0.0801423
0.0795993
0.0778435
0.0722222
0.0503216
0.0517917
0.0773061
0.0834937
0.0854045
0.0860104
0.0861902
0.0862394
0.086252
0.086255
0.0862554
0.0862543
0.0862496
0.0862318
0.0861681
0.0859547
0.0852873
0.0833059
0.0771353
0.0517936
0.0526958
0.0801294
0.0865764
0.0885507
0.0892037
0.0894112
0.0894724
0.0894892
0.0894934
0.089494
0.0894923
0.0894852
0.0894601
0.0893764
0.0891162
0.0883618
0.086243
0.0797284
0.0526069
0.0533896
0.0820364
0.088508
0.0904575
0.0911202
0.0913419
0.0914111
0.0914312
0.0914365
0.0914372
0.0914348
0.0914253
0.091393
0.0912912
0.0909927
0.0901733
0.0879543
0.0811836
0.0530588
0.054707
0.0837358
0.089869
0.0917058
0.092348
0.0925721
0.0926455
0.0926677
0.0926738
0.0926745
0.0926714
0.0926595
0.0926205
0.0925027
0.0921723
0.0913003
0.0889966
0.0820179
0.0532999
0.0602972
0.0857168
0.0909398
0.0925752
0.0931718
0.0933886
0.0934624
0.0934856
0.0934921
0.0934928
0.093489
0.0934748
0.0934297
0.093298
0.0929403
0.0920231
0.0896422
0.0824908
0.0534193
0.1
0.1
0.1
0.1
0.1
0.1
0.1
0.1
0.1
0.1
0.1
0.1
0.1
0.0830251
0.0896128
0.0922829
0.093394
0.0938053
0.0937685
0.0932465
0.0918747
0.0885321
0.0798879
0.1
0.1
0.1
0.1
0.1
0.1
0.1
0.1
0.1
0.1
0.1
0.1
0.1
0.0834999
0.0899805
0.0926987
0.0938627
0.0943308
0.0943887
0.094085
0.0932999
0.0917227
0.0888415
0.1
0.1
0.1
0.1
0.1
0.1
0.1
0.1
0.1
0.1
0.1
0.1
0.1
0.0838953
0.0901783
0.0928845
0.0940731
0.0945835
0.0947223
0.0945923
0.094193
0.0934761
0.0924455
0.1
0.1
0.1
0.1
0.1
0.1
0.1
0.1
0.1
0.1
0.1
0.1
0.1
0.0842494
0.090315
0.0929794
0.0941713
0.0947067
0.0949013
0.0948866
0.0947119
0.0944
0.0940085
0.1
0.1
0.1
0.1
0.1
0.1
0.1
0.1
0.1
0.1
0.1
0.1
0.1
0.0845712
0.0904262
0.0930384
0.0942214
0.0947676
0.0949941
0.0950455
0.09499
0.0948652
0.0947143
0.1
0.1
0.1
0.1
0.1
0.1
0.1
0.1
0.1
0.1
0.1
0.1
0.1
0.0848631
0.0905232
0.093082
0.0942507
0.0947985
0.0950401
0.0951246
0.0951264
0.0950849
0.0950286
0.1
0.1
0.1
0.1
0.1
0.1
0.1
0.1
0.1
0.1
0.1
0.1
0.1
0.085126
0.0906099
0.093118
0.0942705
0.0948151
0.0950621
0.095161
0.0951879
0.095181
0.0951614
0.1
0.1
0.1
0.1
0.1
0.1
0.1
0.1
0.1
0.1
0.1
0.1
0.1
0.085361
0.0906875
0.0931491
0.0942857
0.0948251
0.0950726
0.0951767
0.0952135
0.0952199
0.0952139
0.1
0.1
0.1
0.1
0.1
0.1
0.1
0.1
0.1
0.1
0.1
0.1
0.1
0.0855693
0.0907566
0.0931765
0.0942982
0.0948319
0.095078
0.0951834
0.0952235
0.0952347
0.0952333
0.1
0.1
0.1
0.1
0.1
0.1
0.1
0.1
0.1
0.1
0.1
0.1
0.1
0.0857524
0.0908177
0.0932006
0.0943089
0.0948371
0.0950811
0.0951863
0.0952273
0.09524
0.0952402
0.1
0.1
0.1
0.1
0.1
0.1
0.1
0.1
0.1
0.1
0.1
0.1
0.1
0.0859118
0.0908712
0.0932217
0.0943182
0.0948414
0.0950833
0.0951878
0.0952288
0.0952419
0.0952425
0.1
0.1
0.1
0.1
0.1
0.1
0.1
0.1
0.1
0.1
0.1
0.1
0.1
0.0860491
0.0909176
0.0932401
0.0943263
0.0948451
0.095085
0.0951887
0.0952294
0.0952425
0.0952432
0.1
0.1
0.1
0.1
0.1
0.1
0.1
0.1
0.1
0.1
0.1
0.1
0.1
0.0861658
0.0909574
0.0932562
0.0943335
0.0948484
0.0950865
0.0951893
0.0952298
0.0952428
0.0952435
0.1
0.1
0.1
0.1
0.1
0.1
0.1
0.1
0.1
0.1
0.1
0.1
0.1
0.0862636
0.0909918
0.0932709
0.0943405
0.0948518
0.095088
0.0951901
0.0952301
0.0952429
0.0952436
0.1
0.1
0.1
0.1
0.1
0.1
0.1
0.1
0.1
0.1
0.1
0.1
0.1
0.0863456
0.0910242
0.093287
0.0943492
0.0948563
0.0950902
0.095191
0.0952305
0.0952431
0.0952436
0.1
0.1
0.1
0.1
0.1
0.1
0.1
0.1
0.1
0.1
0.1
0.1
0.1
0.0864225
0.0910663
0.0933126
0.094364
0.0948642
0.0950941
0.0951927
0.0952312
0.0952434
0.0952437
0.1
0.1
0.1
0.1
0.1
0.1
0.1
0.1
0.1
0.1
0.1
0.1
0.1
0.0865439
0.0911563
0.0933685
0.0943952
0.0948801
0.0951014
0.0951958
0.0952324
0.0952438
0.0952439
0.1
0.1
0.1
0.1
0.1
0.1
0.1
0.1
0.1
0.1
0.1
0.1
0.1
0.0869341
0.0914035
0.0934985
0.0944599
0.0949105
0.0951147
0.0952012
0.0952345
0.0952445
0.0952441
0.1
0.1
0.1
0.1
0.1
0.1
0.1
0.1
0.1
0.1
0.1
0.1
0.1
0.0883208
0.0920066
0.0937577
0.0945752
0.094961
0.0951357
0.0952094
0.0952375
0.0952456
0.0952445
0.1
0.1
0.1
0.1
0.1
0.1
0.1
0.1
0.1
0.1
0.1
0.1
0.085981
0.090411
0.0929039
0.0941273
0.0947341
0.0950284
0.0951629
0.0952197
0.0952412
0.0952468
0.0952449
0.0511854
0.0774609
0.0840511
0.0860447
0.0866197
0.0867384
0.0867207
0.0866725
0.0866363
0.0866716
0.0870059
0.0883609
0.0904276
0.0924863
0.0937747
0.0945071
0.094901
0.0950991
0.0951912
0.0952304
0.095245
0.0952481
0.0952453
0.0503274
0.0794313
0.0870559
0.0896716
0.0906487
0.0910002
0.0911115
0.0911402
0.0911571
0.0912222
0.0914505
0.0920385
0.0929207
0.0937804
0.0944106
0.094811
0.0950402
0.0951592
0.0952155
0.0952396
0.0952482
0.0952492
0.0952456
0.0508195
0.0807579
0.0886565
0.0914575
0.0925944
0.0930625
0.0932456
0.0933142
0.0933496
0.0934022
0.0935261
0.0937782
0.09414
0.0945133
0.094813
0.0950164
0.0951376
0.0952021
0.095233
0.0952463
0.0952507
0.0952501
0.0952459
0.0509867
0.0813027
0.0893721
0.0922719
0.0934878
0.0940171
0.0942404
0.094331
0.0943728
0.0944106
0.094475
0.0945874
0.0947425
0.0949057
0.0950422
0.0951382
0.0951968
0.0952286
0.0952441
0.0952506
0.0952523
0.0952506
0.0952461
0.0510328
0.0814948
0.0896697
0.0926358
0.0938993
0.0944636
0.0947098
0.0948125
0.0948567
0.0948844
0.0949176
0.0949675
0.0950332
0.0951021
0.0951607
0.0952027
0.0952289
0.0952433
0.0952503
0.0952531
0.0952532
0.0952509
0.0952462
0.0510447
0.0815562
0.0897834
0.0927886
0.0940802
0.0946644
0.0949232
0.0950323
0.0950774
0.0950993
0.0951171
0.0951389
0.0951655
0.0951931
0.0952166
0.0952337
0.0952445
0.0952505
0.0952534
0.0952544
0.0952537
0.0952511
0.0952463
0.0510477
0.0815745
0.0898234
0.0928479
0.0941543
0.0947487
0.095014
0.0951262
0.0951716
0.0951907
0.0952015
0.0952111
0.0952215
0.095232
0.0952409
0.0952474
0.0952515
0.0952539
0.0952549
0.095255
0.0952539
0.0952512
0.0952463
0.0510484
0.0815797
0.0898366
0.0928693
0.0941824
0.0947816
0.0950498
0.0951635
0.0952091
0.0952269
0.0952347
0.0952395
0.0952436
0.0952474
0.0952506
0.095253
0.0952545
0.0952553
0.0952556
0.0952552
0.095254
0.0952513
0.0952463
0.0510486
0.0815811
0.0898407
0.0928765
0.0941923
0.0947936
0.095063
0.0951774
0.095223
0.0952403
0.0952469
0.0952499
0.0952518
0.0952532
0.0952543
0.0952551
0.0952556
0.0952559
0.0952558
0.0952554
0.0952541
0.0952513
0.0952463
0.0510486
0.0815815
0.0898419
0.0928789
0.0941957
0.0947977
0.0950676
0.0951822
0.0952278
0.095245
0.0952512
0.0952536
0.0952546
0.0952552
0.0952556
0.0952559
0.095256
0.0952561
0.0952559
0.0952554
0.0952541
0.0952513
0.0952463
0.0510487
0.0815816
0.0898423
0.0928796
0.0941968
0.094799
0.0950692
0.0951838
0.0952295
0.0952466
0.0952527
0.0952548
0.0952556
0.0952559
0.0952561
0.0952562
0.0952562
0.0952562
0.095256
0.0952554
0.0952541
0.0952513
0.0952463
0.0510487
0.0815816
0.0898424
0.0928798
0.0941971
0.0947995
0.0950697
0.0951844
0.0952301
0.0952471
0.0952532
0.0952552
0.0952559
0.0952562
0.0952563
0.0952563
0.0952563
0.0952562
0.095256
0.0952555
0.0952541
0.0952513
0.0952463
0.0510487
0.0815817
0.0898425
0.09288
0.0941974
0.0947998
0.0950701
0.0951848
0.0952304
0.0952475
0.0952535
0.0952556
0.0952562
0.0952564
0.0952565
0.0952565
0.0952565
0.0952564
0.0952561
0.0952556
0.0952542
0.0952514
0.0952464
0.0510487
0.0815817
0.0898427
0.0928804
0.0941979
0.0948005
0.0950708
0.0951855
0.0952311
0.0952482
0.0952542
0.0952562
0.0952569
0.0952571
0.0952571
0.095257
0.095257
0.0952568
0.0952565
0.0952559
0.0952545
0.0952516
0.0952465
0.0510487
0.0815819
0.0898434
0.0928817
0.0941997
0.0948025
0.0950729
0.0951877
0.0952333
0.0952503
0.0952564
0.0952583
0.0952589
0.095259
0.095259
0.0952588
0.0952586
0.0952583
0.0952579
0.0952571
0.0952555
0.0952524
0.0952471
0.0510488
0.0815827
0.0898461
0.0928864
0.0942056
0.094809
0.0950796
0.0951944
0.09524
0.095257
0.0952629
0.0952648
0.0952653
0.0952652
0.0952649
0.0952644
0.0952639
0.0952632
0.0952623
0.095261
0.0952588
0.0952551
0.0952492
0.0510492
0.0815867
0.0898569
0.0929028
0.0942249
0.0948291
0.0950997
0.0952143
0.0952597
0.0952766
0.0952824
0.0952842
0.0952843
0.0952838
0.0952828
0.0952816
0.0952801
0.0952783
0.0952763
0.0952736
0.0952698
0.0952642
0.0952562
0.0510515
0.0816058
0.0898994
0.0929581
0.0942841
0.0948881
0.0951574
0.0952708
0.0953156
0.095332
0.0953376
0.095339
0.0953385
0.0953369
0.0953345
0.0953315
0.0953279
0.0953237
0.0953188
0.0953128
0.0953047
0.0952938
0.0952798
0.0510657
0.0817054
0.090063
0.093136
0.094456
0.0950504
0.0953124
0.0954216
0.0954643
0.0954797
0.0954847
0.0954854
0.0954838
0.0954802
0.0954751
0.0954687
0.095461
0.0954518
0.0954412
0.0954279
0.0954099
0.0953864
0.0953561
0.051183
0.0822512
0.0906678
0.0936663
0.0949145
0.0954624
0.0956988
0.0957957
0.0958329
0.0958461
0.09585
0.0958498
0.0958467
0.0958405
0.0958314
0.0958203
0.0958065
0.0957894
0.0957698
0.0957443
0.0957081
0.0956595
0.0955933
0.052867
0.0851297
0.0926528
0.0950549
0.096003
0.0964066
0.0965771
0.0966457
0.0966717
0.0966808
0.0966832
0.0966823
0.0966783
0.0966705
0.0966589
0.0966448
0.0966267
0.0966033
0.0965766
0.09654
0.0964836
0.0964042
0.0962828
0.0856568
0.0956829
0.0973283
0.0979219
0.0981906
0.0983143
0.0983688
0.0983913
0.0983999
0.0984029
0.0984036
0.098403
0.0984008
0.0983963
0.0983894
0.0983812
0.0983701
0.0983548
0.0983377
0.0983125
0.0982686
0.0982027
0.0980805
0.0582347
0.0529105
0.0528857
0.0580491
0.0855514
0.0842953
0.0842887
0.0855302
0.0916936
0.0914095
0.0914102
0.0916959
0.0937826
0.0937013
0.0937018
0.0937843
0.0946358
0.0946082
0.0946084
0.0946365
0.0949994
0.094989
0.0949891
0.0949998
0.0951496
0.0951452
0.0951453
0.0951499
0.0952081
0.0952058
0.0952058
0.0952085
0.0952296
0.0952279
0.095228
0.09523
0.095237
0.0952356
0.0952357
0.0952375
0.0952395
0.0952381
0.0952382
0.09524
0.0952403
0.095239
0.095239
0.0952408
0.0952406
0.0952392
0.0952393
0.095241
0.0952406
0.0952393
0.0952394
0.0952411
0.0952407
0.0952393
0.0952394
0.0952411
0.0952407
0.0952394
0.0952394
0.0952411
0.0952408
0.0952394
0.0952395
0.0952411
0.0952409
0.0952395
0.0952395
0.0952412
0.0952411
0.0952396
0.0952395
0.0952412
0.0952413
0.0952397
0.0952396
0.0952412
0.0952414
0.0952398
0.0952397
0.0952413
0.0952416
0.0952399
0.0952397
0.0952413
0.0952417
0.0952399
0.0952397
0.0952413
0.0952418
0.09524
0.0952398
0.0952413
0.0952419
0.09524
0.0952398
0.0952413
0.0952419
0.09524
0.0952398
0.0952413
0.0952419
0.09524
0.0952398
0.0952413
0.0952419
0.09524
0.0952398
0.0952413
0.0952419
0.09524
0.0952398
0.0952413
0.0952419
0.09524
0.0952398
0.0952413
0.0952419
0.09524
0.0952398
0.0952413
0.0952419
0.0952401
0.0952398
0.0952413
0.095242
0.0952401
0.0952398
0.0952414
0.0952421
0.0952402
0.0952399
0.0952414
0.0952426
0.0952406
0.0952402
0.0952417
0.0952441
0.0952419
0.0952413
0.0952425
0.0952497
0.0952465
0.0952451
0.0952455
0.0952686
0.0952625
0.0952583
0.0952563
0.0953317
0.095317
0.0953044
0.0952941
0.0955362
0.0954989
0.0954626
0.0954281
0.0961665
0.0960835
0.0959956
0.0959003
0.0979421
0.0978272
0.0976964
0.0975254
0.080651
0.0892043
0.0923351
0.0935655
0.0940628
0.094256
0.0943255
0.0943485
0.0943551
0.0943556
0.0943508
0.0943333
0.09428
0.0941294
0.0937355
0.092756
0.0902641
0.0828911
0.0534983
0.0890552
0.0920333
0.0935772
0.0943232
0.0946612
0.0948021
0.0948556
0.0948741
0.0948796
0.0948795
0.0948735
0.094853
0.0947921
0.094625
0.0941993
0.0931638
0.0905758
0.083051
0.0535212
0.092509
0.0936164
0.0943515
0.094763
0.0949661
0.0950556
0.0950911
0.0951038
0.0951075
0.0951067
0.0950999
0.0950776
0.0950123
0.0948355
0.0943913
0.0933238
0.0906858
0.0830975
0.0535269
0.0940297
0.0944647
0.0948026
0.0950111
0.0951205
0.0951708
0.0951915
0.0951991
0.0952011
0.0951996
0.0951924
0.0951691
0.0951014
0.0949197
0.094466
0.0933829
0.0907228
0.083111
0.0535285
0.0947225
0.0948969
0.0950454
0.0951428
0.0951962
0.0952217
0.0952325
0.0952364
0.0952372
0.0952354
0.0952278
0.095204
0.0951353
0.0949512
0.0944933
0.0934035
0.0907346
0.0831148
0.0535289
0.0950327
0.0951029
0.0951653
0.0952077
0.0952317
0.0952435
0.0952486
0.0952504
0.0952505
0.0952483
0.0952406
0.0952166
0.0951474
0.0949624
0.0945027
0.0934103
0.0907383
0.0831159
0.053529
0.0951644
0.0951937
0.0952196
0.0952372
0.0952474
0.0952525
0.0952547
0.0952555
0.0952551
0.0952528
0.095245
0.0952209
0.0951515
0.0949662
0.0945058
0.0934125
0.0907394
0.0831162
0.053529
0.0952166
0.0952308
0.0952423
0.0952497
0.095254
0.0952561
0.095257
0.0952572
0.0952567
0.0952543
0.0952465
0.0952223
0.0951529
0.0949674
0.0945068
0.0934131
0.0907397
0.0831163
0.053529
0.095236
0.0952449
0.0952511
0.0952547
0.0952566
0.0952575
0.0952578
0.0952578
0.0952572
0.0952548
0.0952469
0.0952228
0.0951533
0.0949677
0.0945071
0.0934133
0.0907398
0.0831163
0.053529
0.0952428
0.09525
0.0952543
0.0952566
0.0952576
0.095258
0.0952581
0.095258
0.0952573
0.0952549
0.0952471
0.0952229
0.0951534
0.0949679
0.0945072
0.0934134
0.0907398
0.0831163
0.053529
0.0952451
0.0952517
0.0952555
0.0952572
0.0952579
0.0952582
0.0952582
0.0952581
0.0952574
0.095255
0.0952471
0.095223
0.0951535
0.0949679
0.0945072
0.0934134
0.0907398
0.0831163
0.053529
0.0952458
0.0952523
0.0952559
0.0952574
0.095258
0.0952583
0.0952583
0.0952581
0.0952574
0.095255
0.0952471
0.095223
0.0951535
0.0949679
0.0945072
0.0934134
0.0907398
0.0831163
0.053529
0.095246
0.0952525
0.095256
0.0952575
0.0952581
0.0952583
0.0952583
0.0952581
0.0952574
0.095255
0.0952471
0.095223
0.0951535
0.0949679
0.0945072
0.0934134
0.0907398
0.0831163
0.053529
0.0952461
0.0952525
0.095256
0.0952575
0.0952581
0.0952583
0.0952583
0.0952581
0.0952574
0.095255
0.0952471
0.095223
0.0951535
0.0949679
0.0945072
0.0934134
0.0907398
0.0831163
0.053529
0.0952461
0.0952525
0.095256
0.0952575
0.0952581
0.0952583
0.0952583
0.0952581
0.0952574
0.095255
0.0952471
0.095223
0.0951535
0.0949679
0.0945072
0.0934134
0.0907398
0.0831163
0.053529
0.0952461
0.0952526
0.095256
0.0952575
0.0952581
0.0952583
0.0952583
0.0952581
0.0952574
0.095255
0.0952471
0.095223
0.0951535
0.0949679
0.0945072
0.0934134
0.0907398
0.0831163
0.053529
0.0952461
0.0952526
0.095256
0.0952575
0.0952581
0.0952583
0.0952583
0.0952581
0.0952574
0.095255
0.0952471
0.095223
0.0951535
0.0949679
0.0945072
0.0934134
0.0907398
0.0831163
0.053529
0.0952461
0.0952526
0.095256
0.0952575
0.0952581
0.0952583
0.0952583
0.0952581
0.0952574
0.095255
0.0952471
0.095223
0.0951535
0.0949679
0.0945072
0.0934134
0.0907398
0.0831163
0.053529
0.0952462
0.0952526
0.095256
0.0952575
0.0952581
0.0952583
0.0952583
0.0952581
0.0952574
0.095255
0.0952471
0.095223
0.0951535
0.0949679
0.0945072
0.0934134
0.0907398
0.0831163
0.053529
0.0952462
0.0952526
0.095256
0.0952575
0.0952581
0.0952583
0.0952583
0.0952581
0.0952574
0.095255
0.0952471
0.095223
0.0951535
0.0949679
0.0945072
0.0934134
0.0907398
0.0831163
0.053529
0.0952462
0.0952526
0.095256
0.0952575
0.0952581
0.0952583
0.0952583
0.0952581
0.0952574
0.095255
0.0952471
0.095223
0.0951535
0.0949679
0.0945072
0.0934134
0.0907398
0.0831163
0.053529
0.0952462
0.0952526
0.095256
0.0952575
0.0952581
0.0952583
0.0952583
0.0952581
0.0952574
0.095255
0.0952471
0.095223
0.0951535
0.0949679
0.0945072
0.0934134
0.0907398
0.0831163
0.053529
0.0952462
0.0952526
0.095256
0.0952575
0.0952581
0.0952583
0.0952583
0.0952581
0.0952574
0.095255
0.0952471
0.095223
0.0951535
0.0949679
0.0945072
0.0934134
0.0907398
0.0831163
0.053529
0.0952462
0.0952526
0.095256
0.0952575
0.0952581
0.0952583
0.0952583
0.0952581
0.0952574
0.095255
0.0952471
0.095223
0.0951535
0.0949679
0.0945072
0.0934134
0.0907398
0.0831163
0.053529
0.0952462
0.0952526
0.095256
0.0952575
0.0952581
0.0952583
0.0952583
0.0952581
0.0952574
0.095255
0.0952471
0.095223
0.0951535
0.0949679
0.0945072
0.0934134
0.0907398
0.0831163
0.053529
0.0952462
0.0952526
0.095256
0.0952575
0.0952581
0.0952583
0.0952583
0.0952581
0.0952574
0.095255
0.0952471
0.095223
0.0951535
0.0949679
0.0945072
0.0934134
0.0907398
0.0831163
0.053529
0.0952462
0.0952526
0.095256
0.0952575
0.0952581
0.0952583
0.0952583
0.0952581
0.0952574
0.095255
0.0952471
0.095223
0.0951535
0.0949679
0.0945072
0.0934134
0.0907398
0.0831163
0.053529
0.0952462
0.0952526
0.095256
0.0952575
0.0952581
0.0952583
0.0952583
0.0952581
0.0952574
0.095255
0.0952471
0.095223
0.0951535
0.0949679
0.0945072
0.0934134
0.0907398
0.0831163
0.053529
0.0952462
0.0952526
0.095256
0.0952575
0.0952581
0.0952583
0.0952583
0.0952581
0.0952574
0.095255
0.0952471
0.095223
0.0951535
0.0949679
0.0945072
0.0934134
0.0907398
0.0831163
0.053529
0.0952462
0.0952526
0.095256
0.0952575
0.0952581
0.0952583
0.0952583
0.0952581
0.0952574
0.095255
0.0952471
0.095223
0.0951535
0.0949679
0.0945072
0.0934134
0.0907398
0.0831163
0.053529
0.0952462
0.0952526
0.095256
0.0952575
0.0952581
0.0952583
0.0952583
0.0952581
0.0952574
0.095255
0.0952471
0.095223
0.0951535
0.0949679
0.0945072
0.0934134
0.0907398
0.0831163
0.053529
0.0952462
0.0952526
0.095256
0.0952575
0.0952581
0.0952583
0.0952583
0.0952581
0.0952574
0.095255
0.0952471
0.095223
0.0951535
0.0949679
0.0945072
0.0934134
0.0907398
0.0831163
0.053529
0.0952462
0.0952526
0.095256
0.0952575
0.0952581
0.0952583
0.0952583
0.0952581
0.0952574
0.095255
0.0952471
0.095223
0.0951535
0.0949679
0.0945072
0.0934134
0.0907398
0.0831163
0.053529
0.0952463
0.0952526
0.095256
0.0952575
0.0952581
0.0952583
0.0952583
0.0952581
0.0952574
0.095255
0.0952471
0.095223
0.0951535
0.0949679
0.0945072
0.0934134
0.0907398
0.0831163
0.053529
0.0952464
0.0952527
0.0952561
0.0952576
0.0952581
0.0952583
0.0952583
0.0952581
0.0952574
0.095255
0.0952471
0.095223
0.0951535
0.0949679
0.0945072
0.0934134
0.0907398
0.0831163
0.053529
0.095247
0.0952529
0.0952562
0.0952576
0.0952581
0.0952583
0.0952583
0.0952581
0.0952574
0.095255
0.0952471
0.095223
0.0951535
0.0949679
0.0945073
0.0934134
0.0907398
0.0831163
0.053529
0.0952489
0.0952539
0.0952566
0.0952578
0.0952582
0.0952583
0.0952583
0.0952581
0.0952574
0.095255
0.0952472
0.095223
0.0951535
0.0949679
0.0945073
0.0934134
0.0907398
0.0831163
0.053529
0.0952558
0.0952576
0.0952581
0.0952583
0.0952584
0.0952584
0.0952584
0.0952582
0.0952575
0.0952551
0.0952472
0.095223
0.0951535
0.094968
0.0945073
0.0934134
0.0907398
0.0831163
0.053529
0.095281
0.0952716
0.0952635
0.09526
0.0952589
0.0952586
0.0952585
0.0952583
0.0952576
0.0952552
0.0952473
0.0952231
0.0951536
0.094968
0.0945073
0.0934134
0.0907398
0.0831163
0.053529
0.0953742
0.0953291
0.0952825
0.095265
0.0952602
0.0952591
0.0952588
0.0952585
0.0952578
0.0952554
0.0952475
0.0952234
0.0951538
0.0949682
0.0945074
0.0934135
0.0907397
0.0831162
0.053529
0.095727
0.0955828
0.0953458
0.0952781
0.095263
0.0952599
0.0952593
0.095259
0.0952582
0.0952558
0.0952479
0.0952237
0.0951542
0.0949685
0.0945076
0.0934135
0.0907395
0.0831156
0.0535287
0.0971104
0.0968027
0.0955129
0.0953021
0.0952669
0.0952609
0.0952599
0.0952595
0.0952587
0.0952563
0.0952484
0.0952242
0.0951546
0.0949689
0.0945079
0.0934136
0.0907391
0.0831141
0.0535271
)
;

boundaryField
{
    leftWall
    {
        type            kqRWallFunction;
        value           nonuniform List<scalar> 
50
(
0.1
0.1
0.1
0.1
0.1
0.1
0.1
0.1
0.1
0.1
0.1
0.1
0.1
0.1
0.1
0.1
0.1
0.1
0.1
0.1
0.1
0.1
0.1
0.1
0.1
0.1
0.1
0.1
0.0511854
0.0503274
0.0508195
0.0509867
0.0510328
0.0510447
0.0510477
0.0510484
0.0510486
0.0510486
0.0510487
0.0510487
0.0510487
0.0510487
0.0510487
0.0510488
0.0510492
0.0510515
0.0510657
0.051183
0.052867
0.0856568
)
;
    }
    rightWall
    {
        type            kqRWallFunction;
        value           nonuniform List<scalar> 
50
(
0.0354147
0.0471739
0.0503216
0.0517936
0.0526069
0.0530588
0.0532999
0.0534193
0.0534983
0.0535212
0.0535269
0.0535285
0.0535289
0.053529
0.053529
0.053529
0.053529
0.053529
0.053529
0.053529
0.053529
0.053529
0.053529
0.053529
0.053529
0.053529
0.053529
0.053529
0.053529
0.053529
0.053529
0.053529
0.053529
0.053529
0.053529
0.053529
0.053529
0.053529
0.053529
0.053529
0.053529
0.053529
0.053529
0.053529
0.053529
0.053529
0.053529
0.053529
0.0535287
0.0535271
)
;
    }
    lowerWall
    {
        type            kqRWallFunction;
        value           nonuniform List<scalar> 
62
(
0.1
0.1
0.1
0.1
0.1
0.1
0.1
0.1
0.1
0.1
0.1
0.1
0.1
0.0321647
0.0334781
0.0342808
0.0344938
0.0345371
0.0345126
0.0343626
0.0337744
0.0317959
0.0269145
0.0269145
0.0439463
0.0476909
0.0493162
0.0502265
0.0509099
0.0521776
0.0578744
0.0582347
0.0529105
0.0528857
0.0580491
0.027378
0.046148
0.0501479
0.0517917
0.0526958
0.0533896
0.054707
0.0602972
0.027378
0.0321823
0.0339611
0.0344297
0.0345343
0.0345554
0.0345595
0.0345602
0.0345604
0.0345604
0.0345603
0.0345601
0.0345592
0.0345543
0.034531
0.0344226
0.0339544
0.0322987
0.0354147
)
;
    }
    atmosphere
    {
        type            inletOutlet;
        inletValue      uniform 0.1;
        value           nonuniform List<scalar> 
46
(
0.1
0.1
0.1
0.1
0.1
0.1
0.1
0.1
0.1
0.1
0.1
0.1
0.1
0.1
0.1
0.1
0.1
0.1
0.1
0.1
0.1
0.1
0.1
0.1
0.1
0.1
0.1
0.1
0.1
0.0955129
0.0953021
0.0952669
0.0952609
0.0952599
0.0952595
0.0952587
0.0952563
0.0952484
0.0952242
0.0951546
0.0949689
0.0945079
0.0934136
0.0907391
0.0831141
0.0535271
)
;
    }
    defaultFaces
    {
        type            empty;
    }
}


// ************************************************************************* //
