/*--------------------------------*- C++ -*----------------------------------*\
| =========                 |                                                 |
| \\      /  F ield         | OpenFOAM: The Open Source CFD Toolbox           |
|  \\    /   O peration     | Version:  2406                                  |
|   \\  /    A nd           | Website:  www.openfoam.com                      |
|    \\/     M anipulation  |                                                 |
\*---------------------------------------------------------------------------*/
FoamFile
{
    version     2.0;
    format      ascii;
    arch        "LSB;label=32;scalar=64";
    class       volScalarField;
    location    "0.05";
    object      k;
}
// * * * * * * * * * * * * * * * * * * * * * * * * * * * * * * * * * * * * * //

dimensions      [0 2 -2 0 0 0 0];

internalField   nonuniform List<scalar> 
2268
(
0.0341148
0.031906
0.0337295
0.0343079
0.0344643
0.0345044
0.0345144
0.0345168
0.0345174
0.0345176
0.0345176
0.0345176
0.0345176
0.0345176
0.0345175
0.034517
0.034515
0.0345061
0.0344685
0.0343161
0.0337372
0.0317829
0.026914
0.0447832
0.0605979
0.0655731
0.0671773
0.0676762
0.0678238
0.0678656
0.0678771
0.0678801
0.0678809
0.0678811
0.0678812
0.0678812
0.067881
0.0678805
0.0678782
0.0678689
0.0678325
0.0676962
0.0672134
0.065614
0.0605664
0.0439418
0.0478005
0.0708981
0.0770682
0.0791444
0.079868
0.0801112
0.0801889
0.0802125
0.0802194
0.0802214
0.0802219
0.080222
0.080222
0.0802217
0.0802204
0.0802153
0.0801968
0.0801314
0.0799124
0.0792238
0.0771693
0.0709477
0.0476765
0.0492751
0.0756941
0.0824569
0.0847764
0.0856433
0.085962
0.0860733
0.08611
0.0861216
0.0861251
0.0861261
0.0861263
0.0861263
0.0861257
0.0861235
0.0861155
0.086088
0.0859981
0.0857214
0.0849184
0.0826574
0.0758616
0.0492855
0.0500885
0.0782181
0.0853597
0.0878301
0.0887936
0.0891705
0.0893112
0.0893608
0.0893773
0.0893826
0.0893841
0.0893845
0.0893844
0.0893836
0.0893804
0.0893696
0.0893346
0.0892271
0.0889158
0.0880602
0.0857213
0.0786148
0.0501803
0.0505343
0.0796293
0.0870525
0.0896352
0.0906699
0.0910926
0.0912585
0.0913199
0.0913413
0.0913484
0.0913506
0.0913512
0.0913511
0.09135
0.091346
0.0913329
0.0912925
0.0911742
0.090848
0.0899859
0.0876693
0.0804979
0.0508544
0.0507728
0.0804386
0.0880836
0.09076
0.0918519
0.0923118
0.0924992
0.0925713
0.0925973
0.0926062
0.0926091
0.0926099
0.0926098
0.0926084
0.0926038
0.0925892
0.0925456
0.0924231
0.0920984
0.0912689
0.0890848
0.0822542
0.0521194
0.050897
0.0809032
0.088723
0.0914813
0.0926218
0.093113
0.0933187
0.0934002
0.0934305
0.0934411
0.0934446
0.0934456
0.0934455
0.093444
0.093439
0.0934236
0.0933791
0.093258
0.0929483
0.0921851
0.090253
0.0844459
0.0578163
0.0273775
0.0321702
0.0339239
0.0343837
0.0344893
0.0345118
0.0345164
0.0345173
0.0345175
0.0345175
0.0345175
0.0345173
0.0345161
0.0345107
0.0344862
0.0343767
0.0339154
0.032284
0.0354141
0.0461444
0.0615995
0.0661244
0.0674246
0.0677708
0.0678559
0.0678755
0.0678799
0.0678808
0.0678809
0.0678807
0.0678794
0.0678738
0.0678504
0.0677561
0.0673933
0.0660822
0.0616289
0.0471696
0.0501366
0.0722096
0.0778185
0.0795216
0.0800313
0.0801733
0.0802102
0.0802192
0.0802213
0.0802216
0.080221
0.0802179
0.0802058
0.0801604
0.0799982
0.0794529
0.0777176
0.072154
0.0503081
0.051766
0.0772273
0.0833695
0.0852636
0.0858708
0.0860556
0.0861079
0.0861218
0.0861252
0.0861256
0.0861244
0.0861191
0.0860997
0.0860322
0.0858124
0.0851418
0.0831752
0.0770482
0.0517644
0.0526552
0.0800366
0.0864589
0.0884272
0.0890834
0.0892958
0.08936
0.0893782
0.0893829
0.0893835
0.0893817
0.0893739
0.0893468
0.0892589
0.0889922
0.0882329
0.086119
0.0796273
0.0525624
0.0533395
0.0819378
0.0884029
0.0903557
0.0910235
0.0912498
0.0913219
0.0913433
0.0913491
0.0913498
0.0913472
0.0913369
0.0913026
0.0911965
0.0908914
0.090065
0.0878413
0.0810751
0.0530051
0.0546536
0.0836419
0.0897797
0.0916251
0.092273
0.0925014
0.0925773
0.0926008
0.0926074
0.0926082
0.0926048
0.092592
0.0925509
0.0924288
0.0920918
0.0912113
0.0888962
0.0819108
0.0532447
0.0602437
0.0856378
0.0908685
0.0925129
0.0931149
0.0933354
0.0934115
0.0934359
0.0934429
0.0934436
0.0934395
0.0934243
0.0933771
0.0932411
0.0928771
0.0919506
0.0895558
0.0823944
0.0533706
0.0509933
0.0813101
0.0893412
0.0922111
0.0934174
0.0939501
0.0941804
0.0942747
0.0943109
0.094324
0.0943285
0.0943298
0.0943297
0.0943281
0.0943229
0.0943073
0.0942643
0.0941529
0.0938825
0.0932593
0.091843
0.0884808
0.0798363
0.0510278
0.0814847
0.0896545
0.0926161
0.0938803
0.0944494
0.0947013
0.0948071
0.0948488
0.0948643
0.0948697
0.0948714
0.0948715
0.0948701
0.0948656
0.0948527
0.0948186
0.0947341
0.0945403
0.0941264
0.0932942
0.0916965
0.0888024
0.0510367
0.0815378
0.0897663
0.0927753
0.0940724
0.0946629
0.0949276
0.0950403
0.0950853
0.0951023
0.0951083
0.0951102
0.0951105
0.0951095
0.0951063
0.0950972
0.0950739
0.0950183
0.0948964
0.0946512
0.0942024
0.0934634
0.0924189
0.051039
0.0815534
0.0898041
0.0928343
0.0941477
0.0947492
0.0950205
0.0951369
0.0951837
0.0952015
0.0952078
0.0952099
0.0952103
0.0952098
0.0952077
0.0952021
0.0951882
0.0951559
0.0950876
0.0949565
0.0947319
0.094398
0.0939945
0.0510396
0.0815578
0.0898162
0.092855
0.0941754
0.0947819
0.0950564
0.0951744
0.0952221
0.0952403
0.0952468
0.095249
0.0952495
0.0952493
0.0952482
0.0952451
0.0952376
0.0952209
0.0951864
0.0951225
0.0950182
0.094873
0.0947132
0.0510397
0.0815591
0.08982
0.0928618
0.094185
0.0947936
0.0950694
0.0951882
0.0952363
0.0952546
0.0952612
0.0952634
0.0952641
0.0952641
0.0952635
0.095262
0.0952584
0.0952504
0.0952345
0.095206
0.0951611
0.0951012
0.095039
0.0510398
0.0815594
0.0898211
0.092864
0.0941882
0.0947975
0.0950738
0.095193
0.0952412
0.0952596
0.0952662
0.0952685
0.0952692
0.0952693
0.0952691
0.0952684
0.0952668
0.0952633
0.0952565
0.0952448
0.0952267
0.0952035
0.0951803
0.0510398
0.0815595
0.0898214
0.0928646
0.0941892
0.0947988
0.0950753
0.0951945
0.0952428
0.0952612
0.0952679
0.0952702
0.0952709
0.0952711
0.095271
0.0952708
0.0952701
0.0952687
0.095266
0.0952614
0.0952547
0.0952462
0.095238
0.0510398
0.0815595
0.0898215
0.0928648
0.0941895
0.0947992
0.0950758
0.095195
0.0952434
0.0952618
0.0952684
0.0952707
0.0952715
0.0952717
0.0952717
0.0952716
0.0952713
0.0952708
0.0952698
0.0952681
0.0952658
0.0952628
0.0952601
0.0510398
0.0815595
0.0898215
0.0928649
0.0941896
0.0947993
0.0950759
0.0951952
0.0952435
0.095262
0.0952686
0.0952709
0.0952716
0.0952719
0.0952719
0.0952719
0.0952718
0.0952716
0.0952713
0.0952707
0.0952699
0.095269
0.0952681
0.0510398
0.0815595
0.0898215
0.0928649
0.0941896
0.0947994
0.095076
0.0951952
0.0952436
0.095262
0.0952687
0.0952709
0.0952717
0.0952719
0.095272
0.095272
0.095272
0.0952719
0.0952718
0.0952716
0.0952714
0.0952711
0.0952709
0.0510398
0.0815595
0.0898215
0.0928649
0.0941896
0.0947994
0.095076
0.0951953
0.0952436
0.095262
0.0952687
0.095271
0.0952717
0.095272
0.095272
0.095272
0.095272
0.095272
0.095272
0.0952719
0.0952719
0.0952718
0.0952718
0.0510398
0.0815595
0.0898215
0.0928649
0.0941896
0.0947994
0.095076
0.0951953
0.0952436
0.095262
0.0952687
0.095271
0.0952717
0.095272
0.095272
0.0952721
0.0952721
0.0952721
0.095272
0.095272
0.095272
0.095272
0.0952721
0.0510398
0.0815595
0.0898215
0.0928649
0.0941896
0.0947994
0.095076
0.0951953
0.0952436
0.095262
0.0952687
0.095271
0.0952717
0.095272
0.095272
0.0952721
0.0952721
0.0952721
0.0952721
0.0952721
0.0952721
0.0952721
0.0952722
0.0510398
0.0815595
0.0898215
0.0928649
0.0941896
0.0947994
0.095076
0.0951953
0.0952436
0.095262
0.0952687
0.095271
0.0952717
0.095272
0.095272
0.0952721
0.0952721
0.0952721
0.0952721
0.0952721
0.0952721
0.0952721
0.0952722
0.0510398
0.0815595
0.0898215
0.0928649
0.0941896
0.0947994
0.095076
0.0951953
0.0952436
0.095262
0.0952687
0.095271
0.0952717
0.095272
0.095272
0.0952721
0.0952721
0.0952721
0.0952721
0.0952721
0.0952721
0.0952721
0.0952722
0.0510398
0.0815595
0.0898215
0.0928649
0.0941896
0.0947994
0.095076
0.0951953
0.0952436
0.095262
0.0952687
0.095271
0.0952717
0.095272
0.095272
0.0952721
0.0952721
0.0952721
0.0952721
0.0952721
0.0952721
0.0952721
0.0952722
0.0510398
0.0815595
0.0898215
0.0928649
0.0941896
0.0947994
0.095076
0.0951953
0.0952436
0.095262
0.0952687
0.095271
0.0952717
0.095272
0.095272
0.0952721
0.0952721
0.0952721
0.0952721
0.0952721
0.0952721
0.0952721
0.0952722
0.0510398
0.0815595
0.0898215
0.0928649
0.0941896
0.0947994
0.095076
0.0951953
0.0952436
0.095262
0.0952687
0.095271
0.0952717
0.095272
0.095272
0.0952721
0.0952721
0.0952721
0.0952721
0.0952721
0.0952721
0.0952721
0.0952722
0.0510398
0.0815595
0.0898215
0.0928649
0.0941896
0.0947994
0.095076
0.0951953
0.0952436
0.095262
0.0952687
0.095271
0.0952717
0.095272
0.095272
0.0952721
0.0952721
0.0952721
0.0952721
0.0952721
0.0952721
0.0952721
0.0952722
0.0510398
0.0815595
0.0898215
0.0928649
0.0941896
0.0947994
0.095076
0.0951953
0.0952436
0.095262
0.0952687
0.095271
0.0952717
0.095272
0.095272
0.0952721
0.0952721
0.0952721
0.0952721
0.0952721
0.0952721
0.0952721
0.0952722
0.0510398
0.0815595
0.0898215
0.0928649
0.0941896
0.0947994
0.095076
0.0951953
0.0952436
0.095262
0.0952687
0.095271
0.0952717
0.095272
0.095272
0.0952721
0.0952721
0.0952721
0.0952721
0.0952721
0.0952721
0.0952721
0.0952722
0.0510398
0.0815595
0.0898215
0.0928649
0.0941896
0.0947994
0.095076
0.0951953
0.0952436
0.095262
0.0952687
0.095271
0.0952717
0.095272
0.095272
0.0952721
0.0952721
0.0952721
0.0952721
0.0952721
0.0952721
0.0952721
0.0952722
0.0510398
0.0815595
0.0898215
0.0928649
0.0941896
0.0947994
0.095076
0.0951953
0.0952436
0.095262
0.0952687
0.095271
0.0952717
0.095272
0.095272
0.0952721
0.0952721
0.0952721
0.0952721
0.0952721
0.0952721
0.0952721
0.0952722
0.0510398
0.0815595
0.0898215
0.0928649
0.0941896
0.0947994
0.095076
0.0951953
0.0952436
0.095262
0.0952687
0.095271
0.0952717
0.095272
0.095272
0.0952721
0.0952721
0.0952721
0.0952721
0.0952721
0.0952721
0.0952721
0.0952722
0.0510398
0.0815595
0.0898215
0.0928649
0.0941896
0.0947994
0.095076
0.0951953
0.0952436
0.095262
0.0952687
0.095271
0.0952717
0.095272
0.095272
0.0952721
0.0952721
0.0952721
0.0952721
0.0952721
0.0952721
0.0952721
0.0952722
0.0510398
0.0815595
0.0898215
0.0928649
0.0941896
0.0947994
0.095076
0.0951953
0.0952436
0.095262
0.0952687
0.095271
0.0952717
0.095272
0.095272
0.0952721
0.0952721
0.0952721
0.0952721
0.0952721
0.0952721
0.0952721
0.0952722
0.0510398
0.0815595
0.0898215
0.0928649
0.0941896
0.0947994
0.095076
0.0951953
0.0952436
0.095262
0.0952687
0.095271
0.0952717
0.095272
0.095272
0.0952721
0.0952721
0.0952721
0.0952721
0.0952721
0.0952721
0.0952721
0.0952722
0.0510398
0.0815595
0.0898215
0.0928649
0.0941896
0.0947994
0.095076
0.0951953
0.0952436
0.095262
0.0952687
0.095271
0.0952717
0.095272
0.095272
0.0952721
0.0952721
0.0952721
0.0952721
0.0952721
0.0952721
0.0952721
0.0952722
0.0510398
0.0815595
0.0898215
0.0928649
0.0941896
0.0947994
0.095076
0.0951953
0.0952436
0.095262
0.0952687
0.095271
0.0952717
0.095272
0.095272
0.0952721
0.0952721
0.0952721
0.0952721
0.0952721
0.0952721
0.0952721
0.0952722
0.0510398
0.0815595
0.0898215
0.0928649
0.0941896
0.0947994
0.095076
0.0951953
0.0952436
0.095262
0.0952687
0.095271
0.0952717
0.095272
0.095272
0.0952721
0.0952721
0.0952721
0.0952721
0.0952721
0.0952721
0.0952721
0.0952722
0.0510398
0.0815595
0.0898215
0.0928649
0.0941896
0.0947994
0.095076
0.0951953
0.0952436
0.095262
0.0952687
0.095271
0.0952717
0.095272
0.095272
0.0952721
0.0952721
0.0952721
0.0952721
0.0952721
0.0952721
0.0952721
0.0952722
0.0510398
0.0815595
0.0898215
0.0928649
0.0941896
0.0947994
0.095076
0.0951953
0.0952436
0.095262
0.0952687
0.095271
0.0952717
0.095272
0.095272
0.0952721
0.0952721
0.0952721
0.0952721
0.0952721
0.0952721
0.0952721
0.0952722
0.0510398
0.0815595
0.0898215
0.0928649
0.0941896
0.0947994
0.095076
0.0951953
0.0952436
0.095262
0.0952687
0.095271
0.0952717
0.095272
0.095272
0.0952721
0.0952721
0.0952721
0.0952721
0.0952721
0.0952721
0.0952721
0.0952722
0.0510398
0.0815595
0.0898215
0.0928649
0.0941896
0.0947994
0.095076
0.0951953
0.0952436
0.095262
0.0952687
0.095271
0.0952717
0.095272
0.095272
0.0952721
0.0952721
0.0952721
0.0952721
0.0952721
0.0952721
0.0952721
0.0952722
0.0510398
0.0815595
0.0898215
0.0928649
0.0941896
0.0947994
0.095076
0.0951953
0.0952436
0.095262
0.0952687
0.095271
0.0952717
0.095272
0.095272
0.0952721
0.0952721
0.0952721
0.0952721
0.0952721
0.0952721
0.0952721
0.0952722
0.0510398
0.0815595
0.0898215
0.0928649
0.0941896
0.0947994
0.095076
0.0951953
0.0952436
0.095262
0.0952687
0.095271
0.0952717
0.095272
0.095272
0.0952721
0.0952721
0.0952721
0.0952721
0.0952721
0.0952721
0.0952721
0.0952722
0.0510398
0.0815595
0.0898215
0.0928649
0.0941896
0.0947994
0.095076
0.0951953
0.0952436
0.095262
0.0952687
0.095271
0.0952717
0.095272
0.095272
0.0952721
0.0952721
0.0952721
0.0952721
0.0952721
0.0952721
0.0952721
0.0952722
0.0510398
0.0815595
0.0898215
0.0928649
0.0941896
0.0947994
0.095076
0.0951953
0.0952436
0.095262
0.0952687
0.095271
0.0952717
0.095272
0.095272
0.0952721
0.0952721
0.0952721
0.0952721
0.0952721
0.0952721
0.0952721
0.0952722
0.0510398
0.0815595
0.0898215
0.0928649
0.0941896
0.0947994
0.095076
0.0951953
0.0952436
0.095262
0.0952687
0.095271
0.0952717
0.095272
0.095272
0.0952721
0.0952721
0.0952721
0.0952721
0.0952721
0.0952721
0.0952721
0.0952722
0.0510398
0.0815595
0.0898215
0.0928649
0.0941896
0.0947994
0.095076
0.0951953
0.0952436
0.095262
0.0952687
0.095271
0.0952717
0.095272
0.095272
0.0952721
0.0952721
0.0952721
0.0952721
0.0952721
0.0952721
0.0952721
0.0952722
0.0510398
0.0815595
0.0898215
0.0928649
0.0941896
0.0947994
0.095076
0.0951953
0.0952436
0.095262
0.0952687
0.095271
0.0952717
0.095272
0.095272
0.0952721
0.0952721
0.0952721
0.0952721
0.0952721
0.0952721
0.0952721
0.0952722
0.0581933
0.0528729
0.0528465
0.0580061
0.0854979
0.0842341
0.0842259
0.0854732
0.0916558
0.0913661
0.0913658
0.0916557
0.0937624
0.0936786
0.0936789
0.0937635
0.094632
0.0946037
0.0946039
0.0946326
0.0950095
0.0949994
0.0949995
0.0950097
0.0951698
0.0951663
0.0951663
0.0951699
0.0952345
0.0952333
0.0952333
0.0952345
0.0952591
0.0952587
0.0952588
0.0952591
0.0952679
0.0952679
0.0952679
0.0952679
0.0952709
0.095271
0.095271
0.095271
0.0952719
0.095272
0.095272
0.095272
0.0952722
0.0952723
0.0952723
0.0952723
0.0952723
0.0952724
0.0952724
0.0952724
0.0952723
0.0952724
0.0952724
0.0952724
0.0952723
0.0952724
0.0952725
0.0952724
0.0952723
0.0952724
0.0952725
0.0952724
0.0952724
0.0952724
0.0952725
0.0952724
0.0952724
0.0952724
0.0952725
0.0952724
0.0952724
0.0952724
0.0952725
0.0952724
0.0952724
0.0952724
0.0952725
0.0952724
0.0952724
0.0952724
0.0952725
0.0952724
0.0952724
0.0952724
0.0952725
0.0952724
0.0952724
0.0952724
0.0952725
0.0952724
0.0952724
0.0952724
0.0952725
0.0952724
0.0952724
0.0952724
0.0952725
0.0952724
0.0952724
0.0952724
0.0952725
0.0952724
0.0952724
0.0952724
0.0952725
0.0952724
0.0952724
0.0952724
0.0952725
0.0952724
0.0952724
0.0952724
0.0952725
0.0952724
0.0952724
0.0952724
0.0952725
0.0952724
0.0952724
0.0952724
0.0952725
0.0952724
0.0952724
0.0952724
0.0952725
0.0952724
0.0952724
0.0952724
0.0952725
0.0952724
0.0952724
0.0952724
0.0952725
0.0952724
0.0952723
0.0952724
0.0952725
0.0952724
0.0952723
0.0952724
0.0952725
0.0952724
0.0952723
0.0952724
0.0952725
0.0952724
0.0952723
0.0952724
0.0952724
0.0952724
0.0952723
0.0952724
0.0952724
0.0952724
0.0952723
0.0952724
0.0952724
0.0952723
0.0952723
0.0952724
0.0952724
0.0952723
0.0806022
0.0891543
0.0922906
0.0935267
0.094028
0.0942242
0.0942957
0.0943197
0.0943268
0.0943273
0.0943221
0.0943036
0.0942478
0.094093
0.0936929
0.0927045
0.0902007
0.0828224
0.0534689
0.0890152
0.0920042
0.0935536
0.0943035
0.0946448
0.0947883
0.0948436
0.094863
0.0948688
0.0948686
0.0948621
0.0948404
0.0947769
0.0946053
0.0941733
0.0931302
0.0905347
0.0830092
0.0535045
0.0924811
0.0935995
0.0943405
0.0947559
0.0949623
0.0950541
0.095091
0.0951043
0.0951083
0.0951073
0.0951
0.0950763
0.095008
0.0948264
0.0943757
0.0933009
0.0906566
0.0830669
0.0535138
0.0940149
0.0944573
0.0948004
0.0950125
0.0951246
0.0951767
0.0951984
0.0952065
0.0952086
0.095207
0.0951991
0.0951743
0.0951035
0.0949166
0.0944561
0.0933654
0.0906986
0.083084
0.0535162
0.0947204
0.0948982
0.0950498
0.0951498
0.0952051
0.0952317
0.0952431
0.0952474
0.0952482
0.0952461
0.0952379
0.0952125
0.0951406
0.0949512
0.0944861
0.0933884
0.0907124
0.083089
0.0535168
0.0950416
0.0951114
0.0951746
0.0952182
0.0952432
0.0952556
0.095261
0.095263
0.095263
0.0952606
0.0952522
0.0952266
0.0951541
0.0949636
0.0944967
0.0933961
0.0907167
0.0830904
0.0535169
0.0951813
0.0952074
0.0952322
0.0952498
0.0952602
0.0952655
0.0952679
0.0952687
0.0952683
0.0952657
0.0952573
0.0952315
0.0951588
0.0949679
0.0945002
0.0933986
0.090718
0.0830907
0.053517
0.0952383
0.0952476
0.0952567
0.0952634
0.0952674
0.0952696
0.0952705
0.0952707
0.0952701
0.0952675
0.0952589
0.0952331
0.0951603
0.0949693
0.0945013
0.0933994
0.0907184
0.0830908
0.053517
0.0952602
0.0952633
0.0952665
0.0952689
0.0952703
0.0952711
0.0952715
0.0952714
0.0952707
0.095268
0.0952595
0.0952337
0.0951608
0.0949697
0.0945017
0.0933996
0.0907185
0.0830909
0.053517
0.0952682
0.0952691
0.0952701
0.0952709
0.0952714
0.0952717
0.0952718
0.0952716
0.0952709
0.0952682
0.0952596
0.0952338
0.095161
0.0949698
0.0945018
0.0933997
0.0907185
0.0830909
0.053517
0.0952709
0.0952711
0.0952714
0.0952717
0.0952719
0.0952719
0.0952719
0.0952717
0.0952709
0.0952683
0.0952597
0.0952339
0.095161
0.0949699
0.0945018
0.0933997
0.0907185
0.0830909
0.053517
0.0952718
0.0952718
0.0952719
0.0952719
0.095272
0.095272
0.095272
0.0952717
0.0952709
0.0952683
0.0952597
0.0952339
0.095161
0.0949699
0.0945018
0.0933997
0.0907185
0.0830909
0.053517
0.0952721
0.095272
0.095272
0.095272
0.095272
0.095272
0.095272
0.0952718
0.095271
0.0952683
0.0952597
0.0952339
0.095161
0.0949699
0.0945018
0.0933997
0.0907185
0.0830909
0.053517
0.0952722
0.0952721
0.0952721
0.0952721
0.0952721
0.095272
0.095272
0.0952718
0.095271
0.0952683
0.0952597
0.0952339
0.095161
0.0949699
0.0945018
0.0933997
0.0907185
0.0830909
0.053517
0.0952722
0.0952721
0.0952721
0.0952721
0.0952721
0.095272
0.095272
0.0952718
0.095271
0.0952683
0.0952597
0.0952339
0.095161
0.0949699
0.0945018
0.0933997
0.0907185
0.0830909
0.053517
0.0952722
0.0952721
0.0952721
0.0952721
0.0952721
0.095272
0.095272
0.0952718
0.095271
0.0952683
0.0952597
0.0952339
0.095161
0.0949699
0.0945018
0.0933997
0.0907185
0.0830909
0.053517
0.0952722
0.0952721
0.0952721
0.0952721
0.0952721
0.095272
0.095272
0.0952718
0.095271
0.0952683
0.0952597
0.0952339
0.095161
0.0949699
0.0945018
0.0933997
0.0907185
0.0830909
0.053517
0.0952722
0.0952721
0.0952721
0.0952721
0.0952721
0.095272
0.095272
0.0952718
0.095271
0.0952683
0.0952597
0.0952339
0.095161
0.0949699
0.0945018
0.0933997
0.0907185
0.0830909
0.053517
0.0952722
0.0952721
0.0952721
0.0952721
0.0952721
0.095272
0.095272
0.0952718
0.095271
0.0952683
0.0952597
0.0952339
0.095161
0.0949699
0.0945018
0.0933997
0.0907185
0.0830909
0.053517
0.0952722
0.0952721
0.0952721
0.0952721
0.0952721
0.095272
0.095272
0.0952718
0.095271
0.0952683
0.0952597
0.0952339
0.095161
0.0949699
0.0945018
0.0933997
0.0907185
0.0830909
0.053517
0.0952722
0.0952721
0.0952721
0.0952721
0.0952721
0.095272
0.095272
0.0952718
0.095271
0.0952683
0.0952597
0.0952339
0.095161
0.0949699
0.0945018
0.0933997
0.0907185
0.0830909
0.053517
0.0952722
0.0952721
0.0952721
0.0952721
0.0952721
0.095272
0.095272
0.0952718
0.095271
0.0952683
0.0952597
0.0952339
0.095161
0.0949699
0.0945018
0.0933997
0.0907185
0.0830909
0.053517
0.0952722
0.0952721
0.0952721
0.0952721
0.0952721
0.095272
0.095272
0.0952718
0.095271
0.0952683
0.0952597
0.0952339
0.095161
0.0949699
0.0945018
0.0933997
0.0907185
0.0830909
0.053517
0.0952722
0.0952721
0.0952721
0.0952721
0.0952721
0.095272
0.095272
0.0952718
0.095271
0.0952683
0.0952597
0.0952339
0.095161
0.0949699
0.0945018
0.0933997
0.0907185
0.0830909
0.053517
0.0952722
0.0952721
0.0952721
0.0952721
0.0952721
0.095272
0.095272
0.0952718
0.095271
0.0952683
0.0952597
0.0952339
0.095161
0.0949699
0.0945018
0.0933997
0.0907185
0.0830909
0.053517
0.0952722
0.0952721
0.0952721
0.0952721
0.0952721
0.095272
0.095272
0.0952718
0.095271
0.0952683
0.0952597
0.0952339
0.095161
0.0949699
0.0945018
0.0933997
0.0907185
0.0830909
0.053517
0.0952722
0.0952721
0.0952721
0.0952721
0.0952721
0.095272
0.095272
0.0952718
0.095271
0.0952683
0.0952597
0.0952339
0.095161
0.0949699
0.0945018
0.0933997
0.0907185
0.0830909
0.053517
0.0952722
0.0952721
0.0952721
0.0952721
0.0952721
0.095272
0.095272
0.0952718
0.095271
0.0952683
0.0952597
0.0952339
0.095161
0.0949699
0.0945018
0.0933997
0.0907185
0.0830909
0.053517
0.0952722
0.0952721
0.0952721
0.0952721
0.0952721
0.095272
0.095272
0.0952718
0.095271
0.0952683
0.0952597
0.0952339
0.095161
0.0949699
0.0945018
0.0933997
0.0907185
0.0830909
0.053517
0.0952722
0.0952721
0.0952721
0.0952721
0.0952721
0.095272
0.095272
0.0952718
0.095271
0.0952683
0.0952597
0.0952339
0.095161
0.0949699
0.0945018
0.0933997
0.0907185
0.0830909
0.053517
0.0952722
0.0952721
0.0952721
0.0952721
0.0952721
0.095272
0.095272
0.0952718
0.095271
0.0952683
0.0952597
0.0952339
0.095161
0.0949699
0.0945018
0.0933997
0.0907185
0.0830909
0.053517
0.0952722
0.0952721
0.0952721
0.0952721
0.0952721
0.095272
0.095272
0.0952718
0.095271
0.0952683
0.0952597
0.0952339
0.095161
0.0949699
0.0945018
0.0933997
0.0907185
0.0830909
0.053517
0.0952722
0.0952721
0.0952721
0.0952721
0.0952721
0.095272
0.095272
0.0952718
0.095271
0.0952683
0.0952597
0.0952339
0.095161
0.0949699
0.0945018
0.0933997
0.0907185
0.0830909
0.053517
0.0952722
0.0952721
0.0952721
0.0952721
0.0952721
0.095272
0.095272
0.0952718
0.095271
0.0952683
0.0952597
0.0952339
0.095161
0.0949699
0.0945018
0.0933997
0.0907185
0.0830909
0.053517
0.0952722
0.0952721
0.0952721
0.0952721
0.0952721
0.095272
0.095272
0.0952718
0.095271
0.0952683
0.0952597
0.0952339
0.095161
0.0949699
0.0945018
0.0933997
0.0907185
0.0830909
0.053517
0.0952722
0.0952721
0.0952721
0.0952721
0.0952721
0.095272
0.095272
0.0952718
0.095271
0.0952683
0.0952597
0.0952339
0.095161
0.0949699
0.0945018
0.0933997
0.0907185
0.0830909
0.053517
0.0952722
0.0952721
0.0952721
0.0952721
0.0952721
0.095272
0.095272
0.0952718
0.095271
0.0952683
0.0952597
0.0952339
0.095161
0.0949699
0.0945018
0.0933997
0.0907185
0.0830909
0.053517
0.0952722
0.0952721
0.0952721
0.0952721
0.0952721
0.095272
0.095272
0.0952718
0.095271
0.0952683
0.0952597
0.0952339
0.095161
0.0949699
0.0945018
0.0933997
0.0907185
0.0830909
0.053517
0.0952722
0.0952721
0.0952721
0.0952721
0.0952721
0.095272
0.095272
0.0952718
0.095271
0.0952683
0.0952597
0.0952339
0.095161
0.0949699
0.0945018
0.0933997
0.0907185
0.0830909
0.053517
0.0952722
0.0952721
0.0952721
0.0952721
0.0952721
0.095272
0.095272
0.0952718
0.095271
0.0952683
0.0952597
0.0952339
0.095161
0.0949699
0.0945018
0.0933997
0.0907185
0.0830909
0.053517
0.0952722
0.0952721
0.0952721
0.0952721
0.0952721
0.095272
0.095272
0.0952718
0.095271
0.0952683
0.0952597
0.0952339
0.095161
0.0949699
0.0945018
0.0933997
0.0907185
0.0830909
0.053517
0.0952722
0.0952721
0.0952721
0.0952721
0.0952721
0.095272
0.095272
0.0952718
0.095271
0.0952683
0.0952597
0.0952339
0.095161
0.0949699
0.0945018
0.0933997
0.0907185
0.0830909
0.053517
)
;

boundaryField
{
    leftWall
    {
        type            kqRWallFunction;
        value           nonuniform List<scalar> 
50
(
0.0341148
0.0447832
0.0478005
0.0492751
0.0500885
0.0505343
0.0507728
0.050897
0.0509933
0.0510278
0.0510367
0.051039
0.0510396
0.0510397
0.0510398
0.0510398
0.0510398
0.0510398
0.0510398
0.0510398
0.0510398
0.0510398
0.0510398
0.0510398
0.0510398
0.0510398
0.0510398
0.0510398
0.0510398
0.0510398
0.0510398
0.0510398
0.0510398
0.0510398
0.0510398
0.0510398
0.0510398
0.0510398
0.0510398
0.0510398
0.0510398
0.0510398
0.0510398
0.0510398
0.0510398
0.0510398
0.0510398
0.0510398
0.0510398
0.0510398
)
;
    }
    rightWall
    {
        type            kqRWallFunction;
        value           nonuniform List<scalar> 
50
(
0.0354141
0.0471696
0.0503081
0.0517644
0.0525624
0.0530051
0.0532447
0.0533706
0.0534689
0.0535045
0.0535138
0.0535162
0.0535168
0.0535169
0.053517
0.053517
0.053517
0.053517
0.053517
0.053517
0.053517
0.053517
0.053517
0.053517
0.053517
0.053517
0.053517
0.053517
0.053517
0.053517
0.053517
0.053517
0.053517
0.053517
0.053517
0.053517
0.053517
0.053517
0.053517
0.053517
0.053517
0.053517
0.053517
0.053517
0.053517
0.053517
0.053517
0.053517
0.053517
0.053517
)
;
    }
    lowerWall
    {
        type            kqRWallFunction;
        value           nonuniform List<scalar> 
62
(
0.0341148
0.031906
0.0337295
0.0343079
0.0344643
0.0345044
0.0345144
0.0345168
0.0345174
0.0345176
0.0345176
0.0345176
0.0345176
0.0345176
0.0345175
0.034517
0.034515
0.0345061
0.0344685
0.0343161
0.0337372
0.0317829
0.026914
0.026914
0.0439418
0.0476765
0.0492855
0.0501803
0.0508544
0.0521194
0.0578163
0.0581933
0.0528729
0.0528465
0.0580061
0.0273775
0.0461444
0.0501366
0.051766
0.0526552
0.0533395
0.0546536
0.0602437
0.0273775
0.0321702
0.0339239
0.0343837
0.0344893
0.0345118
0.0345164
0.0345173
0.0345175
0.0345175
0.0345175
0.0345173
0.0345161
0.0345107
0.0344862
0.0343767
0.0339154
0.032284
0.0354141
)
;
    }
    atmosphere
    {
        type            inletOutlet;
        inletValue      uniform 0.1;
        value           nonuniform List<scalar> 
46
(
0.0510398
0.0815595
0.0898215
0.0928649
0.0941896
0.0947994
0.095076
0.0951953
0.0952436
0.095262
0.0952687
0.095271
0.0952717
0.095272
0.095272
0.0952721
0.0952721
0.0952721
0.0952721
0.0952721
0.0952721
0.0952721
0.0952722
0.0952723
0.0952724
0.0952724
0.0952723
0.0952722
0.0952721
0.0952721
0.0952721
0.0952721
0.095272
0.095272
0.0952718
0.095271
0.0952683
0.0952597
0.0952339
0.095161
0.0949699
0.0945018
0.0933997
0.0907185
0.0830909
0.053517
)
;
    }
    defaultFaces
    {
        type            empty;
    }
}


// ************************************************************************* //
