/*--------------------------------*- C++ -*----------------------------------*\
| =========                 |                                                 |
| \\      /  F ield         | OpenFOAM: The Open Source CFD Toolbox           |
|  \\    /   O peration     | Version:  2406                                  |
|   \\  /    A nd           | Website:  www.openfoam.com                      |
|    \\/     M anipulation  |                                                 |
\*---------------------------------------------------------------------------*/
FoamFile
{
    version     2.0;
    format      ascii;
    arch        "LSB;label=32;scalar=64";
    class       volScalarField;
    location    "0.05";
    object      nut;
}
// * * * * * * * * * * * * * * * * * * * * * * * * * * * * * * * * * * * * * //

dimensions      [0 2 -1 0 0 0 0];

internalField   nonuniform List<scalar> 
2268
(
0.000289337
0.000213038
0.000213038
0.000213038
0.000213038
0.000213038
0.000213038
0.000213038
0.000213038
0.000213038
0.000213038
0.000213038
0.000213038
0.000105744
0.000109106
0.000111416
0.0001121
0.000112251
0.000112167
0.000111681
0.000109962
0.00010481
9.26866e-05
0.000450785
0.000254306
0.000232321
0.000225511
0.000222385
0.000220635
0.000219545
0.000218827
0.000218345
0.000218026
0.00021783
0.000217737
0.000217737
0.000498938
0.000766492
0.000855699
0.000882393
0.000888489
0.000885299
0.00086712
0.000806709
0.000640236
0.000262673
0.000450785
0.000288167
0.000251962
0.000238672
0.000232268
0.000228639
0.000226376
0.000224886
0.000223885
0.000223224
0.000222819
0.000222627
0.000222627
0.000746892
0.00145645
0.00177777
0.00188897
0.00191696
0.00190355
0.00182962
0.00161136
0.00110774
0.000277742
0.000450785
0.000314823
0.000270613
0.00025196
0.00024245
0.000236938
0.000233469
0.000231177
0.000229636
0.000228617
0.000227993
0.000227696
0.000227697
0.000897441
0.00204341
0.00271136
0.00297895
0.00305313
0.00302112
0.00284579
0.00237671
0.00145266
0.000284652
0.000450785
0.000335499
0.000287639
0.000264954
0.00025271
0.000245414
0.000240758
0.000237661
0.00023557
0.000234185
0.000233337
0.000232933
0.000232933
0.000992126
0.00249921
0.00356005
0.00404303
0.00418954
0.00413384
0.00382177
0.0030472
0.0016993
0.000288752
0.000450785
0.000351572
0.000302834
0.000277374
0.000262867
0.000253959
0.000248177
0.000244295
0.00024166
0.000239909
0.000238834
0.000238322
0.000238322
0.00105376
0.00282938
0.00426095
0.00498521
0.00522389
0.00514747
0.00469137
0.00361518
0.00189076
0.000292043
0.000450785
0.000364209
0.000316233
0.000289058
0.000272781
0.000262476
0.000255663
0.000251037
0.000247875
0.000245764
0.000244466
0.000243846
0.000243846
0.00109533
0.00305342
0.00478775
0.00574247
0.00608255
0.00599852
0.00542698
0.00411468
0.00208589
0.000297928
0.000450785
0.000374291
0.00032798
0.000299935
0.000282354
0.000270888
0.000263159
0.000257845
0.000254184
0.000251728
0.000250212
0.000249488
0.000249488
0.0011243
0.00319333
0.00514331
0.00629142
0.00673224
0.00666173
0.00603371
0.00460746
0.00238078
0.000320185
9.38623e-05
0.000105792
0.000110495
0.000111898
0.000112247
0.000112324
0.00011234
0.000112343
0.000112343
0.000112343
0.000112343
0.000112342
0.000112338
0.00011232
0.000112234
0.000111871
0.000110467
0.000106025
0.000153093
0.000300663
0.000670501
0.000824971
0.000875185
0.000888486
0.000891522
0.000892154
0.000892278
0.000892302
0.000892305
0.000892298
0.000892262
0.000892095
0.000891327
0.000887945
0.000874076
0.000823666
0.000669511
0.000304935
0.000318087
0.00118703
0.00167404
0.0018619
0.00191818
0.00193226
0.00193539
0.00193604
0.00193616
0.00193618
0.00193614
0.00193594
0.00193505
0.00193117
0.00191525
0.00185603
0.00166704
0.0011839
0.000318855
0.000325693
0.00158227
0.00250525
0.00292094
0.00305922
0.00309663
0.00310545
0.00310736
0.00310774
0.00310779
0.00310766
0.00310704
0.00310431
0.00309303
0.00304964
0.00290153
0.00248069
0.00157079
0.000325657
0.000330113
0.00187254
0.00325244
0.00395462
0.00420818
0.00428127
0.00429941
0.0043035
0.00430435
0.00430446
0.00430415
0.00430269
0.00429656
0.00427227
0.00418397
0.00390405
0.00318467
0.00183761
0.00032957
0.000333736
0.00209995
0.00389541
0.00488709
0.00526736
0.00538273
0.00541269
0.00541971
0.00542122
0.0054214
0.0054208
0.00541803
0.00540677
0.0053639
0.00521578
0.00477573
0.00373786
0.00200967
0.000331868
0.000340371
0.00232602
0.00445651
0.0056781
0.00616649
0.00632132
0.00636332
0.00637356
0.00637583
0.00637608
0.00637507
0.00637051
0.00635257
0.00628685
0.00607037
0.00546381
0.00413406
0.0021138
0.000333171
0.000364167
0.00264901
0.00498595
0.00632139
0.00687371
0.00705673
0.0071087
0.00712195
0.00712499
0.00712529
0.00712375
0.00711696
0.00709106
0.00699988
0.00671337
0.00595374
0.00439019
0.00217206
0.000333864
0.000450785
0.000387196
0.000344346
0.000315957
0.000296961
0.000284003
0.000275005
0.000268695
0.000264292
0.000261313
0.000259466
0.000258581
0.000258581
0.00115691
0.00331261
0.00547323
0.00685944
0.0074543
0.00744423
0.00684304
0.00551829
0.00355652
0.00157089
0.000450785
0.000399214
0.000361272
0.000333995
0.000314485
0.000300481
0.000290381
0.000283103
0.000277925
0.000274376
0.000272156
0.000271087
0.000271087
0.00119228
0.0033876
0.00565333
0.00718906
0.00791861
0.00803787
0.00764439
0.0067044
0.00526007
0.00362304
0.000450785
0.000408011
0.000374624
0.000349179
0.000330024
0.000315686
0.000305
0.000297103
0.000291379
0.000287405
0.000284896
0.000283682
0.000283682
0.00122559
0.00343866
0.00573793
0.00733134
0.00813572
0.00837095
0.008202
0.0076689
0.00680429
0.00578213
0.000450785
0.000414733
0.000385378
0.000362023
0.00034373
0.000329562
0.000318702
0.000310496
0.000304446
0.000300191
0.000297483
0.000296166
0.000296166
0.0012575
0.00348068
0.00578646
0.00739596
0.00823518
0.00854555
0.00853625
0.00829901
0.0078788
0.0073796
0.000450785
0.000420037
0.000394198
0.000372957
0.000355796
0.000342131
0.000331406
0.000323143
0.000316958
0.000312558
0.000309736
0.000308357
0.000308357
0.00128794
0.00351836
0.00582139
0.00743009
0.00828115
0.00862947
0.00870737
0.00863491
0.00846646
0.0082611
0.000450785
0.000424323
0.000401535
0.000382321
0.000366411
0.000353451
0.000343078
0.000334952
0.000328788
0.000324358
0.000321496
0.000320092
0.000320092
0.00131669
0.00355303
0.00585042
0.00745211
0.00830359
0.00866668
0.00878329
0.00878511
0.00872917
0.00864828
0.000450785
0.000427845
0.000407704
0.000390376
0.00037574
0.000363597
0.000353715
0.000345865
0.000339842
0.000335474
0.000332634
0.000331236
0.000331236
0.00134355
0.00358497
0.00587607
0.00746891
0.00831601
0.00868256
0.00881332
0.00884339
0.00882942
0.00879169
0.000450785
0.000430774
0.000412927
0.000397321
0.000383926
0.000372644
0.000363336
0.000355853
0.000350055
0.000345818
0.000343047
0.000341679
0.000341679
0.00136836
0.00361421
0.00589913
0.007483
0.00832422
0.0086897
0.0088244
0.00886372
0.00886339
0.00883862
0.000450785
0.000433227
0.000417365
0.000403311
0.000391089
0.000380666
0.000371968
0.000364905
0.000359386
0.000355327
0.00035266
0.000351339
0.000351339
0.00139101
0.00364072
0.00591985
0.00749529
0.00833051
0.00869347
0.0088285
0.00887033
0.00887394
0.00885268
0.000450785
0.000435288
0.000421141
0.000408469
0.00039733
0.000387731
0.000379645
0.000373025
0.000367815
0.000363961
0.000361419
0.000360157
0.000360157
0.00141145
0.00366451
0.00593833
0.00750612
0.00833575
0.00869596
0.00883022
0.00887245
0.00887705
0.00885665
0.000450785
0.000437022
0.000424347
0.000412891
0.000402732
0.000393904
0.000386408
0.000380228
0.000375335
0.000371699
0.000369293
0.000368095
0.000368096
0.00142966
0.00368559
0.00595466
0.00751564
0.00834025
0.00869787
0.00883114
0.00887319
0.00887796
0.00885774
0.000450785
0.000438473
0.000427054
0.000416657
0.000407369
0.000399241
0.000392295
0.000386535
0.000381953
0.000378535
0.000376265
0.000375134
0.000375134
0.00144566
0.00370405
0.00596894
0.00752395
0.00834416
0.00869946
0.00883177
0.00887352
0.00887824
0.00885804
0.000450785
0.000439681
0.000429319
0.000419829
0.000411301
0.000403795
0.000397346
0.000391973
0.000387682
0.00038447
0.000382332
0.000381265
0.000381266
0.0014595
0.00372
0.00598132
0.00753122
0.00834761
0.00870086
0.0088323
0.00887373
0.00887835
0.00885812
0.000450785
0.000440671
0.000431189
0.000422461
0.00041458
0.000407611
0.000401598
0.00039657
0.00039254
0.000389515
0.000387499
0.000386491
0.000386492
0.00147124
0.00373367
0.00599227
0.00753789
0.00835088
0.00870222
0.0088328
0.00887391
0.00887842
0.00885816
0.000450785
0.000441467
0.000432697
0.000424593
0.000417248
0.000410729
0.000405086
0.000400351
0.000396547
0.000393686
0.000391776
0.000390821
0.000390821
0.00148105
0.0037459
0.00600328
0.00754534
0.00835481
0.00870393
0.00883345
0.00887413
0.00887849
0.00885819
0.000450785
0.000442084
0.000433872
0.000426261
0.000419341
0.000413183
0.000407838
0.000403343
0.000399724
0.000396998
0.000395176
0.000394264
0.000394264
0.00148954
0.00375995
0.00601959
0.00755785
0.00836173
0.00870698
0.0088346
0.00887453
0.00887862
0.00885822
0.000450785
0.000442537
0.000434735
0.000427489
0.000420887
0.000415
0.00040988
0.000405567
0.000402089
0.000399467
0.000397712
0.000396833
0.000396834
0.00150002
0.00378914
0.00605827
0.00758729
0.00837743
0.00871363
0.00883702
0.00887532
0.00887886
0.00885829
0.000450785
0.000442834
0.000435303
0.000428297
0.000421906
0.000416199
0.00041123
0.000407039
0.000403657
0.000401105
0.000399396
0.00039854
0.00039854
0.00153208
0.0038852
0.00616836
0.00766107
0.00841326
0.00872778
0.00884189
0.00887684
0.00887931
0.00885841
0.000450785
0.000442981
0.000435584
0.000428699
0.000422413
0.000416796
0.000411902
0.000407773
0.000404439
0.000401922
0.000400236
0.000399391
0.000399391
0.00171051
0.0042318
0.0064621
0.00782442
0.00848385
0.00875361
0.00885032
0.00887938
0.00888002
0.0088586
0.000450785
0.000442981
0.000435584
0.000428699
0.000422413
0.000416796
0.000411902
0.000407773
0.000404439
0.000401922
0.000400236
0.000399391
0.00122463
0.00312178
0.00533599
0.00707493
0.0081008
0.00859068
0.00879031
0.00886184
0.00888276
0.00888096
0.00885884
0.000293621
0.00106162
0.00139546
0.00150877
0.00153824
0.00153936
0.00153257
0.00152479
0.00151867
0.00151819
0.00154338
0.00171972
0.00312885
0.00491671
0.00656272
0.007729
0.00838926
0.00870072
0.0088279
0.00887365
0.00888623
0.00888193
0.0088591
0.000289216
0.00164732
0.0028059
0.00342685
0.00368953
0.00378002
0.00380302
0.00380472
0.00380508
0.00382302
0.00391217
0.00425584
0.0053522
0.00656972
0.00757819
0.0082476
0.00861503
0.00878707
0.00885774
0.00888317
0.00888908
0.00888274
0.00885931
0.000291588
0.00188439
0.00369168
0.00496045
0.00562861
0.00591349
0.0060152
0.0060468
0.00606166
0.00609443
0.00619948
0.0064887
0.0070927
0.00773799
0.0082505
0.00858022
0.00875875
0.00884249
0.00887721
0.00888952
0.00889103
0.00888331
0.00885946
0.000292492
0.00196477
0.00408837
0.0057973
0.00681396
0.00729574
0.00748704
0.00755434
0.00758169
0.00761228
0.00768383
0.00784342
0.00811365
0.00839619
0.00861789
0.00875953
0.0088364
0.00887284
0.0088881
0.00889316
0.00889217
0.00888365
0.00885956
0.000292765
0.00198957
0.00423613
0.00615899
0.00737584
0.00798496
0.00823915
0.00833231
0.00836665
0.0083891
0.00842538
0.00849416
0.00859783
0.00870479
0.00878898
0.00884323
0.00887308
0.00888747
0.00889348
0.008895
0.00889277
0.00888383
0.00885961
0.000292841
0.00199664
0.00428457
0.00629183
0.00759786
0.00826885
0.00855551
0.00866239
0.00869988
0.00871651
0.00873288
0.00875842
0.00879389
0.00883017
0.00885905
0.00887797
0.0088886
0.0088938
0.00889587
0.00889585
0.00889305
0.00888392
0.00885964
0.000292861
0.00199853
0.00429901
0.00633512
0.00767463
0.00837047
0.00867081
0.00878362
0.00882239
0.00883629
0.00884427
0.00885322
0.00886445
0.00887581
0.00888496
0.00889108
0.00889459
0.00889631
0.00889685
0.00889621
0.00889318
0.00888396
0.00885965
0.000292866
0.00199902
0.00430301
0.00634802
0.00769867
0.00840325
0.00870863
0.00882368
0.00886293
0.00887582
0.00888082
0.00888422
0.00888769
0.00889106
0.00889379
0.00889566
0.00889674
0.00889724
0.00889722
0.00889635
0.00889323
0.00888398
0.00885966
0.000292867
0.00199914
0.00430406
0.00635162
0.00770566
0.00841305
0.0087201
0.00883592
0.00887533
0.0088879
0.00889196
0.00889367
0.00889484
0.00889583
0.00889662
0.00889715
0.00889746
0.00889756
0.00889735
0.0088964
0.00889325
0.00888399
0.00885966
0.000292868
0.00199917
0.00430433
0.00635257
0.00770758
0.0084158
0.00872337
0.00883944
0.00887892
0.00889138
0.00889517
0.0088964
0.00889692
0.00889724
0.00889747
0.00889762
0.0088977
0.00889767
0.0088974
0.00889642
0.00889325
0.00888399
0.00885966
0.000292868
0.00199917
0.0043044
0.00635282
0.00770809
0.00841655
0.00872427
0.00884041
0.00887991
0.00889235
0.00889606
0.00889716
0.00889751
0.00889765
0.00889772
0.00889776
0.00889777
0.0088977
0.00889742
0.00889642
0.00889326
0.00888399
0.00885966
0.000292868
0.00199918
0.00430441
0.00635288
0.00770822
0.00841675
0.00872452
0.00884068
0.00888018
0.00889261
0.00889631
0.00889737
0.00889768
0.00889777
0.0088978
0.00889781
0.0088978
0.00889772
0.00889743
0.00889643
0.00889326
0.008884
0.00885966
0.000292868
0.00199918
0.00430442
0.00635291
0.00770828
0.00841683
0.00872461
0.00884078
0.00888028
0.00889271
0.00889641
0.00889746
0.00889775
0.00889783
0.00889785
0.00889785
0.00889783
0.00889775
0.00889745
0.00889645
0.00889328
0.00888401
0.00885967
0.000292868
0.00199918
0.00430444
0.00635297
0.00770837
0.00841694
0.00872474
0.00884091
0.00888041
0.00889284
0.00889653
0.00889758
0.00889787
0.00889794
0.00889795
0.00889794
0.00889791
0.00889782
0.00889752
0.00889651
0.00889333
0.00888405
0.0088597
0.000292868
0.00199919
0.00430452
0.00635317
0.00770867
0.00841728
0.00872508
0.00884126
0.00888076
0.00889318
0.00889687
0.00889791
0.00889819
0.00889826
0.00889825
0.00889823
0.00889818
0.00889807
0.00889774
0.0088967
0.00889349
0.00888418
0.00885981
0.000292869
0.00199924
0.00430485
0.00635393
0.00770969
0.00841836
0.00872613
0.00884227
0.00888175
0.00889417
0.00889784
0.00889888
0.00889914
0.00889918
0.00889914
0.00889908
0.00889898
0.00889881
0.00889842
0.00889732
0.00889403
0.00888463
0.00886016
0.000292872
0.00199948
0.00430627
0.00635683
0.00771314
0.00842165
0.00872913
0.00884507
0.00888446
0.00889682
0.00890048
0.00890148
0.00890171
0.0089017
0.00890159
0.00890144
0.00890124
0.00890095
0.00890042
0.00889914
0.00889565
0.00888602
0.0088613
0.000292888
0.00200072
0.00431256
0.00636776
0.0077245
0.00843124
0.00873712
0.00885219
0.00889119
0.0089034
0.00890699
0.00890794
0.00890811
0.008908
0.00890779
0.00890748
0.00890709
0.00890657
0.00890577
0.00890415
0.00890023
0.00889008
0.0088648
0.000292988
0.00200773
0.00434038
0.00640787
0.00776011
0.00845735
0.00875655
0.00886838
0.00890608
0.00891782
0.00892123
0.0089221
0.00892217
0.00892197
0.00892163
0.00892115
0.00892053
0.00891972
0.00891853
0.00891638
0.00891178
0.00890079
0.00887464
0.00029374
0.00204957
0.00446088
0.00654706
0.00786354
0.00852179
0.00879814
0.0088999
0.00893385
0.00894433
0.00894734
0.00894806
0.00894807
0.00894786
0.00894755
0.00894705
0.00894635
0.00894549
0.00894408
0.00894155
0.00893652
0.008925
0.00889881
0.000302869
0.00229944
0.00495341
0.00698223
0.00812715
0.00865851
0.00887181
0.00894832
0.00897344
0.00898111
0.00898328
0.00898379
0.00898382
0.0089838
0.00898384
0.00898366
0.00898336
0.0089831
0.00898217
0.00898022
0.0089764
0.00896684
0.00894549
0.000420048
0.00366923
0.00674217
0.00809863
0.00865889
0.00888354
0.00896772
0.00899691
0.00900632
0.00900917
0.00900997
0.00901016
0.00901023
0.00901038
0.0090107
0.00901085
0.00901108
0.00901159
0.00901156
0.00901128
0.00901087
0.00900757
0.00900037
0.000323533
0.000303174
0.000303067
0.000322841
0.00251828
0.00231608
0.00231573
0.00251472
0.00517526
0.00499725
0.00500147
0.00518946
0.00711904
0.00703749
0.00704058
0.00713051
0.00815721
0.00812233
0.00812208
0.00815667
0.0085955
0.00857306
0.00857113
0.00858777
0.00875143
0.00873072
0.00872841
0.00874135
0.00880059
0.00877969
0.00877739
0.00879006
0.00881485
0.00879374
0.00879147
0.00880432
0.00881878
0.00879757
0.00879533
0.00880827
0.00881983
0.00879859
0.00879635
0.00880934
0.00882011
0.00879886
0.00879662
0.00880962
0.00882019
0.00879893
0.00879669
0.00880969
0.00882021
0.00879895
0.00879671
0.00880971
0.00882022
0.00879896
0.00879672
0.00880972
0.00882024
0.00879897
0.00879673
0.00880972
0.00882027
0.00879898
0.00879673
0.00880972
0.00882031
0.00879901
0.00879674
0.00880973
0.00882039
0.00879904
0.00879676
0.00880974
0.00882048
0.00879908
0.00879678
0.00880975
0.00882057
0.00879913
0.00879681
0.00880976
0.00882066
0.00879917
0.00879682
0.00880977
0.00882072
0.0087992
0.00879684
0.00880978
0.00882076
0.00879922
0.00879685
0.00880978
0.00882078
0.00879923
0.00879685
0.00880979
0.00882079
0.00879923
0.00879686
0.00880979
0.00882079
0.00879924
0.00879686
0.00880979
0.0088208
0.00879924
0.00879686
0.00880979
0.0088208
0.00879924
0.00879686
0.00880979
0.0088208
0.00879924
0.00879686
0.00880979
0.0088208
0.00879924
0.00879686
0.00880979
0.0088208
0.00879924
0.00879686
0.00880979
0.00882081
0.00879925
0.00879687
0.00880979
0.00882083
0.00879927
0.00879688
0.00880981
0.00882091
0.00879933
0.00879694
0.00880985
0.0088212
0.00879957
0.00879713
0.00881001
0.00882216
0.0088004
0.00879782
0.00881056
0.00882529
0.00880317
0.00880017
0.00881248
0.00883475
0.00881196
0.00880785
0.00881888
0.00886032
0.00883729
0.008831
0.00883877
0.00891581
0.00889732
0.00888945
0.00889127
0.0089908
0.0089881
0.008984
0.00898149
0.00166006
0.00382779
0.00588473
0.00714898
0.00771696
0.00792143
0.0079843
0.00800153
0.00800572
0.00800604
0.00800336
0.00799211
0.00795108
0.00781492
0.00741716
0.00644782
0.00462086
0.00221908
0.000334382
0.0037128
0.00549155
0.00698614
0.00789727
0.00832383
0.00848687
0.00854042
0.00855607
0.00856005
0.00856008
0.00855619
0.00854063
0.00848578
0.00831115
0.00782571
0.00670825
0.00472249
0.0022354
0.000334552
0.00584673
0.00695267
0.00784438
0.00838102
0.00863666
0.00873797
0.00877278
0.00878345
0.00878619
0.00878577
0.00878119
0.00876339
0.00870166
0.00850856
0.00798302
0.00680223
0.00475492
0.00223964
0.000334597
0.00740821
0.00795118
0.00839307
0.00865972
0.00878888
0.00884161
0.00886043
0.00886641
0.00886788
0.00886708
0.00886214
0.00884338
0.00877878
0.00857824
0.00803716
0.00683308
0.00476477
0.0022408
0.000334609
0.00826688
0.0084965
0.00868577
0.00880137
0.00885852
0.00888255
0.00889142
0.00889431
0.0088949
0.00889384
0.00888873
0.0088696
0.00880395
0.00860077
0.00805433
0.00684253
0.00476762
0.00224112
0.000334612
0.00864646
0.00874396
0.00881947
0.0088653
0.00888828
0.00889819
0.00890197
0.0089032
0.00890329
0.00890208
0.00889689
0.00887763
0.00881163
0.00860758
0.00805944
0.00684527
0.00476842
0.0022412
0.000334613
0.00878922
0.00884108
0.00887326
0.00889128
0.00890014
0.00890399
0.00890548
0.00890594
0.00890578
0.0089045
0.00889928
0.00887997
0.00881386
0.00860954
0.0080609
0.00684604
0.00476864
0.00224122
0.000334613
0.00883695
0.00887517
0.0088928
0.00890095
0.00890456
0.00890606
0.00890663
0.00890676
0.0089065
0.00890518
0.00889995
0.00888063
0.00881448
0.00861009
0.0080613
0.00684624
0.0047687
0.00224123
0.000334613
0.00885158
0.00888616
0.00889935
0.00890429
0.00890611
0.00890678
0.008907
0.00890701
0.00890671
0.00890537
0.00890013
0.0088808
0.00881465
0.00861024
0.0080614
0.0068463
0.00476871
0.00224123
0.000334613
0.0088558
0.00888948
0.00890141
0.00890537
0.00890663
0.00890702
0.00890712
0.00890708
0.00890676
0.00890542
0.00890018
0.00888085
0.0088147
0.00861027
0.00806143
0.00684631
0.00476872
0.00224123
0.000334613
0.00885696
0.00889043
0.00890202
0.00890571
0.00890679
0.00890709
0.00890716
0.0089071
0.00890678
0.00890544
0.0089002
0.00888087
0.00881471
0.00861028
0.00806144
0.00684631
0.00476872
0.00224123
0.000334613
0.00885727
0.00889069
0.0089022
0.00890581
0.00890684
0.00890712
0.00890717
0.00890711
0.00890678
0.00890544
0.0089002
0.00888087
0.00881471
0.00861029
0.00806144
0.00684632
0.00476872
0.00224123
0.000334613
0.00885735
0.00889076
0.00890225
0.00890584
0.00890686
0.00890713
0.00890718
0.00890711
0.00890679
0.00890544
0.0089002
0.00888087
0.00881471
0.00861029
0.00806144
0.00684632
0.00476872
0.00224123
0.000334613
0.00885737
0.00889078
0.00890226
0.00890585
0.00890686
0.00890713
0.00890718
0.00890711
0.00890679
0.00890544
0.0089002
0.00888087
0.00881471
0.00861029
0.00806144
0.00684632
0.00476872
0.00224123
0.000334613
0.00885738
0.00889079
0.00890226
0.00890585
0.00890686
0.00890713
0.00890718
0.00890711
0.00890679
0.00890544
0.0089002
0.00888087
0.00881471
0.00861029
0.00806144
0.00684632
0.00476872
0.00224123
0.000334613
0.00885738
0.00889079
0.00890227
0.00890585
0.00890687
0.00890713
0.00890718
0.00890711
0.00890679
0.00890544
0.0089002
0.00888087
0.00881471
0.00861029
0.00806144
0.00684632
0.00476872
0.00224123
0.000334613
0.00885738
0.00889079
0.00890227
0.00890585
0.00890687
0.00890713
0.00890718
0.00890711
0.00890679
0.00890544
0.0089002
0.00888087
0.00881471
0.00861029
0.00806144
0.00684632
0.00476872
0.00224123
0.000334613
0.00885738
0.00889079
0.00890227
0.00890585
0.00890687
0.00890713
0.00890718
0.00890711
0.00890679
0.00890544
0.0089002
0.00888087
0.00881471
0.00861029
0.00806144
0.00684632
0.00476872
0.00224123
0.000334613
0.00885738
0.00889079
0.00890227
0.00890585
0.00890687
0.00890713
0.00890718
0.00890711
0.00890679
0.00890544
0.0089002
0.00888087
0.00881471
0.00861029
0.00806144
0.00684632
0.00476872
0.00224123
0.000334613
0.00885739
0.00889079
0.00890227
0.00890585
0.00890687
0.00890713
0.00890718
0.00890711
0.00890679
0.00890544
0.0089002
0.00888087
0.00881471
0.00861029
0.00806144
0.00684632
0.00476872
0.00224123
0.000334613
0.00885739
0.00889079
0.00890227
0.00890585
0.00890687
0.00890713
0.00890718
0.00890711
0.00890679
0.00890544
0.0089002
0.00888087
0.00881471
0.00861029
0.00806144
0.00684632
0.00476872
0.00224123
0.000334613
0.00885739
0.00889079
0.00890227
0.00890585
0.00890687
0.00890713
0.00890718
0.00890711
0.00890679
0.00890544
0.0089002
0.00888087
0.00881471
0.00861029
0.00806144
0.00684632
0.00476872
0.00224123
0.000334613
0.0088574
0.00889079
0.00890227
0.00890585
0.00890687
0.00890713
0.00890718
0.00890711
0.00890679
0.00890544
0.0089002
0.00888087
0.00881471
0.00861029
0.00806144
0.00684632
0.00476872
0.00224123
0.000334613
0.0088574
0.00889079
0.00890227
0.00890585
0.00890687
0.00890713
0.00890718
0.00890711
0.00890679
0.00890544
0.0089002
0.00888087
0.00881471
0.00861029
0.00806144
0.00684632
0.00476872
0.00224123
0.000334613
0.0088574
0.00889079
0.00890227
0.00890585
0.00890687
0.00890713
0.00890718
0.00890711
0.00890679
0.00890544
0.0089002
0.00888087
0.00881471
0.00861029
0.00806144
0.00684632
0.00476872
0.00224123
0.000334613
0.0088574
0.00889079
0.00890227
0.00890585
0.00890687
0.00890713
0.00890718
0.00890711
0.00890679
0.00890544
0.0089002
0.00888087
0.00881471
0.00861029
0.00806144
0.00684632
0.00476872
0.00224123
0.000334613
0.0088574
0.00889079
0.00890227
0.00890585
0.00890687
0.00890713
0.00890718
0.00890711
0.00890679
0.00890544
0.0089002
0.00888087
0.00881471
0.00861029
0.00806144
0.00684632
0.00476872
0.00224123
0.000334613
0.0088574
0.00889079
0.00890227
0.00890585
0.00890687
0.00890713
0.00890718
0.00890711
0.00890679
0.00890544
0.0089002
0.00888087
0.00881471
0.00861029
0.00806144
0.00684632
0.00476872
0.00224123
0.000334613
0.0088574
0.00889079
0.00890227
0.00890585
0.00890687
0.00890713
0.00890718
0.00890711
0.00890679
0.00890544
0.0089002
0.00888087
0.00881471
0.00861029
0.00806144
0.00684632
0.00476872
0.00224123
0.000334613
0.0088574
0.00889079
0.00890227
0.00890585
0.00890687
0.00890713
0.00890718
0.00890711
0.00890679
0.00890544
0.0089002
0.00888087
0.00881471
0.00861029
0.00806144
0.00684632
0.00476872
0.00224123
0.000334613
0.0088574
0.00889079
0.00890227
0.00890585
0.00890687
0.00890713
0.00890718
0.00890711
0.00890679
0.00890544
0.0089002
0.00888087
0.00881471
0.00861029
0.00806144
0.00684632
0.00476872
0.00224123
0.000334613
0.0088574
0.00889079
0.00890227
0.00890585
0.00890687
0.00890713
0.00890718
0.00890711
0.00890679
0.00890544
0.0089002
0.00888087
0.00881471
0.00861029
0.00806144
0.00684632
0.00476872
0.00224123
0.000334613
0.0088574
0.00889079
0.00890227
0.00890585
0.00890687
0.00890713
0.00890718
0.00890711
0.00890679
0.00890544
0.0089002
0.00888087
0.00881471
0.00861029
0.00806144
0.00684632
0.00476872
0.00224123
0.000334613
0.00885741
0.0088908
0.00890227
0.00890585
0.00890687
0.00890713
0.00890718
0.00890711
0.00890679
0.00890544
0.0089002
0.00888087
0.00881471
0.00861029
0.00806144
0.00684632
0.00476872
0.00224123
0.000334613
0.00885744
0.00889081
0.00890228
0.00890585
0.00890687
0.00890713
0.00890718
0.00890712
0.00890679
0.00890544
0.0089002
0.00888087
0.00881471
0.00861029
0.00806144
0.00684632
0.00476872
0.00224123
0.000334613
0.00885754
0.00889087
0.0089023
0.00890587
0.00890688
0.00890714
0.00890719
0.00890712
0.00890679
0.00890545
0.00890021
0.00888088
0.00881472
0.00861029
0.00806144
0.00684632
0.00476872
0.00224123
0.000334613
0.0088579
0.00889106
0.0089024
0.00890592
0.00890691
0.00890716
0.00890721
0.00890714
0.00890682
0.00890547
0.00890023
0.0088809
0.00881474
0.00861031
0.00806145
0.00684632
0.00476872
0.00224123
0.000334613
0.00885912
0.00889172
0.00890274
0.00890608
0.00890701
0.00890725
0.00890729
0.00890722
0.0089069
0.00890555
0.00890031
0.00888097
0.00881481
0.00861036
0.00806148
0.00684632
0.00476871
0.00224123
0.000334613
0.0088632
0.00889403
0.0089039
0.00890662
0.00890734
0.00890752
0.00890755
0.00890748
0.00890715
0.0089058
0.00890056
0.00888122
0.00881503
0.00861054
0.00806158
0.00684633
0.00476869
0.00224123
0.000334613
0.00887594
0.00890169
0.00890764
0.0089082
0.00890829
0.00890832
0.00890831
0.00890824
0.0089079
0.00890656
0.00890131
0.00888195
0.00881571
0.00861109
0.00806188
0.00684634
0.00476857
0.00224119
0.000334613
0.0089105
0.0089246
0.00891794
0.00891213
0.0089107
0.00891042
0.00891036
0.00891028
0.00890994
0.00890859
0.00890333
0.00888393
0.00881757
0.00861261
0.00806271
0.00684625
0.00476806
0.00224098
0.000334611
0.00897825
0.00897327
0.00893013
0.00891817
0.00891568
0.00891523
0.00891513
0.00891504
0.00891471
0.00891335
0.00890807
0.00888859
0.00882196
0.00861624
0.00806466
0.00684578
0.00476623
0.0022401
0.000334603
)
;

boundaryField
{
    leftWall
    {
        type            nutkWallFunction;
        blending        stepwise;
        value           nonuniform List<scalar> 
50
(
0
0
0
0
0
0
0
0
0
0
0
0
0
0
0
0
0
0
0
0
0
0
0
0
0
0
0
5.36008e-05
3.67563e-05
3.63915e-05
3.66011e-05
3.66721e-05
3.66917e-05
3.66967e-05
3.6698e-05
3.66983e-05
3.66983e-05
3.66984e-05
3.66984e-05
3.66984e-05
3.66984e-05
3.66984e-05
3.66984e-05
3.66984e-05
3.66986e-05
3.66996e-05
3.67056e-05
3.67553e-05
3.74613e-05
4.92581e-05
)
;
    }
    rightWall
    {
        type            nutkWallFunction;
        blending        stepwise;
        value           nonuniform List<scalar> 
50
(
3.34545e-05
3.96292e-05
4.113e-05
4.18137e-05
4.21867e-05
4.23926e-05
4.2502e-05
4.25561e-05
4.25918e-05
4.26022e-05
4.26048e-05
4.26055e-05
4.26057e-05
4.26057e-05
4.26057e-05
4.26057e-05
4.26057e-05
4.26057e-05
4.26057e-05
4.26057e-05
4.26057e-05
4.26057e-05
4.26057e-05
4.26057e-05
4.26057e-05
4.26057e-05
4.26057e-05
4.26057e-05
4.26057e-05
4.26057e-05
4.26057e-05
4.26057e-05
4.26057e-05
4.26057e-05
4.26057e-05
4.26057e-05
4.26057e-05
4.26057e-05
4.26057e-05
4.26057e-05
4.26057e-05
4.26057e-05
4.26057e-05
4.26057e-05
4.26057e-05
4.26057e-05
4.26057e-05
4.26057e-05
4.26056e-05
4.26049e-05
)
;
    }
    lowerWall
    {
        type            nutkWallFunction;
        blending        stepwise;
        value           nonuniform List<scalar> 
62
(
0
0
0
0
0
0
0
0
0
0
0
0
2.16739e-05
8.11042e-06
8.48514e-06
8.71004e-06
8.76918e-06
8.78119e-06
8.7744e-06
8.73278e-06
8.56851e-06
8.00363e-06
6.51753e-06
6.51753e-06
3.3561e-05
3.52481e-05
3.59571e-05
3.63484e-05
3.66395e-05
3.71738e-05
3.94887e-05
3.98697e-05
3.77087e-05
3.76983e-05
3.97963e-05
6.66494e-06
3.9128e-05
4.10486e-05
4.18128e-05
4.22273e-05
4.25427e-05
4.31352e-05
4.55639e-05
6.66494e-06
8.1155e-06
8.62081e-06
8.7514e-06
8.78042e-06
8.78627e-06
8.78739e-06
8.7876e-06
8.78764e-06
8.78764e-06
8.78763e-06
8.78758e-06
8.7873e-06
8.78597e-06
8.77951e-06
8.74942e-06
8.61894e-06
8.14904e-06
9.02262e-06
)
;
    }
    atmosphere
    {
        type            calculated;
        value           nonuniform List<scalar> 
46
(
0.009
0.009
0.009
0.009
0.009
0.009
0.009
0.009
0.009
0.009
0.009
0.009
0.009
0.009
0.009
0.009
0.009
0.009
0.009
0.009
0.009
0.009
0.009
0.009
0.009
0.009
0.009
0.009
0.009
0.00893013
0.00891817
0.00891568
0.00891523
0.00891513
0.00891504
0.00891471
0.00891335
0.00890807
0.00888859
0.00882196
0.00861624
0.00806466
0.00684578
0.00476623
0.0022401
0.000334603
)
;
    }
    defaultFaces
    {
        type            empty;
    }
}


// ************************************************************************* //
