/*--------------------------------*- C++ -*----------------------------------*\
| =========                 |                                                 |
| \\      /  F ield         | OpenFOAM: The Open Source CFD Toolbox           |
|  \\    /   O peration     | Version:  2406                                  |
|   \\  /    A nd           | Website:  www.openfoam.com                      |
|    \\/     M anipulation  |                                                 |
\*---------------------------------------------------------------------------*/
FoamFile
{
    version     2.0;
    format      ascii;
    arch        "LSB;label=32;scalar=64";
    class       volScalarField;
    location    "0.05";
    object      nut;
}
// * * * * * * * * * * * * * * * * * * * * * * * * * * * * * * * * * * * * * //

dimensions      [0 2 -1 0 0 0 0];

internalField   nonuniform List<scalar> 
2268
(
0.000144642
0.000105018
0.000109822
0.000111511
0.000112021
0.000112164
0.000112202
0.000112212
0.000112214
0.000112215
0.000112215
0.000112215
0.000112215
0.000112215
0.000112214
0.000112213
0.000112204
0.000112171
0.000112038
0.000111543
0.000109855
0.000104772
9.26848e-05
0.000265862
0.000637895
0.000801271
0.000860579
0.000879686
0.000885322
0.000886889
0.000887307
0.000887416
0.000887444
0.000887451
0.000887452
0.000887451
0.000887447
0.000887428
0.000887345
0.000887004
0.000885637
0.00088042
0.000861907
0.00080283
0.000639032
0.000262649
0.000278169
0.00110014
0.00158876
0.00180131
0.00187986
0.00190574
0.00191359
0.00191584
0.00191645
0.00191662
0.00191666
0.00191667
0.00191667
0.00191664
0.00191653
0.00191608
0.00191429
0.0019076
0.00188406
0.00180863
0.00159694
0.00110392
0.000277675
0.000284426
0.0014321
0.00231196
0.0027626
0.00295089
0.00301937
0.00304189
0.00304877
0.00305076
0.00305132
0.00305146
0.0030515
0.00305149
0.0030514
0.00305104
0.00304964
0.00304439
0.00302585
0.00296518
0.00278706
0.0023388
0.00144352
0.000284517
0.000288035
0.00165288
0.00290846
0.00364518
0.00398678
0.00412195
0.00416959
0.00418499
0.00418965
0.00419099
0.00419136
0.00419145
0.00419142
0.00419122
0.00419039
0.00418728
0.00417614
0.00413874
0.00402349
0.0037079
0.00297833
0.00168437
0.000288548
0.000290132
0.00179236
0.00336212
0.00438935
0.00490872
0.00512927
0.00521164
0.00523957
0.00524837
0.00525099
0.00525173
0.00525191
0.00525186
0.00525148
0.00524997
0.00524449
0.00522561
0.00516489
0.00498669
0.00452446
0.00351924
0.00187175
0.000291795
0.000291325
0.00187713
0.00368542
0.00497388
0.00567304
0.00598777
0.00611113
0.00615468
0.00616887
0.00617321
0.00617446
0.00617478
0.00617471
0.00617411
0.00617182
0.0061637
0.00613666
0.00605287
0.00581671
0.00522961
0.00400366
0.00206503
0.000297667
0.000291985
0.00192675
0.00390309
0.00540531
0.00626803
0.00667533
0.00684145
0.00690207
0.00692238
0.00692875
0.00693063
0.00693111
0.00693103
0.00693023
0.00692718
0.00691669
0.00688277
0.00678107
0.00650435
0.00584094
0.00449592
0.00235912
0.00031993
9.38608e-05
0.000105757
0.000110388
0.00011176
0.000112111
0.000112192
0.00011221
0.000112214
0.000112215
0.000112215
0.000112215
0.000112214
0.000112209
0.000112188
0.000112098
0.000111732
0.000110353
0.000105982
0.00015309
0.000300642
0.000669337
0.000821054
0.000869929
0.000883268
0.000886515
0.000887248
0.000887406
0.000887439
0.000887444
0.000887435
0.000887389
0.000887187
0.000886319
0.000882729
0.000868772
0.000819441
0.000668087
0.00030491
0.000318029
0.00118381
0.00165937
0.00184065
0.00189678
0.00191188
0.00191557
0.00191642
0.0019166
0.00191663
0.00191658
0.00191631
0.0019152
0.0019107
0.00189366
0.00183418
0.00165079
0.00117925
0.000318785
0.000325571
0.00157342
0.00246554
0.00286122
0.00299767
0.00303767
0.00304817
0.00305072
0.0030513
0.00305138
0.00305119
0.00305032
0.00304681
0.00303354
0.00298694
0.0028395
0.00243735
0.0015596
0.000325516
0.000329921
0.0018567
0.00317764
0.00383724
0.00408474
0.00416251
0.00418417
0.0041897
0.004191
0.00419118
0.00419072
0.00418863
0.00418059
0.00415176
0.00405709
0.00378153
0.0031047
0.0018192
0.000329356
0.000333493
0.00207864
0.00378736
0.0047118
0.00508088
0.0052034
0.00523923
0.00524878
0.0052511
0.00525141
0.0052505
0.00524647
0.00523157
0.00518054
0.00502218
0.00459244
0.00362551
0.00198628
0.000331607
0.000340109
0.00230171
0.00432699
0.00546611
0.00594115
0.00610596
0.00615618
0.00617008
0.00617356
0.00617399
0.00617244
0.00616585
0.00614217
0.00606419
0.00583338
0.00524238
0.00400539
0.00208918
0.000332901
0.000363907
0.002623
0.00485157
0.0061079
0.00665003
0.00684551
0.0069073
0.00692496
0.0069295
0.00693001
0.00692768
0.0069181
0.00688462
0.00677782
0.00647378
0.00573157
0.0042666
0.00215004
0.000333623
0.000292531
0.00197015
0.00412296
0.00588721
0.00697412
0.0075189
0.00775237
0.00784113
0.00787191
0.00788184
0.00788485
0.00788565
0.00788558
0.0078845
0.00788051
0.00786727
0.00782623
0.00770882
0.00740579
0.00672162
0.0054292
0.00352536
0.00156613
0.000292743
0.00198811
0.00423138
0.00615844
0.00740611
0.00806028
0.00835174
0.00846629
0.00850717
0.00852071
0.00852491
0.00852608
0.00852611
0.00852506
0.00852124
0.00850905
0.00847287
0.00837397
0.0081302
0.00760364
0.00664209
0.00522109
0.00360176
0.000292802
0.00199331
0.0042674
0.00625928
0.00757906
0.00828676
0.00860846
0.00873715
0.00878381
0.00879948
0.00880443
0.00880585
0.00880603
0.00880527
0.00880248
0.00879385
0.00876914
0.00870393
0.00854836
0.00822103
0.00763182
0.00675633
0.00573419
0.000292817
0.00199475
0.0042785
0.00629327
0.00764102
0.00837095
0.00870588
0.008841
0.00889039
0.00890711
0.00891243
0.008914
0.00891431
0.00891389
0.00891221
0.00890714
0.00889306
0.00885705
0.00877346
0.00860128
0.00829534
0.0078433
0.00732195
0.000292821
0.00199514
0.00428173
0.00630392
0.00766143
0.00839958
0.00873962
0.00887732
0.00892783
0.008945
0.00895049
0.00895213
0.00895253
0.00895237
0.0089515
0.0089489
0.00894191
0.00892453
0.00888527
0.0088062
0.00866816
0.00846737
0.00824136
0.000292823
0.00199524
0.00428264
0.00630707
0.00766774
0.00840868
0.00875051
0.00888915
0.00894009
0.00895743
0.00896298
0.00896467
0.00896512
0.00896511
0.00896472
0.00896353
0.00896041
0.00895288
0.00893632
0.00890382
0.00884835
0.00876945
0.00868302
0.000292823
0.00199526
0.00428288
0.00630796
0.00766959
0.00841141
0.00875384
0.00889279
0.00894388
0.00896128
0.00896687
0.00896857
0.00896905
0.00896912
0.00896898
0.00896848
0.0089672
0.00896421
0.00895782
0.00894561
0.00892531
0.00889715
0.0088671
0.000292823
0.00199527
0.00428294
0.0063082
0.00767011
0.0084122
0.00875481
0.00889387
0.008945
0.00896243
0.00896802
0.00896973
0.00897022
0.00897034
0.0089703
0.00897011
0.00896963
0.00896853
0.00896623
0.00896197
0.00895506
0.00894571
0.00893592
0.000292823
0.00199527
0.00428296
0.00630827
0.00767026
0.00841242
0.00875508
0.00889417
0.00894533
0.00896276
0.00896835
0.00897006
0.00897056
0.00897069
0.00897071
0.00897064
0.00897047
0.00897009
0.00896931
0.0089679
0.00896567
0.0089627
0.00895957
0.000292823
0.00199527
0.00428297
0.00630829
0.00767029
0.00841248
0.00875516
0.00889426
0.00894542
0.00896285
0.00896844
0.00897016
0.00897066
0.0089708
0.00897083
0.00897081
0.00897076
0.00897063
0.00897038
0.00896993
0.00896922
0.00896826
0.00896718
0.000292823
0.00199527
0.00428297
0.00630829
0.0076703
0.0084125
0.00875518
0.00889428
0.00894544
0.00896287
0.00896847
0.00897018
0.00897069
0.00897083
0.00897086
0.00897087
0.00897085
0.00897081
0.00897073
0.00897058
0.00897034
0.00896998
0.00896949
0.000292823
0.00199527
0.00428297
0.00630829
0.00767031
0.0084125
0.00875518
0.00889429
0.00894545
0.00896288
0.00896848
0.00897019
0.00897069
0.00897084
0.00897087
0.00897088
0.00897088
0.00897086
0.00897084
0.00897078
0.00897068
0.00897049
0.00897017
0.000292823
0.00199527
0.00428297
0.00630829
0.00767031
0.0084125
0.00875518
0.00889429
0.00894545
0.00896288
0.00896848
0.00897019
0.00897069
0.00897084
0.00897088
0.00897089
0.00897089
0.00897088
0.00897087
0.00897084
0.00897078
0.00897064
0.00897036
0.000292823
0.00199527
0.00428297
0.00630829
0.00767031
0.0084125
0.00875518
0.00889429
0.00894545
0.00896288
0.00896848
0.00897019
0.00897069
0.00897084
0.00897088
0.00897089
0.00897089
0.00897089
0.00897088
0.00897086
0.00897081
0.00897068
0.00897041
0.000292823
0.00199527
0.00428297
0.00630829
0.00767031
0.0084125
0.00875518
0.00889429
0.00894545
0.00896288
0.00896848
0.00897019
0.00897069
0.00897084
0.00897088
0.00897089
0.00897089
0.00897089
0.00897088
0.00897086
0.00897081
0.00897069
0.00897043
0.000292823
0.00199527
0.00428297
0.00630829
0.00767031
0.0084125
0.00875518
0.00889429
0.00894545
0.00896288
0.00896848
0.00897019
0.00897069
0.00897084
0.00897088
0.00897089
0.00897089
0.00897089
0.00897088
0.00897087
0.00897082
0.00897069
0.00897043
0.000292823
0.00199527
0.00428297
0.00630829
0.00767031
0.0084125
0.00875518
0.00889429
0.00894545
0.00896288
0.00896848
0.00897019
0.00897069
0.00897084
0.00897088
0.00897089
0.00897089
0.00897089
0.00897088
0.00897087
0.00897082
0.00897069
0.00897043
0.000292823
0.00199527
0.00428297
0.00630829
0.00767031
0.0084125
0.00875518
0.00889429
0.00894545
0.00896288
0.00896848
0.00897019
0.00897069
0.00897084
0.00897088
0.00897089
0.00897089
0.00897089
0.00897088
0.00897087
0.00897082
0.00897069
0.00897043
0.000292823
0.00199527
0.00428297
0.00630829
0.00767031
0.0084125
0.00875518
0.00889429
0.00894545
0.00896288
0.00896848
0.00897019
0.00897069
0.00897084
0.00897088
0.00897089
0.00897089
0.00897089
0.00897088
0.00897087
0.00897082
0.0089707
0.00897043
0.000292823
0.00199527
0.00428297
0.00630829
0.00767031
0.0084125
0.00875518
0.00889429
0.00894545
0.00896288
0.00896848
0.00897019
0.00897069
0.00897084
0.00897088
0.00897089
0.00897089
0.00897089
0.00897088
0.00897087
0.00897082
0.0089707
0.00897043
0.000292823
0.00199527
0.00428297
0.00630829
0.00767031
0.0084125
0.00875518
0.00889429
0.00894545
0.00896288
0.00896848
0.00897019
0.00897069
0.00897084
0.00897088
0.00897089
0.00897089
0.00897089
0.00897088
0.00897087
0.00897082
0.0089707
0.00897043
0.000292823
0.00199527
0.00428297
0.00630829
0.00767031
0.0084125
0.00875518
0.00889429
0.00894545
0.00896288
0.00896848
0.00897019
0.00897069
0.00897084
0.00897088
0.00897089
0.00897089
0.00897089
0.00897088
0.00897087
0.00897082
0.0089707
0.00897043
0.000292823
0.00199527
0.00428297
0.00630829
0.00767031
0.0084125
0.00875518
0.00889429
0.00894545
0.00896288
0.00896848
0.00897019
0.00897069
0.00897084
0.00897088
0.00897089
0.00897089
0.00897089
0.00897088
0.00897087
0.00897082
0.0089707
0.00897043
0.000292823
0.00199527
0.00428297
0.00630829
0.00767031
0.0084125
0.00875518
0.00889429
0.00894545
0.00896288
0.00896848
0.00897019
0.00897069
0.00897084
0.00897088
0.00897089
0.00897089
0.00897089
0.00897088
0.00897087
0.00897082
0.0089707
0.00897043
0.000292823
0.00199527
0.00428297
0.00630829
0.00767031
0.0084125
0.00875518
0.00889429
0.00894545
0.00896288
0.00896848
0.00897019
0.00897069
0.00897084
0.00897088
0.00897089
0.00897089
0.00897089
0.00897088
0.00897087
0.00897082
0.0089707
0.00897043
0.000292823
0.00199527
0.00428297
0.00630829
0.00767031
0.0084125
0.00875518
0.00889429
0.00894545
0.00896288
0.00896848
0.00897019
0.00897069
0.00897084
0.00897088
0.00897089
0.00897089
0.00897089
0.00897088
0.00897087
0.00897082
0.0089707
0.00897043
0.000292823
0.00199527
0.00428297
0.00630829
0.00767031
0.0084125
0.00875518
0.00889429
0.00894545
0.00896288
0.00896848
0.00897019
0.00897069
0.00897084
0.00897088
0.00897089
0.00897089
0.00897089
0.00897088
0.00897087
0.00897082
0.0089707
0.00897043
0.000292823
0.00199527
0.00428297
0.00630829
0.00767031
0.0084125
0.00875518
0.00889429
0.00894545
0.00896288
0.00896848
0.00897019
0.00897069
0.00897084
0.00897088
0.00897089
0.00897089
0.00897089
0.00897088
0.00897087
0.00897082
0.0089707
0.00897043
0.000292823
0.00199527
0.00428297
0.00630829
0.00767031
0.0084125
0.00875518
0.00889429
0.00894545
0.00896288
0.00896848
0.00897019
0.00897069
0.00897084
0.00897088
0.00897089
0.00897089
0.00897089
0.00897088
0.00897087
0.00897082
0.0089707
0.00897043
0.000292823
0.00199527
0.00428297
0.00630829
0.00767031
0.0084125
0.00875518
0.00889429
0.00894545
0.00896288
0.00896848
0.00897019
0.00897069
0.00897084
0.00897088
0.00897089
0.00897089
0.00897089
0.00897088
0.00897087
0.00897082
0.0089707
0.00897043
0.000292823
0.00199527
0.00428297
0.00630829
0.00767031
0.0084125
0.00875518
0.00889429
0.00894545
0.00896288
0.00896848
0.00897019
0.00897069
0.00897084
0.00897088
0.00897089
0.00897089
0.00897089
0.00897088
0.00897087
0.00897082
0.0089707
0.00897043
0.000292823
0.00199527
0.00428297
0.00630829
0.00767031
0.0084125
0.00875518
0.00889429
0.00894545
0.00896288
0.00896848
0.00897019
0.00897069
0.00897084
0.00897088
0.00897089
0.00897089
0.00897089
0.00897088
0.00897087
0.00897082
0.0089707
0.00897043
0.000292823
0.00199527
0.00428297
0.00630829
0.00767031
0.0084125
0.00875518
0.00889429
0.00894545
0.00896288
0.00896848
0.00897019
0.00897069
0.00897084
0.00897088
0.00897089
0.00897089
0.00897089
0.00897088
0.00897087
0.00897082
0.0089707
0.00897043
0.000292823
0.00199527
0.00428297
0.00630829
0.00767031
0.0084125
0.00875518
0.00889429
0.00894545
0.00896288
0.00896848
0.00897019
0.00897069
0.00897084
0.00897088
0.00897089
0.00897089
0.00897089
0.00897088
0.00897087
0.00897082
0.0089707
0.00897043
0.000292823
0.00199527
0.00428297
0.00630829
0.00767031
0.0084125
0.00875518
0.00889429
0.00894545
0.00896288
0.00896848
0.00897019
0.00897069
0.00897084
0.00897088
0.00897089
0.00897089
0.00897089
0.00897088
0.00897087
0.00897082
0.0089707
0.00897043
0.000292823
0.00199527
0.00428297
0.00630829
0.00767031
0.0084125
0.00875518
0.00889429
0.00894545
0.00896288
0.00896848
0.00897019
0.0089707
0.00897084
0.00897088
0.00897089
0.00897089
0.00897089
0.00897088
0.00897087
0.00897082
0.0089707
0.00897043
0.000292823
0.00199527
0.00428297
0.00630829
0.00767031
0.0084125
0.00875518
0.00889429
0.00894545
0.00896288
0.00896848
0.00897019
0.0089707
0.00897084
0.00897088
0.00897089
0.00897089
0.00897089
0.00897088
0.00897087
0.00897082
0.0089707
0.00897043
0.000292823
0.00199527
0.00428297
0.00630829
0.00767031
0.0084125
0.00875518
0.00889429
0.00894545
0.00896288
0.00896848
0.00897019
0.0089707
0.00897084
0.00897088
0.00897089
0.00897089
0.00897089
0.00897088
0.00897087
0.00897082
0.0089707
0.00897044
0.000292823
0.00199527
0.00428297
0.00630829
0.00767031
0.0084125
0.00875518
0.00889429
0.00894545
0.00896288
0.00896848
0.00897019
0.0089707
0.00897084
0.00897088
0.00897089
0.00897089
0.00897089
0.00897088
0.00897087
0.00897082
0.0089707
0.00897044
0.000292823
0.00199527
0.00428297
0.00630829
0.00767031
0.0084125
0.00875518
0.00889429
0.00894545
0.00896288
0.00896848
0.00897019
0.0089707
0.00897084
0.00897088
0.00897089
0.00897089
0.00897089
0.00897089
0.00897087
0.00897082
0.0089707
0.00897045
0.000292823
0.00199527
0.00428297
0.00630829
0.0076703
0.0084125
0.00875518
0.00889429
0.00894545
0.00896289
0.00896848
0.0089702
0.0089707
0.00897084
0.00897088
0.00897089
0.0089709
0.00897089
0.00897089
0.00897087
0.00897082
0.00897071
0.00897047
0.000292823
0.00199527
0.00428297
0.00630829
0.0076703
0.0084125
0.00875518
0.00889429
0.00894545
0.00896289
0.00896848
0.0089702
0.0089707
0.00897084
0.00897088
0.00897089
0.0089709
0.0089709
0.00897089
0.00897087
0.00897083
0.00897072
0.00897049
0.000323349
0.000303013
0.0003029
0.000322656
0.00250558
0.00230573
0.00230486
0.00250236
0.00511879
0.00493227
0.00493222
0.00511897
0.00703656
0.00693989
0.00694028
0.0070379
0.00812525
0.00808514
0.00808541
0.00812607
0.00864045
0.00862572
0.00862581
0.00864072
0.00885265
0.00884763
0.00884763
0.00885266
0.00893119
0.00892949
0.00892947
0.00893111
0.00895794
0.00895729
0.00895726
0.00895783
0.00896647
0.00896614
0.0089661
0.00896636
0.00896905
0.00896881
0.00896877
0.00896894
0.0089698
0.00896958
0.00896954
0.00896968
0.00897001
0.00896979
0.00896976
0.00896989
0.00897007
0.00896985
0.00896982
0.00896995
0.00897008
0.00896987
0.00896983
0.00896997
0.00897008
0.00896987
0.00896984
0.00896997
0.00897009
0.00896987
0.00896984
0.00896997
0.00897009
0.00896987
0.00896984
0.00896997
0.00897009
0.00896987
0.00896984
0.00896997
0.00897009
0.00896987
0.00896984
0.00896997
0.00897009
0.00896987
0.00896984
0.00896997
0.00897009
0.00896987
0.00896984
0.00896997
0.00897009
0.00896987
0.00896984
0.00896997
0.00897009
0.00896987
0.00896984
0.00896997
0.00897009
0.00896987
0.00896984
0.00896997
0.00897009
0.00896987
0.00896984
0.00896997
0.00897009
0.00896987
0.00896984
0.00896997
0.00897009
0.00896987
0.00896984
0.00896997
0.00897009
0.00896987
0.00896984
0.00896997
0.00897009
0.00896987
0.00896984
0.00896997
0.00897009
0.00896987
0.00896984
0.00896997
0.00897009
0.00896987
0.00896984
0.00896997
0.00897009
0.00896987
0.00896984
0.00896997
0.00897009
0.00896987
0.00896984
0.00896997
0.00897009
0.00896987
0.00896984
0.00896997
0.00897009
0.00896987
0.00896984
0.00896997
0.00897009
0.00896987
0.00896984
0.00896997
0.00897009
0.00896988
0.00896984
0.00896998
0.0089701
0.00896989
0.00896985
0.00896999
0.00897012
0.00896991
0.00896988
0.00897001
0.00897015
0.00896996
0.00896993
0.00897006
0.0089702
0.00897003
0.00897002
0.00897014
0.00165503
0.00379301
0.0057792
0.00699837
0.00756561
0.00778335
0.007856
0.00787777
0.00788355
0.00788404
0.0078803
0.0078655
0.0078155
0.00766217
0.00724626
0.00629014
0.00453643
0.00220381
0.000334224
0.00368921
0.00544638
0.00691479
0.00782064
0.0082599
0.0084371
0.00849924
0.00851875
0.00852404
0.00852405
0.00851873
0.00849873
0.0084331
0.0082383
0.00772993
0.00661396
0.00467332
0.00222635
0.00033446
0.00578842
0.00690391
0.00780515
0.00835853
0.008632
0.00874583
0.00878724
0.00880071
0.00880433
0.00880367
0.00879729
0.00877421
0.00869977
0.00848274
0.00792768
0.0067375
0.00471988
0.00223294
0.000334526
0.00734797
0.0079216
0.00838751
0.0086747
0.00881881
0.00888033
0.00890341
0.00891112
0.00891305
0.0089118
0.00890483
0.00888025
0.00880171
0.00857472
0.00799978
0.00678003
0.0047345
0.00223479
0.000334544
0.00825196
0.00850247
0.00871031
0.00884025
0.00890672
0.00893582
0.00894706
0.00895087
0.00895161
0.00894997
0.0089427
0.00891747
0.00883725
0.00860633
0.00802389
0.00679358
0.00473881
0.00223529
0.000334549
0.00868683
0.00878322
0.00886538
0.0089179
0.00894541
0.00895779
0.0089627
0.00896435
0.0089644
0.00896253
0.00895513
0.00892964
0.0088488
0.00861647
0.00803143
0.00679765
0.00474003
0.00223542
0.00033455
0.00886831
0.00890202
0.00893154
0.00895092
0.00896134
0.00896617
0.00896812
0.00896873
0.00896844
0.00896645
0.00895899
0.00893341
0.00885235
0.00861955
0.00803367
0.00679881
0.00474036
0.00223545
0.000334551
0.00893625
0.00894729
0.00895717
0.00896382
0.0089675
0.00896925
0.00896996
0.00897011
0.00896966
0.00896763
0.00896014
0.00893453
0.00885339
0.00862044
0.00803431
0.00679914
0.00474045
0.00223546
0.000334551
0.00895963
0.00896318
0.00896635
0.00896852
0.00896974
0.00897034
0.00897057
0.00897053
0.00897003
0.00896797
0.00896047
0.00893485
0.00885369
0.00862069
0.00803449
0.00679922
0.00474047
0.00223546
0.000334551
0.00896716
0.0089684
0.00896943
0.00897012
0.00897052
0.00897071
0.00897077
0.00897066
0.00897013
0.00896806
0.00896056
0.00893493
0.00885377
0.00862076
0.00803453
0.00679925
0.00474048
0.00223546
0.000334551
0.00896945
0.00897002
0.00897041
0.00897065
0.00897078
0.00897083
0.00897083
0.0089707
0.00897016
0.00896809
0.00896058
0.00893496
0.00885379
0.00862078
0.00803455
0.00679925
0.00474048
0.00223546
0.000334551
0.00897013
0.0089705
0.00897071
0.00897081
0.00897086
0.00897087
0.00897085
0.00897071
0.00897017
0.0089681
0.00896059
0.00893497
0.0088538
0.00862079
0.00803455
0.00679925
0.00474048
0.00223546
0.000334551
0.00897032
0.00897064
0.0089708
0.00897086
0.00897088
0.00897088
0.00897085
0.00897072
0.00897017
0.0089681
0.00896059
0.00893497
0.0088538
0.00862079
0.00803455
0.00679925
0.00474048
0.00223546
0.000334551
0.00897037
0.00897068
0.00897082
0.00897087
0.00897089
0.00897089
0.00897086
0.00897072
0.00897017
0.0089681
0.00896059
0.00893497
0.0088538
0.00862079
0.00803455
0.00679925
0.00474048
0.00223546
0.000334551
0.00897038
0.00897069
0.00897083
0.00897088
0.00897089
0.00897089
0.00897086
0.00897072
0.00897017
0.0089681
0.00896059
0.00893497
0.0088538
0.00862079
0.00803455
0.00679925
0.00474048
0.00223546
0.000334551
0.00897038
0.0089707
0.00897083
0.00897088
0.00897089
0.00897089
0.00897086
0.00897072
0.00897017
0.0089681
0.00896059
0.00893497
0.0088538
0.00862079
0.00803455
0.00679925
0.00474048
0.00223546
0.000334551
0.00897039
0.0089707
0.00897083
0.00897088
0.00897089
0.00897089
0.00897086
0.00897072
0.00897017
0.0089681
0.00896059
0.00893497
0.0088538
0.00862079
0.00803455
0.00679925
0.00474048
0.00223546
0.000334551
0.00897039
0.0089707
0.00897083
0.00897088
0.00897089
0.00897089
0.00897086
0.00897072
0.00897017
0.0089681
0.00896059
0.00893497
0.0088538
0.00862079
0.00803455
0.00679925
0.00474048
0.00223546
0.000334551
0.00897039
0.0089707
0.00897083
0.00897088
0.00897089
0.00897089
0.00897086
0.00897072
0.00897017
0.0089681
0.00896059
0.00893497
0.0088538
0.00862079
0.00803455
0.00679925
0.00474048
0.00223546
0.000334551
0.00897039
0.0089707
0.00897083
0.00897088
0.00897089
0.00897089
0.00897086
0.00897072
0.00897017
0.0089681
0.00896059
0.00893497
0.0088538
0.00862079
0.00803455
0.00679925
0.00474048
0.00223546
0.000334551
0.00897039
0.0089707
0.00897083
0.00897088
0.00897089
0.00897089
0.00897086
0.00897072
0.00897017
0.0089681
0.00896059
0.00893497
0.0088538
0.00862079
0.00803455
0.00679925
0.00474048
0.00223546
0.000334551
0.00897039
0.0089707
0.00897083
0.00897088
0.00897089
0.00897089
0.00897086
0.00897072
0.00897017
0.0089681
0.00896059
0.00893497
0.0088538
0.00862079
0.00803455
0.00679925
0.00474048
0.00223546
0.000334551
0.00897039
0.0089707
0.00897083
0.00897088
0.00897089
0.00897089
0.00897086
0.00897072
0.00897017
0.0089681
0.00896059
0.00893497
0.0088538
0.00862079
0.00803455
0.00679925
0.00474048
0.00223546
0.000334551
0.00897039
0.0089707
0.00897083
0.00897088
0.00897089
0.00897089
0.00897086
0.00897072
0.00897017
0.0089681
0.00896059
0.00893497
0.0088538
0.00862079
0.00803455
0.00679925
0.00474048
0.00223546
0.000334551
0.00897039
0.0089707
0.00897083
0.00897088
0.00897089
0.00897089
0.00897086
0.00897072
0.00897017
0.0089681
0.00896059
0.00893497
0.0088538
0.00862079
0.00803455
0.00679925
0.00474048
0.00223546
0.000334551
0.00897039
0.0089707
0.00897083
0.00897088
0.00897089
0.00897089
0.00897086
0.00897072
0.00897017
0.0089681
0.00896059
0.00893497
0.0088538
0.00862079
0.00803455
0.00679925
0.00474048
0.00223546
0.000334551
0.00897039
0.0089707
0.00897083
0.00897088
0.00897089
0.00897089
0.00897086
0.00897072
0.00897017
0.0089681
0.00896059
0.00893497
0.0088538
0.00862079
0.00803455
0.00679925
0.00474048
0.00223546
0.000334551
0.00897039
0.0089707
0.00897083
0.00897088
0.00897089
0.00897089
0.00897086
0.00897072
0.00897017
0.0089681
0.00896059
0.00893497
0.0088538
0.00862079
0.00803455
0.00679925
0.00474048
0.00223546
0.000334551
0.00897039
0.0089707
0.00897083
0.00897088
0.00897089
0.00897089
0.00897086
0.00897072
0.00897017
0.0089681
0.00896059
0.00893497
0.0088538
0.00862079
0.00803455
0.00679925
0.00474048
0.00223546
0.000334551
0.00897039
0.0089707
0.00897083
0.00897088
0.00897089
0.00897089
0.00897086
0.00897072
0.00897017
0.0089681
0.00896059
0.00893497
0.0088538
0.00862079
0.00803455
0.00679925
0.00474048
0.00223546
0.000334551
0.00897039
0.0089707
0.00897083
0.00897088
0.00897089
0.00897089
0.00897086
0.00897072
0.00897017
0.0089681
0.00896059
0.00893497
0.0088538
0.00862079
0.00803455
0.00679925
0.00474048
0.00223546
0.000334551
0.00897039
0.0089707
0.00897083
0.00897088
0.00897089
0.00897089
0.00897086
0.00897072
0.00897017
0.0089681
0.00896059
0.00893497
0.0088538
0.00862079
0.00803455
0.00679925
0.00474048
0.00223546
0.000334551
0.00897039
0.0089707
0.00897083
0.00897088
0.00897089
0.00897089
0.00897086
0.00897072
0.00897017
0.0089681
0.00896059
0.00893497
0.0088538
0.00862079
0.00803455
0.00679925
0.00474048
0.00223546
0.000334551
0.00897039
0.0089707
0.00897083
0.00897088
0.00897089
0.00897089
0.00897086
0.00897072
0.00897017
0.0089681
0.00896059
0.00893497
0.0088538
0.00862079
0.00803455
0.00679925
0.00474048
0.00223546
0.000334551
0.00897039
0.0089707
0.00897083
0.00897088
0.00897089
0.00897089
0.00897086
0.00897072
0.00897017
0.0089681
0.00896059
0.00893497
0.0088538
0.00862079
0.00803455
0.00679925
0.00474048
0.00223546
0.000334551
0.00897039
0.0089707
0.00897083
0.00897088
0.00897089
0.00897089
0.00897086
0.00897072
0.00897017
0.0089681
0.00896059
0.00893497
0.0088538
0.00862079
0.00803455
0.00679925
0.00474048
0.00223546
0.000334551
0.00897039
0.0089707
0.00897083
0.00897088
0.00897089
0.00897089
0.00897086
0.00897072
0.00897017
0.0089681
0.00896059
0.00893497
0.0088538
0.00862079
0.00803455
0.00679925
0.00474048
0.00223546
0.000334551
0.00897039
0.0089707
0.00897083
0.00897088
0.00897089
0.00897089
0.00897086
0.00897072
0.00897017
0.0089681
0.00896059
0.00893497
0.0088538
0.00862079
0.00803455
0.00679925
0.00474048
0.00223546
0.000334551
0.0089704
0.0089707
0.00897083
0.00897088
0.00897089
0.00897089
0.00897086
0.00897072
0.00897017
0.0089681
0.00896059
0.00893497
0.0088538
0.00862079
0.00803455
0.00679925
0.00474048
0.00223546
0.000334551
0.00897041
0.00897071
0.00897084
0.00897088
0.0089709
0.00897089
0.00897086
0.00897072
0.00897017
0.0089681
0.00896059
0.00893497
0.0088538
0.00862079
0.00803455
0.00679925
0.00474048
0.00223546
0.000334551
0.00897045
0.00897072
0.00897084
0.00897088
0.0089709
0.00897089
0.00897086
0.00897072
0.00897017
0.0089681
0.00896059
0.00893497
0.0088538
0.00862079
0.00803455
0.00679925
0.00474048
0.00223546
0.000334551
0.00897049
0.00897074
0.00897085
0.00897089
0.0089709
0.00897089
0.00897086
0.00897072
0.00897018
0.0089681
0.0089606
0.00893497
0.0088538
0.00862079
0.00803455
0.00679925
0.00474048
0.00223546
0.000334551
)
;

boundaryField
{
    leftWall
    {
        type            nutkWallFunction;
        blending        stepwise;
        value           nonuniform List<scalar> 
50
(
2.87008e-05
3.39449e-05
3.52964e-05
3.59393e-05
3.62893e-05
3.64798e-05
3.65813e-05
3.66341e-05
3.66749e-05
3.66895e-05
3.66933e-05
3.66943e-05
3.66945e-05
3.66946e-05
3.66946e-05
3.66946e-05
3.66946e-05
3.66946e-05
3.66946e-05
3.66946e-05
3.66946e-05
3.66946e-05
3.66946e-05
3.66946e-05
3.66946e-05
3.66946e-05
3.66946e-05
3.66946e-05
3.66946e-05
3.66946e-05
3.66946e-05
3.66946e-05
3.66946e-05
3.66946e-05
3.66946e-05
3.66946e-05
3.66946e-05
3.66946e-05
3.66946e-05
3.66946e-05
3.66946e-05
3.66946e-05
3.66946e-05
3.66946e-05
3.66946e-05
3.66946e-05
3.66946e-05
3.66946e-05
3.66946e-05
3.66946e-05
)
;
    }
    rightWall
    {
        type            nutkWallFunction;
        blending        stepwise;
        value           nonuniform List<scalar> 
50
(
3.34542e-05
3.96272e-05
4.11237e-05
4.18002e-05
4.21664e-05
4.23682e-05
4.2477e-05
4.2534e-05
4.25785e-05
4.25946e-05
4.25989e-05
4.25999e-05
4.26002e-05
4.26003e-05
4.26003e-05
4.26003e-05
4.26003e-05
4.26003e-05
4.26003e-05
4.26003e-05
4.26003e-05
4.26003e-05
4.26003e-05
4.26003e-05
4.26003e-05
4.26003e-05
4.26003e-05
4.26003e-05
4.26003e-05
4.26003e-05
4.26003e-05
4.26003e-05
4.26003e-05
4.26003e-05
4.26003e-05
4.26003e-05
4.26003e-05
4.26003e-05
4.26003e-05
4.26003e-05
4.26003e-05
4.26003e-05
4.26003e-05
4.26003e-05
4.26003e-05
4.26003e-05
4.26003e-05
4.26003e-05
4.26003e-05
4.26003e-05
)
;
    }
    lowerWall
    {
        type            nutkWallFunction;
        blending        stepwise;
        value           nonuniform List<scalar> 
62
(
8.66377e-06
8.03558e-06
8.5559e-06
8.71756e-06
8.761e-06
8.77212e-06
8.77489e-06
8.77557e-06
8.77574e-06
8.77578e-06
8.77579e-06
8.77579e-06
8.77579e-06
8.77578e-06
8.77576e-06
8.77563e-06
8.77506e-06
8.7726e-06
8.76219e-06
8.71983e-06
8.55806e-06
7.99985e-06
6.51737e-06
6.51737e-06
3.35589e-05
3.52418e-05
3.59438e-05
3.63286e-05
3.6616e-05
3.71494e-05
3.94657e-05
3.98534e-05
3.7693e-05
3.7682e-05
3.97793e-05
6.66481e-06
3.91262e-05
4.10433e-05
4.1801e-05
4.22088e-05
4.25199e-05
4.31113e-05
4.55413e-05
6.66481e-06
8.11201e-06
8.6104e-06
8.73864e-06
8.76794e-06
8.77418e-06
8.77546e-06
8.77572e-06
8.77577e-06
8.77577e-06
8.77576e-06
8.77569e-06
8.77537e-06
8.77389e-06
8.76708e-06
8.7367e-06
8.60804e-06
8.1448e-06
9.02246e-06
)
;
    }
    atmosphere
    {
        type            calculated;
        value           nonuniform List<scalar> 
46
(
0.000292823
0.00199527
0.00428297
0.00630829
0.0076703
0.0084125
0.00875518
0.00889429
0.00894545
0.00896289
0.00896848
0.0089702
0.0089707
0.00897084
0.00897088
0.00897089
0.0089709
0.0089709
0.00897089
0.00897087
0.00897083
0.00897072
0.00897049
0.0089702
0.00897003
0.00897002
0.00897014
0.00897049
0.00897074
0.00897085
0.00897089
0.0089709
0.00897089
0.00897086
0.00897072
0.00897018
0.0089681
0.0089606
0.00893497
0.0088538
0.00862079
0.00803455
0.00679925
0.00474048
0.00223546
0.000334551
)
;
    }
    defaultFaces
    {
        type            empty;
    }
}


// ************************************************************************* //
