/*--------------------------------*- C++ -*----------------------------------*\
| =========                 |                                                 |
| \\      /  F ield         | OpenFOAM: The Open Source CFD Toolbox           |
|  \\    /   O peration     | Version:  2406                                  |
|   \\  /    A nd           | Website:  www.openfoam.com                      |
|    \\/     M anipulation  |                                                 |
\*---------------------------------------------------------------------------*/
FoamFile
{
    version     2.0;
    format      ascii;
    arch        "LSB;label=32;scalar=64";
    class       surfaceScalarField;
    location    "0.05";
    object      phi;
}
// * * * * * * * * * * * * * * * * * * * * * * * * * * * * * * * * * * * * * //

dimensions      [0 3 -1 0 0 0 0];

oriented        oriented;

internalField   nonuniform List<scalar> 
4432
(
-5.16135e-306
-4.39283e-306
-1.30428e-305
-2.19462e-305
-2.79789e-305
-4.56224e-305
-5.64007e-305
-8.32472e-305
-1.08556e-304
-1.38678e-304
-1.99816e-304
-2.05352e-304
-3.51255e-304
-2.49833e-304
-5.87984e-304
-1.76489e-304
-9.31586e-304
2.33566e-304
-1.36652e-303
1.44517e-303
-1.56613e-303
4.46275e-303
-1.56766e-304
1.19198e-302
2.59944e-303
3.08544e-302
-8.05783e-304
9.04029e-304
-1.3489e-304
-3.72661e-304
-2.55676e-305
-1.41538e-304
-5.68805e-306
-3.80646e-305
-1.41874e-306
-8.76522e-306
-3.55436e-307
-1.7673e-306
-8.23352e-308
-2.81137e-307
-1.58016e-308
-1.2794e-308
-1.96565e-309
1.05921e-308
2.22724e-309
-1.81177e-305
-8.77093e-306
-4.51425e-305
-4.37644e-305
-9.50036e-305
-8.96853e-305
-1.88001e-304
-1.60022e-304
-3.55322e-304
-2.59131e-304
-6.42559e-304
-3.69341e-304
-1.11013e-303
-4.17119e-304
-1.82675e-303
-2.08876e-304
-2.84738e-303
6.88148e-304
-4.1513e-303
3.14789e-303
-5.3089e-303
8.92102e-303
-8.51994e-303
2.18803e-302
4.23788e-304
4.49631e-302
-1.99367e-303
1.71937e-303
-5.1938e-304
-4.34976e-304
-1.40286e-304
-2.21021e-304
-3.81927e-305
-6.74715e-305
-1.03915e-305
-1.63557e-305
-2.73742e-306
-3.1808e-306
-6.68066e-307
-3.67465e-307
-1.37987e-307
7.64486e-308
-1.93061e-308
6.08579e-308
1.15958e-308
-3.46815e-305
-1.41658e-305
-8.57564e-305
-6.98483e-305
-1.77868e-304
-1.40173e-304
-3.46721e-304
-2.43559e-304
-6.46518e-304
-3.82844e-304
-1.15581e-303
-5.24816e-304
-1.97903e-303
-5.52593e-304
-3.23732e-303
-1.71176e-304
-5.04021e-303
1.25125e-303
-7.42507e-303
4.95312e-303
-9.98944e-303
1.32422e-302
-1.7872e-302
3.04435e-302
-2.22465e-303
5.67715e-302
-2.93397e-303
2.70822e-303
-9.26333e-304
-3.43719e-304
-2.94386e-304
-2.51139e-304
-9.17463e-305
-8.54701e-305
-2.75666e-305
-2.12683e-305
-7.85669e-306
-3.70533e-306
-2.06398e-306
-5.82608e-308
-4.63801e-307
3.50694e-307
-7.31218e-308
1.83389e-307
3.45441e-308
-5.84382e-305
-2.1004e-305
-1.42842e-304
-1.03191e-304
-2.90818e-304
-2.01918e-304
-5.56082e-304
-3.40419e-304
-1.01855e-303
-5.16957e-304
-1.79299e-303
-6.7853e-304
-3.03143e-303
-6.57968e-304
-4.91283e-303
-5.8857e-305
-7.61042e-303
1.94214e-303
-1.12307e-302
6.89612e-303
-1.53822e-302
1.75457e-302
-2.77777e-302
3.83828e-302
-5.0743e-303
6.77162e-302
-3.86364e-303
3.91867e-303
-1.32647e-303
-1.50492e-304
-4.62263e-304
-2.33933e-304
-1.57627e-304
-8.78639e-305
-5.11822e-305
-2.14737e-305
-1.5624e-305
-2.65561e-306
-4.3903e-306
8.62957e-307
-1.06415e-306
8.83448e-307
-1.85102e-307
4.06773e-307
7.70435e-308
-9.39104e-305
-2.97981e-305
-2.26403e-304
-1.46392e-304
-4.51455e-304
-2.78834e-304
-8.44209e-304
-4.549e-304
-1.51394e-303
-6.65308e-304
-2.61468e-303
-8.3079e-304
-4.34895e-303
-7.28628e-304
-6.95543e-303
1.43851e-304
-1.06707e-302
2.7866e-303
-1.56602e-302
9.02795e-303
-2.14778e-302
2.19646e-302
-3.82131e-302
4.63224e-302
-8.18879e-303
7.96096e-302
-4.89751e-303
5.28756e-303
-1.73501e-303
1.03422e-304
-6.40147e-304
-1.81098e-304
-2.32784e-304
-7.50864e-305
-8.04323e-305
-1.61267e-305
-2.60559e-305
4.18921e-307
-7.78168e-306
2.56336e-306
-2.02056e-306
1.72967e-306
-3.81323e-307
7.54165e-307
1.4892e-307
-1.47116e-304
-4.11265e-305
-3.49645e-304
-2.01695e-304
-6.82316e-304
-3.7365e-304
-1.24623e-303
-5.89148e-304
-2.1839e-303
-8.26868e-304
-3.69204e-303
-9.75438e-304
-6.02496e-303
-7.4794e-304
-9.4807e-303
4.65138e-304
-1.43563e-302
3.83229e-303
-2.08632e-302
1.14169e-302
-2.84561e-302
2.66283e-302
-4.94512e-302
5.46302e-302
-1.17558e-302
9.35648e-302
-6.07855e-303
6.7773e-303
-2.17503e-303
3.97681e-304
-8.34406e-304
-1.04752e-304
-3.18925e-304
-5.04905e-305
-1.1614e-304
-5.73363e-306
-3.96813e-305
5.53297e-306
-1.25427e-305
5.06964e-306
-3.47892e-306
2.87819e-306
-7.09101e-307
1.21352e-306
2.63504e-307
-2.26181e-304
-5.62123e-305
-5.3006e-304
-2.70433e-304
-1.01267e-303
-4.87947e-304
-1.80614e-303
-7.42489e-304
-3.09095e-303
-9.96383e-304
-5.10901e-303
-1.09775e-303
-8.16708e-303
-6.88957e-304
-1.26202e-302
9.51426e-304
-1.88224e-302
5.1463e-303
-2.70326e-302
1.41596e-302
-3.66197e-302
3.16575e-302
-6.19702e-302
6.33534e-302
-1.60414e-302
1.09104e-301
-7.4041e-303
8.30125e-303
-2.67228e-303
7.15316e-304
-1.0586e-303
-1.42027e-305
-4.22416e-304
-1.85051e-305
-1.61336e-304
8.03181e-306
-5.79509e-305
1.20775e-305
-1.93387e-305
8.10824e-306
-5.72951e-306
4.14851e-306
-1.27213e-306
1.64873e-306
3.5544e-307
-3.4173e-304
-7.61562e-305
-7.90503e-304
-3.49992e-304
-1.47976e-303
-6.16747e-304
-2.5788e-303
-9.06122e-304
-4.31044e-303
-1.15853e-303
-6.96428e-303
-1.17463e-303
-1.0898e-302
-5.20325e-304
-1.65193e-302
1.63965e-303
-2.42365e-302
6.76576e-303
-3.43645e-302
1.72863e-302
-4.6161e-302
3.70331e-302
-7.64402e-302
7.19922e-302
-2.08359e-302
1.22313e-301
-8.84592e-303
9.69902e-303
-3.24677e-303
1.03027e-303
-1.32629e-303
8.36386e-305
-5.50568e-304
1.72377e-305
-2.19726e-304
2.32432e-305
-8.26624e-305
1.90325e-305
-2.89863e-305
1.11092e-305
-9.15036e-306
5.20958e-306
-2.27324e-306
1.88483e-306
3.7522e-307
-2.30135e-318
-4.20436e-317
7.60318e-320
-1.15757e-315
3.04395e-318
-7.32169e-316
7.43505e-319
-1.12843e-316
-1.9313e-319
6.93767e-320
-1.00735e-319
2.80474e-318
-2.14968e-320
6.09415e-319
-3.13238e-321
8.55277e-320
-3.60668e-322
9.4663e-321
-3.45846e-323
8.89318e-322
0
7.41098e-323
0
4.94066e-324
0
0
0
0
0
0
0
0
0
0
0
0
0
-3.48786e-317
-5.31185e-316
-3.29399e-317
-9.69934e-315
2.35248e-318
-5.43601e-315
-9.27216e-318
-8.33915e-316
-7.42456e-318
3.30448e-318
-2.29982e-318
2.38171e-317
-4.55415e-319
5.49904e-318
-6.76277e-320
8.26908e-319
-8.15702e-321
9.87983e-320
-8.34971e-322
1.00444e-320
-7.41098e-323
8.99199e-322
-4.94066e-324
6.91692e-323
0
4.94066e-324
0
0
0
0
0
0
0
0
0
0
0
-3.28483e-316
-5.83814e-315
-5.57479e-316
-6.28957e-314
-3.17817e-316
-2.92777e-314
-2.12551e-316
-4.16572e-315
-8.71868e-317
8.09537e-317
-2.24929e-317
1.4216e-316
-4.22731e-318
3.32024e-317
-6.30858e-319
5.19775e-318
-7.85762e-320
6.52567e-319
-8.43864e-321
7.02561e-320
-7.95446e-322
6.68965e-321
-6.42285e-323
5.68175e-322
-4.94066e-324
4.44659e-323
0
4.94066e-324
0
0
0
0
0
0
0
0
0
-3.24992e-315
-6.22098e-314
-6.11241e-315
-3.48555e-313
-3.94103e-315
-1.32412e-313
-1.98117e-315
-1.67369e-314
-6.44185e-316
6.94939e-316
-1.4938e-316
6.81891e-316
-2.69388e-317
1.57166e-316
-4.00399e-318
2.51688e-317
-5.09016e-319
3.27775e-318
-5.66298e-320
3.68835e-319
-5.59776e-321
3.69363e-320
-4.99006e-322
3.33988e-321
-3.95253e-323
2.71736e-322
0
1.97626e-323
0
0
0
0
0
0
0
0
0
-2.66687e-314
-6.989e-313
-4.78356e-314
-1.75898e-312
-3.0074e-314
-5.27068e-313
-1.26839e-314
-5.75558e-314
-3.63172e-315
3.73057e-315
-7.8282e-316
2.70816e-315
-1.36937e-316
6.17147e-316
-2.02805e-317
1.00319e-316
-2.61739e-318
1.34479e-317
-2.99942e-319
1.57047e-318
-3.08692e-320
1.64163e-319
-2.87546e-321
1.55828e-320
-2.42092e-322
1.35374e-321
-1.97626e-323
1.08694e-322
0
4.94066e-324
0
0
0
0
0
0
0
-1.87732e-313
-8.30267e-312
-3.06595e-313
-8.48158e-312
-1.80737e-313
-1.88933e-312
-6.52887e-314
-1.65907e-313
-1.69492e-314
1.81411e-314
-3.46744e-315
9.66285e-315
-5.93095e-316
2.14093e-315
-8.7868e-317
3.50756e-316
-1.15184e-317
4.80277e-317
-1.35624e-318
5.77936e-318
-1.4483e-319
6.2612e-319
-1.41006e-320
6.18867e-320
-1.25493e-321
5.62741e-321
-1.03754e-322
4.74303e-322
-9.88131e-324
3.45846e-323
0
4.94066e-324
0
0
0
0
0
-1.96583e-312
-9.9876e-311
-2.19e-312
-3.60117e-311
-9.94333e-313
-6.00953e-312
-3.03534e-313
-4.28735e-313
-7.14625e-314
6.67404e-314
-1.3955e-314
3.01679e-314
-2.34728e-315
6.55304e-315
-3.48739e-316
1.08384e-315
-4.65251e-317
1.51674e-316
-5.63269e-318
1.87673e-317
-6.23545e-319
2.10028e-318
-6.34084e-320
2.1522e-319
-5.93373e-321
2.03555e-320
-5.08888e-322
1.79346e-321
-3.95253e-323
1.4822e-322
-4.94066e-324
9.88131e-324
0
0
0
0
0
-2.38498e-311
-5.59841e-310
-1.41638e-311
-1.10202e-310
-4.674e-312
-1.51234e-311
-1.21274e-312
-8.86122e-313
-2.63824e-313
1.89795e-313
-4.96754e-314
7.74103e-314
-8.28476e-315
1.67116e-314
-1.24118e-315
2.79668e-315
-1.68936e-316
3.9955e-316
-2.10553e-317
5.07063e-317
-2.41532e-318
5.83569e-318
-2.55946e-319
6.16441e-319
-2.50985e-320
6.02266e-320
-2.2727e-321
5.47919e-321
-1.87745e-322
4.69362e-322
-1.4822e-323
3.45846e-323
0
0
0
0
0
-1.23664e-303
-1.17903e-304
-2.82138e-303
-4.94063e-304
-5.1615e-303
-8.43392e-304
-8.75654e-303
-1.17512e-303
-1.42336e-302
-1.38057e-303
-2.23703e-302
-1.16982e-303
-3.40918e-302
3.25921e-305
-5.04273e-302
3.24381e-303
-7.24144e-302
1.01295e-302
-1.00945e-301
2.32697e-302
-1.31996e-301
4.65184e-302
-2.19131e-301
8.53402e-302
-5.98528e-302
1.37018e-301
-2.40884e-302
1.16479e-302
-9.04485e-303
1.51951e-303
-3.83453e-303
2.56213e-304
-1.66655e-303
8.49998e-305
-6.99078e-304
5.15688e-305
-2.76637e-304
3.07136e-305
-1.02005e-304
1.52703e-305
-3.41898e-305
6.17445e-306
-9.67109e-306
1.85317e-306
2.96842e-307
-1.55419e-306
-1.93184e-303
-1.50349e-304
-4.37905e-303
-5.92041e-304
-7.91138e-303
-9.90985e-304
-1.32178e-302
-1.33284e-303
-2.11344e-302
-1.46997e-303
-3.26658e-302
-1.05006e-303
-4.89751e-302
5.88473e-304
-7.13385e-302
4.55805e-303
-1.01061e-301
1.25895e-302
-1.39348e-301
2.72157e-302
-1.8099e-301
5.19693e-302
-2.9446e-301
9.13001e-302
-8.79105e-302
1.40265e-301
-3.19079e-302
1.2357e-302
-1.20561e-302
1.74006e-303
-5.18261e-303
3.5213e-304
-2.29872e-303
1.2866e-304
-9.87015e-304
7.02167e-305
-3.99853e-304
3.75525e-305
-1.50917e-304
1.70687e-305
-5.22576e-305
6.27229e-306
-1.59586e-305
1.68451e-306
2.17335e-307
-3.50261e-306
-2.59409e-303
-1.84547e-304
-5.85876e-303
-6.93531e-304
-1.0522e-302
-1.14254e-303
-1.74552e-302
-1.49701e-303
-2.76982e-302
-1.58163e-303
-4.24775e-302
-1.00613e-303
-6.31903e-302
9.35709e-304
-9.13501e-302
5.38929e-303
-1.28496e-301
1.40717e-302
-1.76059e-301
2.93758e-302
-2.27858e-301
5.44466e-302
-3.65302e-301
9.28605e-302
-1.14343e-301
1.38477e-301
-3.99346e-302
1.24615e-302
-1.51222e-302
1.8093e-303
-6.51859e-303
3.92926e-304
-2.90412e-303
1.51004e-304
-1.25346e-303
8.07321e-305
-5.10205e-304
4.16129e-305
-1.9347e-304
1.83044e-305
-6.77107e-305
6.58879e-306
-2.13618e-305
1.81087e-306
2.94303e-307
-5.19598e-306
-3.23208e-303
-2.40737e-304
-7.27138e-303
-8.66315e-304
-1.30016e-302
-1.40936e-303
-2.14703e-302
-1.81822e-303
-3.39124e-302
-1.89957e-303
-5.17674e-302
-1.24287e-303
-7.66541e-302
8.74141e-304
-1.10304e-301
5.59726e-303
-1.54456e-301
1.45948e-302
-2.10702e-301
3.01199e-302
-2.71782e-301
5.50083e-302
-4.32085e-301
9.23078e-302
-1.38504e-301
1.35434e-301
-4.79753e-302
1.2397e-302
-1.82216e-302
1.82668e-303
-7.8631e-303
4.09197e-304
-3.50503e-303
1.6181e-304
-1.51315e-303
8.655e-305
-6.15621e-304
4.42693e-305
-2.33264e-304
1.9466e-305
-8.18129e-305
7.17753e-306
-2.61299e-305
2.15987e-306
4.82594e-307
-6.58637e-306
-3.86196e-303
-3.50036e-304
-8.64192e-303
-1.20888e-303
-1.53819e-302
-1.95055e-303
-2.52999e-302
-2.50737e-303
-3.98207e-302
-2.67414e-303
-6.05892e-302
-2.03298e-303
-8.94375e-302
1.40029e-304
-1.28305e-301
4.97504e-303
-1.79115e-301
1.40955e-302
-2.4361e-301
2.96492e-302
-3.13446e-301
5.42913e-302
-4.96034e-301
9.08139e-302
-1.61128e-301
1.32575e-301
-5.60001e-302
1.23437e-302
-2.13482e-302
1.83867e-303
-9.22297e-303
4.18925e-304
-4.11104e-303
1.68332e-304
-1.77356e-303
9.0316e-305
-7.2063e-304
4.62177e-305
-2.72601e-304
2.04909e-305
-9.5558e-305
7.77731e-306
-3.06353e-305
2.51955e-306
6.67794e-307
-7.81688e-306
-4.51063e-303
-5.62275e-304
-1.00134e-302
-1.87558e-303
-1.77187e-302
-3.01304e-303
-2.90147e-302
-3.88791e-303
-4.55146e-302
-4.2864e-303
-6.90676e-302
-3.79058e-303
-1.01717e-301
-1.68417e-303
-1.45612e-301
3.14835e-303
-2.02866e-301
1.23e-302
-2.75387e-301
2.78692e-302
-3.53773e-301
5.24321e-302
-5.58481e-301
8.87032e-302
-1.83021e-301
1.30106e-301
-6.40533e-302
1.2331e-302
-2.45099e-302
1.85704e-303
-1.06023e-302
4.28765e-304
-4.72594e-303
1.73964e-304
-2.0376e-303
9.34124e-305
-8.27039e-304
4.78128e-305
-3.1244e-304
2.13244e-305
-1.09417e-304
8.24558e-306
-3.5102e-305
2.78396e-306
7.96284e-307
-8.98856e-306
-5.21872e-303
-9.57981e-304
-1.14486e-302
-3.11194e-303
-2.00922e-302
-4.98768e-303
-3.27133e-302
-6.4692e-303
-5.11203e-302
-7.33496e-303
-7.73714e-302
-7.17313e-303
-1.13728e-301
-5.28059e-303
-1.62554e-301
-5.52727e-304
-2.26172e-301
8.5998e-303
-3.06671e-301
2.42763e-302
-3.93628e-301
4.90634e-302
-6.2055e-301
8.56841e-302
-2.04845e-301
1.27641e-301
-7.21862e-302
1.23125e-302
-2.77175e-302
1.87422e-303
-1.20043e-302
4.37973e-304
-5.35128e-303
1.79105e-304
-2.30618e-303
9.61536e-305
-9.35339e-304
4.91647e-305
-3.53028e-304
2.19751e-305
-1.23529e-304
8.57047e-306
-3.96189e-305
2.94819e-306
8.6955e-307
-1.01515e-305
-6.04275e-303
-1.66495e-303
-1.3031e-302
-5.3031e-303
-2.26044e-302
-8.4835e-303
-3.65173e-302
-1.10427e-302
-5.67882e-302
-1.2748e-302
-8.56979e-302
-1.32055e-302
-1.25736e-301
-1.17335e-302
-1.79494e-301
-7.2348e-303
-2.49516e-301
1.90533e-303
-3.38097e-301
1.78467e-302
-4.33814e-301
4.32665e-302
-6.83241e-301
8.09629e-302
-2.2718e-301
1.24476e-301
-8.04402e-302
1.21954e-302
-3.09783e-302
1.86893e-303
-1.34301e-302
4.40448e-304
-5.98728e-303
1.81989e-304
-2.57931e-303
9.80682e-305
-1.0455e-303
5.01741e-305
-3.94334e-304
2.24479e-305
-1.37891e-304
8.78399e-306
-4.42043e-305
3.0433e-306
9.07545e-307
-1.13236e-305
-7.05506e-303
-2.88117e-303
-1.48617e-302
-9.03556e-303
-2.53729e-302
-1.44246e-302
-4.05612e-302
-1.87989e-302
-6.2684e-302
-2.19182e-302
-9.42651e-302
-2.34241e-302
-1.38039e-301
-2.2683e-302
-1.9684e-301
-1.86048e-302
-2.73443e-301
-9.5177e-303
-3.7037e-301
6.87591e-303
-4.75214e-301
3.34535e-302
-7.4764e-301
7.31798e-302
-2.50655e-301
1.19606e-301
-8.88588e-302
1.18308e-302
-3.42992e-302
1.80266e-303
-1.48804e-302
4.23731e-304
-6.63359e-303
1.7849e-304
-2.85668e-303
9.78671e-305
-1.15731e-303
5.04921e-305
-4.36256e-304
2.26832e-305
-1.52464e-304
8.90215e-306
-4.88519e-305
3.09444e-306
9.26468e-307
-1.25084e-305
-8.33915e-303
-4.90427e-303
-1.70447e-302
-1.51801e-302
-2.85091e-302
-2.41648e-302
-4.49702e-302
-3.14701e-302
-6.89676e-302
-3.68484e-302
-1.03302e-301
-4.0033e-302
-1.50975e-301
-4.04831e-302
-2.15078e-301
-3.71419e-302
-2.98632e-301
-2.82374e-302
-4.04394e-301
-1.1228e-302
-5.18994e-301
1.71412e-302
-8.15221e-301
6.01871e-302
-2.76141e-301
1.11515e-301
-9.75119e-302
1.09736e-302
-3.76933e-302
1.60722e-303
-1.63571e-302
3.64614e-304
-7.29028e-303
1.60575e-304
-3.13808e-303
9.29261e-305
-1.27063e-303
4.93485e-305
-4.78707e-304
2.24918e-305
-1.67211e-304
8.89649e-306
-5.35512e-305
3.10745e-306
9.33542e-307
-1.37047e-305
-9.9721e-303
-8.17457e-303
-1.96512e-302
-2.49931e-302
-3.20695e-302
-3.96375e-302
-4.98047e-302
-5.14804e-302
-7.57445e-302
-6.03105e-302
-1.1301e-301
-6.60428e-302
-1.64901e-301
-6.8349e-302
-2.34786e-301
-6.62511e-302
-3.25952e-301
-5.78471e-302
-4.41405e-301
-4.01916e-302
-5.66815e-301
-9.37407e-303
-8.88145e-301
3.86374e-302
-3.0495e-301
9.77216e-302
-1.06523e-301
9.20066e-303
-4.11877e-302
1.16055e-303
-1.78665e-302
2.20402e-304
-7.95874e-303
1.13068e-304
-3.42375e-303
7.81416e-305
-1.38545e-303
4.51759e-305
-5.21657e-304
2.14433e-305
-1.82115e-304
8.6648e-306
-5.82954e-305
3.06356e-306
9.27396e-307
-1.49112e-305
-1.19888e-302
-1.33362e-302
-2.2641e-302
-4.0269e-302
-3.59537e-302
-6.35267e-302
-5.49527e-302
-8.21276e-302
-8.29576e-302
-9.5974e-302
-1.23464e-301
-1.05388e-301
-1.80108e-301
-1.10441e-301
-2.56575e-301
-1.1037e-301
-3.56446e-301
-1.03112e-301
-4.83005e-301
-8.51239e-302
-6.20978e-301
-5.1422e-302
-9.69529e-301
3.36946e-303
-3.39015e-301
7.39534e-302
-1.16094e-301
5.76787e-303
-4.48298e-302
2.45518e-304
-1.94206e-302
-8.56006e-305
-8.64232e-303
8.36302e-306
-3.7146e-303
4.40682e-305
-1.50199e-303
3.49889e-305
-5.65151e-304
1.86717e-305
-1.97179e-304
7.97631e-306
-6.30836e-305
2.90641e-306
8.96202e-307
-1.6127e-305
-1.43035e-302
-2.13515e-302
-2.57147e-302
-6.3552e-302
-3.97204e-302
-9.95193e-302
-5.99386e-302
-1.27751e-301
-9.02032e-302
-1.48529e-301
-1.34427e-301
-1.62951e-301
-1.96628e-301
-1.71874e-301
-2.80876e-301
-1.74957e-301
-3.91124e-301
-1.7002e-301
-5.3101e-301
-1.52686e-301
-6.84348e-301
-1.1637e-301
-1.0635e-300
-5.34063e-302
-3.80963e-301
3.28143e-302
-1.26503e-301
-6.26249e-304
-4.86825e-302
-1.51365e-303
-2.10349e-302
-6.84411e-304
-9.34541e-303
-2.00274e-304
-4.01188e-303
-2.52951e-305
-1.62059e-303
1.36394e-305
-6.0926e-304
1.26211e-305
-2.12413e-304
6.38642e-306
-6.79134e-305
2.51549e-306
8.10566e-307
-1.73506e-305
-1.65612e-302
-3.37219e-302
-2.80332e-302
-9.85221e-302
-4.22791e-302
-1.52622e-301
-6.36343e-302
-1.93953e-301
-9.64562e-302
-2.2371e-301
-1.45058e-301
-2.44513e-301
-2.13886e-301
-2.58568e-301
-3.07515e-301
-2.66346e-301
-4.30455e-301
-2.65646e-301
-5.8687e-301
-2.51079e-301
-7.59803e-301
-2.13889e-301
-1.17473e-300
-1.42961e-301
-4.33821e-301
-3.81164e-302
-1.3803e-301
-1.21883e-302
-5.27979e-302
-4.72999e-303
-2.27196e-302
-1.77961e-303
-1.00704e-302
-5.82451e-304
-4.3161e-303
-1.53338e-304
-1.74123e-303
-2.65243e-305
-6.5389e-304
8.55744e-307
-2.27747e-304
3.14335e-306
-7.27514e-305
1.66821e-306
6.10844e-307
-1.85714e-305
-1.78005e-302
-5.30107e-302
-2.76898e-302
-1.50645e-301
-4.1395e-302
-2.2967e-301
-6.38741e-302
-2.87752e-301
-9.97497e-302
-3.28266e-301
-1.53562e-301
-3.56519e-301
-2.30221e-301
-3.76963e-301
-3.35037e-301
-3.91381e-301
-4.73429e-301
-3.97793e-301
-6.50486e-301
-3.89713e-301
-8.48824e-301
-3.55802e-301
-1.30683e-300
-2.80489e-301
-5.00082e-301
-1.58215e-301
-1.50762e-301
-3.23963e-302
-5.71604e-302
-1.02846e-302
-2.44641e-302
-3.63118e-303
-1.08131e-302
-1.21864e-303
-4.62498e-303
-3.66257e-304
-1.86252e-303
-9.45222e-305
-6.9826e-304
-1.98068e-305
-2.4281e-304
-2.85026e-306
-7.74483e-305
7.65701e-309
1.93666e-307
-1.97448e-305
-1.56278e-302
-8.40127e-302
-2.06585e-302
-2.28391e-301
-3.29474e-302
-3.39948e-301
-5.70554e-302
-4.17718e-301
-9.69446e-302
-4.69681e-301
-1.56915e-301
-5.05703e-301
-2.42392e-301
-5.33536e-301
-3.59846e-301
-5.56914e-301
-5.16252e-301
-5.74394e-301
-7.18321e-301
-5.78493e-301
-9.48975e-301
-5.55186e-301
-1.4592e-300
-4.84275e-301
-5.79615e-301
-3.54184e-301
-1.64256e-301
-6.57853e-302
-6.16454e-302
-1.90534e-302
-2.62364e-302
-6.41655e-303
-1.15602e-302
-2.14867e-303
-4.92967e-303
-6.77962e-304
-1.97896e-303
-1.97055e-304
-7.39515e-304
-5.25084e-305
-2.56345e-304
-1.28795e-305
-8.15296e-305
-2.9239e-306
-5.81122e-307
-2.07352e-305
-3.75401e-303
-1.36267e-301
1.39952e-303
-3.45049e-301
-9.90909e-303
-4.95734e-301
-3.79906e-302
-5.93607e-301
-8.3892e-302
-6.55622e-301
-1.50933e-301
-6.98459e-301
-2.45304e-301
-7.34251e-301
-3.75444e-301
-7.69199e-301
-5.50937e-301
-8.02783e-301
-7.81202e-301
-8.26758e-301
-1.05052e-300
-8.24585e-301
-1.62229e-300
-7.72533e-301
-6.66833e-301
-6.55881e-301
-1.77348e-301
-1.14739e-301
-6.61496e-302
-3.06701e-302
-2.80111e-302
-9.82498e-303
-1.22755e-302
-3.26673e-303
-5.19961e-303
-1.06536e-303
-2.07246e-303
-3.32154e-304
-7.69106e-304
-9.83206e-305
-2.64905e-304
-2.76796e-305
-8.37826e-305
-7.42207e-306
-1.80807e-306
-2.12103e-305
3.63513e-302
-2.01455e-301
5.57589e-302
-4.94708e-301
3.86983e-302
-6.85809e-301
-5.69223e-304
-7.98956e-301
-5.64494e-302
-8.66393e-301
-1.30992e-301
-9.13537e-301
-2.32227e-301
-9.57325e-301
-3.72097e-301
-1.00669e-300
-5.64453e-301
-1.06242e-300
-8.22871e-301
-1.11581e-300
-1.13374e-300
-1.1476e-300
-1.77334e-300
-1.12662e-300
-7.49134e-301
-1.08182e-300
-1.89196e-301
-1.53543e-301
-7.09603e-302
-3.84784e-302
-2.96395e-302
-1.22945e-302
-1.27731e-302
-4.21435e-303
-5.32149e-303
-1.44438e-303
-2.08987e-303
-4.78513e-304
-7.65745e-304
-1.51203e-304
-2.60919e-304
-4.53902e-305
-8.17879e-305
-1.29062e-305
-3.32207e-306
-2.055e-305
1.63639e-301
-5.9344e-301
1.7537e-301
-9.85107e-301
1.25286e-301
-1.20798e-300
5.79724e-302
-1.32857e-300
-1.39455e-302
-1.39651e-300
-9.43694e-302
-1.44587e-300
-1.96148e-301
-1.4981e-300
-3.37363e-301
-1.56478e-300
-5.38824e-301
-1.64826e-300
-8.20578e-301
-1.73971e-300
-1.16613e-300
-1.81704e-300
-1.87891e-300
-1.85064e-300
-8.18344e-301
-8.47679e-301
-2.06332e-301
-1.31007e-301
-7.26652e-302
-3.634e-302
-2.91827e-302
-1.26013e-302
-1.22051e-302
-4.62064e-303
-4.97011e-303
-1.67432e-303
-1.91731e-303
-5.81006e-304
-6.92575e-304
-1.90778e-304
-2.33269e-304
-5.90622e-305
-7.24273e-305
-1.71951e-305
-4.51239e-306
-1.80318e-305
5.21394e-301
5.54076e-302
3.86047e-301
-2.27538e-301
2.42254e-301
-3.7393e-301
1.24821e-301
-4.47714e-301
3.41553e-302
-4.87305e-301
-4.48644e-302
-5.15603e-301
-1.34418e-301
-5.46544e-301
-2.61597e-301
-5.87513e-301
-4.57869e-301
-6.40178e-301
-7.54991e-301
-6.99355e-301
-1.17069e-300
-7.53087e-301
-8.92828e-301
-7.96718e-301
-2.63733e-301
-2.59589e-301
-1.07669e-301
-7.88836e-302
-4.67928e-302
-2.84136e-302
-2.08594e-302
-1.10117e-302
-9.10392e-303
-4.28875e-303
-3.77446e-303
-1.61424e-303
-1.46532e-303
-5.75431e-304
-5.29876e-304
-1.9277e-304
-1.78208e-304
-6.05613e-305
-5.51649e-305
-1.78123e-305
-4.70515e-306
-1.36379e-305
2.41512e-302
-6.53396e-302
1.75374e-302
-1.33366e-301
1.49811e-302
-1.57975e-301
9.50918e-303
-1.69525e-301
1.57188e-303
-1.75547e-301
-8.28439e-303
-1.79231e-301
-2.18075e-302
-1.82479e-301
-4.27035e-302
-1.86233e-301
-7.57946e-302
-1.9045e-301
-1.23575e-301
-1.94191e-301
-1.60578e-301
-1.97008e-301
-1.34662e-301
-2.0726e-301
-7.94979e-302
-1.07789e-301
-4.5988e-302
-4.60876e-302
-2.43126e-302
-1.95391e-302
-1.20403e-302
-8.18393e-303
-5.55393e-303
-3.31697e-303
-2.37197e-303
-1.27729e-303
-9.35898e-304
-4.62357e-304
-3.41441e-304
-1.56605e-304
-1.15348e-304
-4.95867e-305
-3.57473e-305
-1.46587e-305
-3.87677e-306
-8.78186e-306
-7.66538e-303
-1.23788e-302
-7.17797e-303
-4.35053e-302
-4.22466e-303
-5.93419e-302
-1.93789e-303
-6.59758e-302
-1.59851e-303
-6.85943e-302
-3.02936e-303
-6.97386e-302
-6.2503e-303
-7.05e-302
-1.18087e-302
-7.12763e-302
-2.04468e-302
-7.21131e-302
-3.17773e-302
-7.30135e-302
-3.9261e-302
-7.44475e-302
-3.67313e-302
-7.35953e-302
-2.84446e-302
-4.70731e-302
-1.94535e-302
-2.44396e-302
-1.15424e-302
-1.16102e-302
-6.12543e-303
-5.16707e-303
-2.94172e-303
-2.16005e-303
-1.28664e-303
-8.45599e-304
-5.14999e-304
-3.09034e-304
-1.8951e-304
-1.05303e-304
-6.43305e-305
-3.34679e-305
-1.99649e-305
-9.91091e-306
-2.61453e-306
-4.86608e-306
-3.96727e-303
-2.38878e-303
-4.81891e-303
-1.38468e-302
-3.93904e-303
-2.28902e-302
-2.43781e-303
-2.74663e-302
-1.51865e-303
-2.93919e-302
-1.47009e-303
-3.01144e-302
-2.29149e-303
-3.04119e-302
-4.0273e-303
-3.06091e-302
-6.72672e-303
-3.08053e-302
-1.0033e-302
-3.10426e-302
-1.24086e-302
-3.12624e-302
-1.26339e-302
-2.975e-302
-1.09779e-302
-2.10415e-302
-8.13303e-303
-1.21106e-302
-5.13218e-303
-6.15824e-303
-2.83498e-303
-2.85117e-303
-1.39587e-303
-1.2173e-303
-6.19904e-304
-4.81588e-304
-2.50428e-304
-1.76883e-304
-9.2648e-305
-6.04011e-305
-3.15291e-305
-1.92026e-305
-9.78078e-306
-5.67877e-306
-1.48933e-306
-2.35852e-306
-1.36689e-303
-5.32383e-304
-2.00751e-303
-4.35319e-303
-1.94531e-303
-8.70992e-303
-1.40153e-303
-1.14126e-302
-8.97793e-304
-1.27205e-302
-7.06113e-304
-1.32451e-302
-8.82335e-304
-1.34332e-302
-1.42176e-303
-1.35127e-302
-2.29505e-303
-1.35696e-302
-3.36286e-303
-1.3614e-302
-4.26391e-303
-1.35061e-302
-4.63057e-303
-1.24875e-302
-4.27198e-303
-9.19273e-303
-3.2942e-303
-5.58202e-303
-2.14425e-303
-2.95237e-303
-1.2098e-303
-1.40079e-303
-6.03602e-304
-6.05977e-304
-2.70127e-304
-2.41126e-304
-1.09567e-304
-8.86977e-305
-4.05931e-305
-3.02573e-305
-1.3805e-305
-9.5933e-306
-4.26921e-306
-2.8252e-306
-7.344e-307
-1.01532e-306
-4.20659e-304
-1.30322e-304
-6.96974e-304
-1.32826e-303
-7.56759e-304
-3.15498e-303
-6.11656e-304
-4.51449e-303
-4.15104e-304
-5.26279e-303
-3.04339e-304
-5.59284e-303
-3.2726e-304
-5.71419e-303
-4.86142e-304
-5.75579e-303
-7.66305e-304
-5.77139e-303
-1.12744e-303
-5.75918e-303
-1.48036e-303
-5.62919e-303
-1.68648e-303
-5.09203e-303
-1.61073e-303
-3.80991e-303
-1.26909e-303
-2.37971e-303
-8.39279e-304
-1.28797e-303
-4.78392e-304
-6.2025e-304
-2.40019e-304
-2.70373e-304
-1.07653e-304
-1.07839e-304
-4.36541e-305
-3.96211e-305
-1.61376e-305
-1.34678e-305
-5.46716e-306
-4.24782e-306
-1.68081e-306
-1.24265e-306
-3.19312e-307
-3.93036e-307
-1.2016e-304
-3.32479e-305
-2.1401e-304
-3.92403e-304
-2.50707e-304
-1.07796e-303
-2.21389e-304
-1.67402e-303
-1.59159e-304
-2.03941e-303
-1.14531e-304
-2.21442e-303
-1.12076e-304
-2.28221e-303
-1.56351e-304
-2.30399e-303
-2.44306e-304
-2.30719e-303
-3.66908e-304
-2.28925e-303
-5.00104e-304
-2.20803e-303
-5.90062e-304
-1.96352e-303
-5.76034e-304
-1.47685e-303
-4.59868e-304
-9.36519e-304
-3.06716e-304
-5.13859e-304
-1.75603e-304
-2.49682e-304
-8.82055e-305
-1.09274e-304
-3.95049e-305
-4.35777e-305
-1.59634e-305
-1.5958e-305
-5.87077e-306
-5.39405e-306
-1.97587e-306
-1.68892e-306
-6.02351e-307
-4.89723e-307
-1.24106e-307
-1.38113e-307
-3.22877e-305
-8.49566e-306
-5.95967e-305
-1.11628e-304
-7.30314e-305
-3.46206e-304
-6.894e-305
-5.78966e-304
-5.22033e-305
-7.34993e-304
-3.77125e-305
-8.149e-304
-3.49841e-305
-8.4738e-304
-4.69605e-305
-8.57649e-304
-7.39248e-305
-8.5776e-304
-1.14503e-304
-8.4642e-304
-1.61615e-304
-8.07113e-304
-1.95566e-304
-7.08051e-304
-1.93673e-304
-5.32765e-304
-1.55924e-304
-3.40577e-304
-1.04486e-304
-1.88391e-304
-5.99061e-305
-9.2009e-305
-3.00474e-305
-4.03242e-305
-1.34056e-305
-1.60472e-305
-5.38555e-306
-5.84718e-306
-1.96588e-306
-1.96211e-306
-6.55789e-307
-6.08788e-307
-1.97804e-307
-1.74646e-307
-4.35617e-308
-4.43667e-308
-8.20621e-306
-2.12432e-306
-1.52541e-305
-3.04101e-305
-1.89886e-305
-1.04461e-304
-1.87985e-305
-1.8674e-304
-1.49166e-305
-2.46196e-304
-1.0962e-305
-2.78351e-304
-9.95841e-306
-2.91953e-304
-1.32122e-305
-2.9625e-304
-2.12689e-305
-2.95936e-304
-3.41272e-305
-2.90552e-304
-4.96131e-305
-2.74391e-304
-6.1086e-305
-2.38073e-304
-6.10415e-305
-1.78798e-304
-4.93999e-305
-1.14747e-304
-3.31835e-305
-6.37568e-305
-1.90171e-305
-3.12123e-305
-9.5086e-306
-1.36703e-305
-4.21898e-306
-5.42001e-306
-1.68223e-306
-1.96224e-306
-6.08406e-307
-6.52739e-307
-2.00786e-307
-2.00386e-307
-5.98106e-308
-5.67809e-308
-1.3915e-308
-1.30962e-308
-1.97891e-306
-5.12256e-307
-3.61673e-306
-7.89473e-306
-4.42893e-306
-2.96201e-305
-4.51165e-306
-5.62549e-305
-3.74219e-306
-7.67801e-305
-2.83201e-306
-8.83915e-305
-2.59723e-306
-9.34653e-305
-3.5033e-306
-9.50753e-305
-5.8372e-306
-9.48707e-305
-9.69782e-306
-9.27243e-305
-1.4425e-305
-8.68524e-305
-1.79562e-305
-7.46695e-305
-1.80325e-305
-5.59083e-305
-1.46327e-305
-3.59259e-305
-9.8351e-306
-1.99979e-305
-5.62573e-306
-9.79178e-306
-2.80052e-306
-4.27833e-306
-1.23423e-306
-1.68757e-306
-4.87788e-307
-6.06246e-307
-1.7454e-307
-1.99654e-307
-5.68984e-308
-6.05608e-308
-1.67119e-308
-1.6925e-308
-4.06867e-309
-3.56586e-309
-4.53513e-307
-1.18071e-307
-7.97765e-307
-1.94626e-306
-9.22749e-307
-7.89774e-306
-9.44836e-307
-1.58579e-305
-8.2094e-307
-2.23465e-305
-6.51077e-307
-2.61587e-305
-6.23762e-307
-2.78693e-305
-8.80719e-307
-2.8415e-305
-1.53145e-306
-2.83261e-305
-2.62413e-306
-2.75749e-305
-3.96688e-306
-2.56491e-305
-4.96707e-306
-2.188e-305
-4.99734e-306
-1.63222e-305
-4.05733e-306
-1.04821e-305
-2.72425e-306
-5.83345e-306
-1.55335e-306
-2.85153e-306
-7.68998e-307
-1.241e-306
-3.36259e-307
-4.86328e-307
-1.31574e-307
-1.73145e-307
-4.6522e-308
-5.63826e-308
-1.49604e-308
-1.68765e-308
-4.3265e-309
-4.64539e-309
-1.09381e-309
-8.98162e-310
-9.88444e-308
-2.58831e-308
-1.64022e-307
-4.54634e-307
-1.68748e-307
-1.98171e-306
-1.67032e-307
-4.1907e-306
-1.53873e-307
-6.08362e-306
-1.32184e-307
-7.23233e-306
-1.38477e-307
-7.75907e-306
-2.10829e-307
-7.92802e-306
-3.84163e-307
-7.8964e-306
-6.75065e-307
-7.66014e-306
-1.03095e-306
-7.08257e-306
-1.29349e-306
-6.00084e-306
-1.3006e-306
-4.45825e-306
-1.05459e-306
-2.85734e-306
-7.06322e-307
-1.58709e-306
-4.00968e-307
-7.73256e-307
-1.9719e-307
-3.34705e-307
-8.54621e-308
-1.30143e-307
-3.30729e-308
-4.58627e-308
-1.15422e-308
-1.47493e-308
-3.6569e-309
-4.3509e-309
-1.03994e-309
-1.17799e-309
-2.71287e-310
-2.09728e-310
-2.0493e-308
-5.38269e-309
-3.14365e-308
-1.00512e-307
-2.58374e-308
-4.68341e-307
-2.24025e-308
-1.03995e-306
-2.29206e-308
-1.55241e-306
-2.31289e-308
-1.87224e-306
-2.84805e-308
-2.02155e-306
-4.8167e-308
-2.06966e-306
-9.20052e-308
-2.05986e-306
-1.64807e-307
-1.99212e-306
-2.53056e-307
-1.83236e-306
-3.17251e-307
-1.54314e-306
-3.18226e-307
-1.14142e-306
-2.57307e-307
-7.29258e-307
-1.7167e-307
-4.03699e-307
-9.69087e-308
-1.95754e-307
-4.72917e-308
-8.41572e-308
-2.02936e-308
-3.24256e-308
-7.75883e-309
-1.12966e-308
-2.66965e-309
-3.5834e-309
-8.32331e-310
-1.04045e-309
-2.32456e-310
-2.76705e-310
-6.2237e-311
-4.54767e-311
-4.04132e-309
-1.06072e-309
-5.60742e-309
-2.10219e-308
-2.83261e-309
-1.04335e-307
-1.17346e-309
-2.42695e-307
-1.9699e-309
-3.71983e-307
-3.25523e-309
-4.54683e-307
-5.42904e-309
-4.93864e-307
-1.05075e-308
-5.06537e-307
-2.09894e-308
-5.03809e-307
-3.81189e-308
-4.85938e-307
-5.86426e-308
-4.4494e-307
-7.33223e-308
-3.72659e-307
-7.32726e-308
-2.74371e-307
-5.90045e-308
-1.74583e-307
-3.91666e-308
-9.61979e-308
-2.19606e-308
-4.63614e-308
-1.06226e-308
-1.97696e-308
-4.50837e-309
-7.53824e-309
-1.70107e-309
-2.59298e-309
-5.764e-310
-8.10277e-310
-1.76622e-310
-2.3126e-310
-4.83809e-311
-6.03296e-311
-1.32331e-311
-9.16836e-312
-7.57904e-310
-1.9799e-310
-9.27464e-310
-4.15896e-309
-2.4731e-311
-2.19275e-308
5.45898e-310