/*--------------------------------*- C++ -*----------------------------------*\
| =========                 |                                                 |
| \\      /  F ield         | OpenFOAM: The Open Source CFD Toolbox           |
|  \\    /   O peration     | Version:  2406                                  |
|   \\  /    A nd           | Website:  www.openfoam.com                      |
|    \\/     M anipulation  |                                                 |
\*---------------------------------------------------------------------------*/
FoamFile
{
    version     2.0;
    format      ascii;
    arch        "LSB;label=32;scalar=64";
    class       volVectorField;
    location    "0.05";
    object      U;
}
// * * * * * * * * * * * * * * * * * * * * * * * * * * * * * * * * * * * * * //

dimensions      [0 1 -1 0 0 0 0];

internalField   nonuniform List<vector> 
2268
(
(-2.70923e-302 -1.30325e-302 0)
(-9.07493e-302 -6.3207e-302 0)
(-2.07038e-301 -1.32304e-301 0)
(-4.31763e-301 -2.46414e-301 0)
(-8.55951e-301 -4.21364e-301 0)
(-1.62254e-300 -6.49354e-301 0)
(-2.93955e-300 -8.49042e-301 0)
(-5.08014e-300 -7.76038e-301 0)
(-8.34445e-300 1.7257e-301 0)
(-1.29251e-299 3.31e-300 0)
(-1.82746e-299 1.18056e-299 0)
(-1.8183e-299 3.49878e-299 0)
(3.62206e-299 1.24769e-298 0)
(-1.57972e-299 2.78452e-300 0)
(-2.60003e-300 -1.60364e-300 0)
(-4.79719e-301 -4.86727e-301 0)
(-1.04028e-301 -1.15193e-301 0)
(-2.58389e-302 -2.48575e-302 0)
(-6.5532e-303 -5.01241e-303 0)
(-1.56196e-303 -8.98314e-304 0)
(-3.17882e-304 -1.11731e-304 0)
(-4.28926e-305 -8.15833e-307 0)
(-1.98626e-306 1.07443e-306 0)
(-9.50971e-302 -3.43662e-302 0)
(-3.18557e-301 -1.73593e-301 0)
(-7.12117e-301 -3.59962e-301 0)
(-1.45696e-300 -6.51825e-301 0)
(-2.83538e-300 -1.07497e-300 0)
(-5.27717e-300 -1.5664e-300 0)
(-9.39343e-300 -1.84666e-300 0)
(-1.59525e-299 -1.12828e-300 0)
(-2.57551e-299 2.34761e-300 0)
(-3.9255e-299 1.22834e-299 0)
(-5.55256e-299 3.63475e-299 0)
(-6.86856e-299 9.36273e-299 0)
(-6.00875e-299 2.0815e-298 0)
(-3.61786e-299 6.96996e-300 0)
(-9.34002e-300 -2.41737e-300 0)
(-2.51822e-300 -1.04047e-300 0)
(-6.84724e-301 -2.95525e-301 0)
(-1.87274e-301 -6.97194e-302 0)
(-4.99795e-302 -1.40567e-302 0)
(-1.25199e-302 -2.13516e-303 0)
(-2.73309e-303 -2.63166e-305 0)
(-4.17353e-304 1.15105e-304 0)
(-2.34354e-305 2.29576e-305 0)
(-1.81103e-301 -6.02723e-302 0)
(-6.10728e-301 -2.98626e-301 0)
(-1.34722e-300 -6.07744e-301 0)
(-2.71377e-300 -1.07482e-300 0)
(-5.2024e-300 -1.72106e-300 0)
(-9.55861e-300 -2.4188e-300 0)
(-1.68304e-299 -2.65406e-300 0)
(-2.83538e-299 -1.12549e-300 0)
(-4.55592e-299 5.07752e-300 0)
(-6.95165e-299 2.16823e-299 0)
(-1.00009e-298 5.99105e-299 0)
(-1.33067e-298 1.42461e-298 0)
(-1.65395e-298 2.77003e-298 0)
(-5.09521e-299 1.15821e-299 0)
(-1.60349e-299 -2.27602e-300 0)
(-5.11468e-300 -1.34435e-300 0)
(-1.60661e-300 -4.32494e-301 0)
(-4.88101e-301 -1.06758e-301 0)
(-1.41288e-301 -2.02642e-302 0)
(-3.8092e-302 -1.8298e-303 0)
(-9.0319e-303 8.51199e-304 0)
(-1.5574e-303 5.41553e-304 0)
(-1.12086e-304 1.02161e-304 0)
(-3.05311e-301 -9.25766e-302 0)
(-1.02892e-300 -4.55038e-301 0)
(-2.23239e-300 -9.04729e-301 0)
(-4.40744e-300 -1.55319e-300 0)
(-8.28877e-300 -2.40984e-300 0)
(-1.49662e-299 -3.24397e-300 0)
(-2.59705e-299 -3.30842e-300 0)
(-4.32416e-299 -7.21509e-301 0)
(-6.8926e-299 8.42344e-300 0)
(-1.04832e-298 3.17619e-299 0)
(-1.51582e-298 8.29729e-299 0)
(-2.0662e-298 1.86025e-298 0)
(-2.74171e-298 3.35563e-298 0)
(-6.57745e-299 1.76396e-299 0)
(-2.24385e-299 -1.43271e-300 0)
(-7.847e-300 -1.36544e-300 0)
(-2.70718e-300 -4.8973e-301 0)
(-8.91683e-301 -1.22727e-301 0)
(-2.76887e-301 -1.97164e-302 0)
(-7.98329e-302 1.20117e-303 0)
(-2.04044e-302 2.9328e-303 0)
(-3.89189e-303 1.43722e-303 0)
(-3.34278e-304 2.7057e-304 0)
(-4.92285e-301 -1.34057e-301 0)
(-1.65184e-300 -6.58397e-301 0)
(-3.51729e-300 -1.27397e-300 0)
(-6.79012e-300 -2.11994e-300 0)
(-1.24845e-299 -3.16814e-300 0)
(-2.20811e-299 -4.07738e-300 0)
(-3.76162e-299 -3.79106e-300 0)
(-6.1677e-299 8.6442e-302 0)
(-9.71262e-299 1.25323e-299 0)
(-1.46503e-298 4.26474e-299 0)
(-2.11044e-298 1.06345e-298 0)
(-2.8833e-298 2.28126e-298 0)
(-3.86884e-298 3.95096e-298 0)
(-8.28864e-299 2.46429e-299 0)
(-2.89313e-299 -1.91095e-301 0)
(-1.06817e-299 -1.1587e-300 0)
(-3.93383e-300 -4.58323e-301 0)
(-1.38098e-300 -1.08974e-301 0)
(-4.55412e-301 -8.9377e-303 0)
(-1.39484e-301 8.11016e-303 0)
(-3.81834e-302 6.59962e-303 0)
(-7.94918e-303 2.95187e-303 0)
(-7.57019e-304 5.60731e-304 0)
(-7.74909e-301 -1.87466e-301 0)
(-2.58397e-300 -9.21176e-301 0)
(-5.39896e-300 -1.73464e-300 0)
(-1.01794e-299 -2.78843e-300 0)
(-1.82739e-299 -4.01055e-300 0)
(-3.15879e-299 -4.88686e-300 0)
(-5.27072e-299 -4.07085e-300 0)
(-8.4852e-299 1.46571e-300 0)
(-1.31607e-298 1.75352e-299 0)
(-1.96169e-298 5.47643e-299 0)
(-2.80171e-298 1.30653e-298 0)
(-3.8053e-298 2.71694e-298 0)
(-5.07433e-298 4.63893e-298 0)
(-1.0286e-298 3.24099e-299 0)
(-3.59228e-299 1.30703e-300 0)
(-1.37365e-299 -7.95347e-301 0)
(-5.31426e-300 -3.51861e-301 0)
(-1.96729e-300 -6.50326e-302 0)
(-6.84364e-301 1.34579e-302 0)
(-2.21622e-301 1.95486e-302 0)
(-6.47476e-302 1.20636e-302 0)
(-1.46815e-302 5.18558e-303 0)
(-1.50839e-303 1.04612e-303 0)
(-1.19733e-300 -2.5629e-301 0)
(-3.96673e-300 -1.25511e-300 0)
(-8.13535e-300 -2.29704e-300 0)
(-1.49854e-299 -3.56848e-300 0)
(-2.62515e-299 -4.91137e-300 0)
(-4.43197e-299 -5.63813e-300 0)
(-7.23269e-299 -3.99944e-300 0)
(-1.1414e-298 3.55314e-300 0)
(-1.73998e-298 2.38153e-299 0)
(-2.55747e-298 6.84238e-299 0)
(-3.61449e-298 1.56667e-298 0)
(-4.8764e-298 3.17766e-298 0)
(-6.42317e-298 5.45673e-298 0)
(-1.25257e-298 4.07172e-299 0)
(-4.379e-299 2.98396e-300 0)
(-1.72222e-299 -3.34924e-301 0)
(-6.94719e-300 -1.92932e-301 0)
(-2.69721e-300 3.16664e-303 0)
(-9.86334e-301 4.6243e-302 0)
(-3.36774e-301 3.51529e-302 0)
(-1.04759e-301 1.89921e-302 0)
(-2.60543e-302 7.90833e-303 0)
(-2.99036e-303 1.79709e-303 0)
(-1.81676e-300 -3.50242e-301 0)
(-5.98546e-300 -1.66287e-300 0)
(-1.20629e-299 -2.96791e-300 0)
(-2.17223e-299 -4.44299e-300 0)
(-3.71557e-299 -5.83962e-300 0)
(-6.12582e-299 -6.20657e-300 0)
(-9.77471e-299 -3.43442e-300 0)
(-1.5107e-298 6.71276e-300 0)
(-2.26091e-298 3.17134e-299 0)
(-3.27265e-298 8.43587e-299 0)
(-4.5733e-298 1.84919e-298 0)
(-6.14341e-298 3.65818e-298 0)
(-7.99418e-298 6.3156e-298 0)
(-1.49176e-298 4.88534e-299 0)
(-5.27905e-299 4.73431e-300 0)
(-2.13382e-299 1.81677e-301 0)
(-8.94302e-300 -6.73867e-303 0)
(-3.62729e-300 8.34967e-302 0)
(-1.38939e-300 8.40739e-302 0)
(-4.97923e-301 5.23352e-302 0)
(-1.63878e-301 2.57704e-302 0)
(-4.50386e-302 9.88147e-303 0)
(-6.86308e-303 2.03811e-303 0)
(-4.29267e-315 -1.71551e-314 0)
(-4.82506e-314 -7.13103e-313 0)
(4.99866e-314 -4.71498e-313 0)
(1.95115e-314 -6.78794e-314 0)
(-2.53612e-315 5.22639e-316 0)
(-1.87331e-315 1.50212e-315 0)
(-4.26678e-316 2.85666e-316 0)
(-6.41124e-317 3.51266e-317 0)
(-7.44693e-318 3.41413e-318 0)
(-7.56148e-319 2.74962e-319 0)
(-4.58295e-320 2.29148e-320 0)
(0 0 0)
(0 0 0)
(0 0 0)
(0 0 0)
(0 0 0)
(0 0 0)
(0 0 0)
(0 0 0)
(9.51175e-314 -3.9116e-313 0)
(-8.91449e-313 -1.05288e-311 0)
(1.3938e-313 -6.63911e-312 0)
(-8.56696e-314 -1.02802e-312 0)
(-1.26028e-313 1.51123e-316 0)
(-4.34859e-314 2.57366e-314 0)
(-9.0225e-315 5.63279e-315 0)
(-1.37537e-315 7.95479e-316 0)
(-1.68727e-316 8.85384e-317 0)
(-1.74944e-317 8.34961e-318 0)
(-1.57233e-318 6.86766e-319 0)
(-1.2651e-319 3.61458e-320 0)
(0 0 0)
(0 0 0)
(0 0 0)
(0 0 0)
(0 0 0)
(0 0 0)
(0 0 0)
(1.26414e-312 -4.76755e-312 0)
(-8.76392e-312 -8.36682e-311 0)
(-3.96418e-312 -4.61537e-311 0)
(-3.29207e-312 -7.07072e-312 0)
(-1.56079e-312 3.1941e-314 0)
(-4.29817e-313 2.05568e-313 0)
(-8.37309e-314 4.77722e-314 0)
(-1.27852e-314 7.23518e-315 0)
(-1.61822e-315 8.70958e-316 0)
(-1.75854e-316 8.91801e-317 0)
(-1.67704e-317 8.06854e-318 0)
(-1.41825e-318 6.33392e-319 0)
(-9.64021e-320 5.50883e-320 0)
(0 0 0)
(0 0 0)
(0 0 0)
(0 0 0)
(0 0 0)
(0 0 0)
(8.77715e-312 -5.19307e-311 0)
(-8.29779e-311 -5.27156e-310 0)
(-5.65779e-311 -2.38183e-310 0)
(-3.34019e-311 -3.33855e-311 0)
(-1.18313e-311 7.54257e-313 0)
(-2.87649e-312 1.17505e-312 0)
(-5.34082e-313 2.7468e-313 0)
(-8.09713e-314 4.32438e-314 0)
(-1.0446e-314 5.46657e-315 0)
(-1.17562e-315 5.93126e-316 0)
(-1.1735e-316 5.68873e-317 0)
(-1.05012e-317 4.9049e-318 0)
(-8.43049e-319 3.67481e-319 0)
(-5.41447e-320 3.24848e-320 0)
(0 0 0)
(0 0 0)
(0 0 0)
(0 0 0)
(0 0 0)
(1.84695e-311 -5.52232e-310 0)
(-6.27357e-310 -2.8579e-309 0)
(-4.64804e-310 -1.04776e-309 0)
(-2.21831e-310 -1.29158e-310 0)
(-6.77617e-311 5.99478e-312 0)
(-1.5156e-311 5.44726e-312 0)
(-2.717e-312 1.25167e-312 0)
(-4.09481e-313 2.01188e-313 0)
(-5.35551e-314 2.6366e-314 0)
(-6.20388e-315 2.98886e-315 0)
(-6.44304e-316 3.01819e-316 0)
(-6.04714e-317 2.75305e-317 0)
(-5.14869e-318 2.2952e-318 0)
(-4.0006e-319 1.77804e-319 0)
(-2.70056e-320 9.00188e-321 0)
(0 0 0)
(0 0 0)
(0 0 0)
(0 0 0)
(-2.41603e-310 -6.23527e-309 0)
(-4.0446e-309 -1.42248e-308 0)
(-2.95544e-309 -4.07096e-309 0)
(-1.17106e-309 -4.29806e-310 0)
(-3.1958e-310 3.02354e-311 0)
(-6.73968e-311 2.08535e-311 0)
(-1.17701e-311 4.74188e-312 0)
(-1.77114e-312 7.73083e-313 0)
(-2.35028e-313 1.04236e-313 0)
(-2.7954e-314 1.2263e-314 0)
(-3.01123e-315 1.29247e-315 0)
(-2.9546e-316 1.23797e-316 0)
(-2.6492e-317 1.0875e-317 0)
(-2.17624e-318 8.62861e-319 0)
(-1.63234e-319 6.21831e-320 0)
(-8.23607e-321 0 0)
(0 0 0)
(0 0 0)
(0 0 0)
(-1.20135e-308 -7.43978e-308 0)
(-3.28695e-308 -6.81457e-308 0)
(-1.71316e-308 -1.42776e-308 0)
(-5.57059e-309 -1.18144e-309 0)
(-1.35956e-309 1.45946e-310 0)
(-2.72039e-310 7.29891e-311 0)
(-4.65764e-311 1.60502e-311 0)
(-7.0157e-312 2.63335e-312 0)
(-9.4655e-313 3.62194e-313 0)
(-1.1569e-313 4.38644e-314 0)
(-1.29135e-314 4.7882e-315 0)
(-1.32301e-315 4.77229e-316 0)
(-1.24672e-316 4.37958e-317 0)
(-1.07979e-317 3.73142e-318 0)
(-8.46231e-319 2.93732e-319 0)
(-6.0108e-320 3.0054e-320 0)
(0 0 0)
(0 0 0)
(0 0 0)
(-3.05225e-307 -8.95568e-307 0)
(-2.39302e-307 -2.81589e-307 0)
(-8.40795e-308 -4.40851e-308 0)
(-2.26352e-308 -2.98231e-309 0)
(-5.05359e-309 5.02217e-310 0)
(-9.69924e-310 2.19992e-310 0)
(-1.64242e-310 4.75909e-311 0)
(-2.4912e-311 7.89258e-312 0)
(-3.42617e-312 1.11081e-312 0)
(-4.30898e-313 1.38398e-313 0)
(-4.9827e-314 1.56091e-314 0)
(-5.31855e-315 1.61294e-315 0)
(-5.25075e-316 1.53895e-316 0)
(-4.79116e-317 1.36705e-317 0)
(-4.02333e-318 1.12949e-318 0)
(-3.03628e-319 7.99003e-320 0)
(-1.94168e-320 0 0)
(0 0 0)
(0 0 0)
(-3.09946e-300 -5.39808e-301 0)
(-1.01747e-299 -2.36752e-300 0)
(-2.011e-299 -4.0919e-300 0)
(-3.52934e-299 -5.83622e-300 0)
(-5.86991e-299 -7.12379e-300 0)
(-9.40842e-299 -6.61491e-300 0)
(-1.46038e-298 -1.47295e-300 0)
(-2.19903e-298 1.33832e-299 0)
(-3.21383e-298 4.66854e-299 0)
(-4.55912e-298 1.12193e-298 0)
(-6.27632e-298 2.31433e-298 0)
(-8.3863e-298 4.36429e-298 0)
(-1.08494e-297 7.20117e-298 0)
(-1.90096e-298 5.97132e-299 0)
(-6.84687e-299 7.31105e-300 0)
(-2.86185e-299 1.02458e-300 0)
(-1.25413e-299 3.0514e-301 0)
(-5.34741e-300 2.14521e-301 0)
(-2.15649e-300 1.42258e-301 0)
(-8.12927e-301 7.60984e-302 0)
(-2.81997e-301 3.30731e-302 0)
(-8.49951e-302 1.07795e-302 0)
(-1.88142e-302 1.99497e-303 0)
(-4.83883e-300 -7.32372e-301 0)
(-1.58975e-299 -2.96342e-300 0)
(-3.11072e-299 -5.00831e-300 0)
(-5.38134e-299 -6.84338e-300 0)
(-8.80663e-299 -7.77259e-300 0)
(-1.3879e-298 -6.00743e-300 0)
(-2.11844e-298 1.82462e-300 0)
(-3.13853e-298 2.16176e-299 0)
(-4.51893e-298 6.26119e-299 0)
(-6.3289e-298 1.38888e-298 0)
(-8.62873e-298 2.70501e-298 0)
(-1.14715e-297 4.84393e-298 0)
(-1.47818e-297 7.58311e-298 0)
(-2.51541e-298 6.59678e-299 0)
(-9.09574e-299 9.08448e-300 0)
(-3.84529e-299 1.73995e-300 0)
(-1.71772e-299 6.12009e-301 0)
(-7.49722e-300 3.41908e-301 0)
(-3.09737e-300 1.89142e-301 0)
(-1.19464e-300 8.86682e-302 0)
(-4.25307e-301 3.35493e-302 0)
(-1.35625e-301 9.21621e-303 0)
(-3.56737e-302 1.20795e-303 0)
(-6.50369e-300 -8.89897e-301 0)
(-2.13412e-299 -3.42471e-300 0)
(-4.15467e-299 -5.68444e-300 0)
(-7.13959e-299 -7.53793e-300 0)
(-1.15968e-298 -8.08844e-300 0)
(-1.81345e-298 -5.32272e-300 0)
(-2.74608e-298 4.52501e-300 0)
(-4.03675e-298 2.75639e-299 0)
(-5.76875e-298 7.3229e-299 0)
(-8.024e-298 1.54771e-298 0)
(-1.08742e-297 2.90249e-298 0)
(-1.43847e-297 5.00736e-298 0)
(-1.8455e-297 7.55148e-298 0)
(-3.1464e-298 6.73647e-299 0)
(-1.14017e-298 9.69082e-300 0)
(-4.83045e-299 2.05954e-300 0)
(-2.16659e-299 7.76235e-301 0)
(-9.50691e-300 4.15732e-301 0)
(-3.94771e-300 2.16049e-301 0)
(-1.52882e-300 9.55036e-302 0)
(-5.47875e-301 3.41288e-302 0)
(-1.7893e-301 8.95972e-303 0)
(-5.03675e-302 1.1371e-303 0)
(-8.13055e-300 -1.10137e-300 0)
(-2.65625e-299 -4.05851e-300 0)
(-5.14883e-299 -6.64359e-300 0)
(-8.80709e-299 -8.6148e-300 0)
(-1.4239e-298 -8.97732e-300 0)
(-2.21624e-298 -5.53346e-300 0)
(-3.34046e-298 5.5713e-300 0)
(-4.88758e-298 3.05867e-299 0)
(-6.95248e-298 7.86053e-299 0)
(-9.62679e-298 1.62195e-298 0)
(-1.29899e-297 2.9723e-298 0)
(-1.71116e-297 5.0123e-298 0)
(-2.18789e-297 7.39026e-298 0)
(-3.77632e-298 6.70948e-299 0)
(-1.37334e-298 9.83151e-300 0)
(-5.82568e-299 2.18014e-300 0)
(-2.61456e-299 8.53103e-301 0)
(-1.14773e-299 4.55369e-301 0)
(-4.76481e-300 2.32954e-301 0)
(-1.84325e-300 1.02001e-301 0)
(-6.60605e-301 3.69643e-302 0)
(-2.17573e-301 1.05796e-302 0)
(-6.29039e-302 2.03843e-303 0)
(-9.77611e-300 -1.49619e-300 0)
(-3.16781e-299 -5.28904e-300 0)
(-6.10841e-299 -8.56347e-300 0)
(-1.04025e-298 -1.10038e-299 0)
(-1.67543e-298 -1.15191e-299 0)
(-2.59892e-298 -7.87714e-300 0)
(-3.90472e-298 3.86069e-300 0)
(-5.69549e-298 2.98079e-299 0)
(-8.07673e-298 7.88726e-299 0)
(-1.11494e-297 1.628e-298 0)
(-1.49996e-297 2.9631e-298 0)
(-1.9702e-297 4.94773e-298 0)
(-2.51351e-297 7.22307e-298 0)
(-4.40281e-298 6.66688e-299 0)
(-1.60823e-298 9.87837e-300 0)
(-6.83285e-299 2.23511e-300 0)
(-3.06708e-299 8.92828e-301 0)
(-1.3457e-299 4.78507e-301 0)
(-5.58033e-300 2.44713e-301 0)
(-2.15491e-300 1.08037e-301 0)
(-7.71187e-301 4.04813e-302 0)
(-2.54531e-301 1.27255e-302 0)
(-7.43083e-302 3.16876e-303 0)
(-1.1536e-299 -2.28071e-300 0)
(-3.6881e-299 -7.75478e-300 0)
(-7.06025e-299 -1.24829e-299 0)
(-1.1959e-298 -1.60507e-299 0)
(-1.91853e-298 -1.73349e-299 0)
(-2.967e-298 -1.40587e-299 0)
(-4.4467e-298 -2.34978e-300 0)
(-6.47162e-298 2.38728e-299 0)
(-9.15833e-298 7.32184e-299 0)
(-1.26173e-297 1.57116e-298 0)
(-1.69427e-297 2.89494e-298 0)
(-2.22155e-297 4.85111e-298 0)
(-2.8307e-297 7.08185e-298 0)
(-5.03e-298 6.65194e-299 0)
(-1.84547e-298 9.96092e-300 0)
(-7.85419e-299 2.2851e-300 0)
(-3.52633e-299 9.23479e-301 0)
(-1.54648e-299 4.96004e-301 0)
(-6.40673e-300 2.53978e-301 0)
(-2.47069e-300 1.1306e-301 0)
(-8.83034e-301 4.3436e-302 0)
(-2.91449e-301 1.44605e-302 0)
(-8.53358e-302 4.03674e-303 0)
(-1.35581e-299 -3.78625e-300 0)
(-4.24595e-299 -1.24827e-299 0)
(-8.0429e-299 -2.00278e-299 0)
(-1.3524e-298 -2.58999e-299 0)
(-2.15903e-298 -2.89154e-299 0)
(-3.32821e-298 -2.68416e-299 0)
(-4.97682e-298 -1.58225e-299 0)
(-7.23072e-298 1.00979e-299 0)
(-1.02178e-297 5.94993e-299 0)
(-1.40594e-297 1.43594e-298 0)
(-1.88586e-297 2.7625e-298 0)
(-2.47054e-297 4.71998e-298 0)
(-3.14619e-297 6.95666e-298 0)
(-5.66246e-298 6.65318e-299 0)
(-2.08599e-298 1.00766e-299 0)
(-8.89202e-299 2.34129e-300 0)
(-3.99336e-299 9.53599e-301 0)
(-1.75069e-299 5.11917e-301 0)
(-7.24755e-300 2.61923e-301 0)
(-2.79235e-300 1.17031e-301 0)
(-9.97045e-301 4.55339e-302 0)
(-3.28914e-301 1.55785e-302 0)
(-9.63543e-302 4.55517e-303 0)
(-1.60555e-299 -6.55038e-300 0)
(-4.88072e-299 -2.10952e-299 0)
(-9.10674e-299 -3.37894e-299 0)
(-1.51568e-298 -4.39029e-299 0)
(-2.40408e-298 -5.02289e-299 0)
(-3.69156e-298 -5.05565e-299 0)
(-5.50723e-298 -4.11552e-299 0)
(-7.98921e-298 -1.60618e-299 0)
(-1.12777e-297 3.32927e-299 0)
(-1.55053e-297 1.18348e-298 0)
(-2.0786e-297 2.53145e-298 0)
(-2.72195e-297 4.52536e-298 0)
(-3.46594e-297 6.81582e-298 0)
(-6.30398e-298 6.63208e-299 0)
(-2.33045e-298 1.01463e-299 0)
(-9.94752e-299 2.38445e-300 0)
(-4.46837e-299 9.78947e-301 0)
(-1.95836e-299 5.25582e-301 0)
(-8.10267e-300 2.68565e-301 0)
(-3.11965e-300 1.20081e-301 0)
(-1.11312e-300 4.69416e-302 0)
(-3.67001e-301 1.62325e-302 0)
(-1.07487e-301 4.82728e-303 0)
(-1.93175e-299 -1.14144e-299 0)
(-5.64113e-299 -3.61253e-299 0)
(-1.03114e-298 -5.77478e-299 0)
(-1.69238e-298 -7.52478e-299 0)
(-2.66146e-298 -8.73218e-299 0)
(-4.06703e-298 -9.19313e-299 0)
(-6.05137e-298 -8.54494e-299 0)
(-8.76572e-298 -6.20017e-299 0)
(-1.2363e-297 -1.27342e-299 0)
(-1.69883e-297 7.42183e-299 0)
(-2.27671e-297 2.13701e-298 0)
(-2.98101e-297 4.21055e-298 0)
(-3.79637e-297 6.61511e-298 0)
(-6.95856e-298 6.52672e-299 0)
(-2.57953e-298 1.00194e-299 0)
(-1.10214e-298 2.36799e-300 0)
(-4.9512e-299 9.84721e-301 0)
(-2.16928e-299 5.32576e-301 0)
(-8.97075e-300 2.72814e-301 0)
(-3.45184e-300 1.22133e-301 0)
(-1.23092e-300 4.78378e-302 0)
(-4.05626e-301 1.66048e-302 0)
(-1.1875e-301 4.96514e-303 0)
(-2.3703e-299 -1.96735e-299 0)
(-6.58093e-299 -6.13685e-299 0)
(-1.17148e-298 -9.78935e-299 0)
(-1.88868e-298 -1.27592e-298 0)
(-2.93841e-298 -1.49175e-298 0)
(-4.46456e-298 -1.60815e-298 0)
(-6.62389e-298 -1.59301e-298 0)
(-9.58175e-298 -1.38744e-298 0)
(-1.35046e-297 -8.9962e-299 0)
(-1.85505e-297 -2.71868e-302 0)
(-2.48571e-297 1.47264e-298 0)
(-3.25473e-297 3.68556e-298 0)
(-4.1463e-297 6.29041e-298 0)
(-7.63249e-298 6.23872e-299 0)
(-2.83442e-298 9.43128e-300 0)
(-1.21157e-298 2.20408e-300 0)
(-5.44203e-299 9.4119e-301 0)
(-2.38334e-299 5.23411e-301 0)
(-9.85068e-300 2.71997e-301 0)
(-3.78828e-300 1.22619e-301 0)
(-1.35015e-300 4.82166e-302 0)
(-4.4469e-301 1.67843e-302 0)
(-1.30127e-301 5.03146e-303 0)
(-2.96183e-299 -3.32436e-299 0)
(-7.74221e-299 -1.02425e-298 0)
(-1.33513e-298 -1.62845e-298 0)
(-2.10721e-298 -2.1197e-298 0)
(-3.23882e-298 -2.48419e-298 0)
(-4.89157e-298 -2.71142e-298 0)
(-7.23892e-298 -2.77513e-298 0)
(-1.04615e-297 -2.62018e-298 0)
(-1.47404e-297 -2.1472e-298 0)
(-2.02472e-297 -1.21123e-298 0)
(-2.71331e-297 3.76903e-299 0)
(-3.55324e-297 2.80864e-298 0)
(-4.52879e-297 5.74212e-298 0)
(-8.33669e-298 5.60183e-299 0)
(-3.0975e-298 7.91064e-300 0)
(-1.32358e-298 1.73011e-300 0)
(-5.94211e-299 7.91414e-301 0)
(-2.60079e-299 4.79263e-301 0)
(-1.07426e-299 2.60475e-301 0)
(-4.12878e-300 1.20068e-301 0)
(-1.47068e-300 4.77768e-302 0)
(-4.84138e-301 1.67452e-302 0)
(-1.41604e-301 5.04148e-303 0)
(-3.74317e-299 -5.49602e-299 0)
(-9.12561e-299 -1.67251e-298 0)
(-1.51772e-298 -2.64845e-298 0)
(-2.34154e-298 -3.43504e-298 0)
(-3.55707e-298 -4.02332e-298 0)
(-5.34758e-298 -4.41461e-298 0)
(-7.90505e-298 -4.59974e-298 0)
(-1.14277e-297 -4.52833e-298 0)
(-1.61129e-297 -4.09451e-298 0)
(-2.21479e-297 -3.12545e-298 0)
(-2.96978e-297 -1.38837e-298 0)
(-3.89094e-297 1.36035e-298 0)
(-4.96289e-297 4.80206e-298 0)
(-9.08871e-298 4.3257e-299 0)
(-3.37284e-298 4.61175e-300 0)
(-1.43917e-298 6.48027e-301 0)
(-6.45426e-299 4.28591e-301 0)
(-2.82239e-299 3.63887e-301 0)
(-1.16486e-299 2.26974e-301 0)
(-4.47377e-300 1.11305e-301 0)
(-1.59255e-300 4.57166e-302 0)
(-5.23964e-301 1.63107e-302 0)
(-1.53174e-301 4.96514e-303 0)
(-4.73315e-299 -8.8938e-299 0)
(-1.06202e-298 -2.67252e-298 0)
(-1.69819e-298 -4.20609e-298 0)
(-2.56539e-298 -5.42654e-298 0)
(-3.8684e-298 -6.33229e-298 0)
(-5.81399e-298 -6.95676e-298 0)
(-8.61538e-298 -7.31687e-298 0)
(-1.24907e-297 -7.38059e-298 0)
(-1.76584e-297 -7.03132e-298 0)
(-2.43247e-297 -6.05943e-298 0)
(-3.26738e-297 -4.16008e-298 0)
(-4.28633e-297 -9.9678e-299 0)
(-5.47446e-297 3.17753e-298 0)
(-9.91287e-298 1.89785e-299 0)
(-3.6659e-298 -1.9626e-300 0)
(-1.55967e-298 -1.57166e-300 0)
(-6.98214e-299 -3.38353e-301 0)
(-3.0492e-299 1.1161e-301 0)
(-1.25714e-299 1.50558e-301 0)
(-4.82391e-300 9.01627e-302 0)
(-1.71587e-300 4.03479e-302 0)
(-5.64157e-301 1.50495e-302 0)
(-1.64824e-301 4.70489e-303 0)
(-5.89815e-299 -1.41445e-298 0)
(-1.18786e-298 -4.18475e-298 0)
(-1.82121e-298 -6.53206e-298 0)
(-2.71702e-298 -8.35784e-298 0)
(-4.11347e-298 -9.69401e-298 0)
(-6.24012e-298 -1.06256e-297 0)
(-9.33035e-298 -1.12284e-297 0)
(-1.36282e-297 -1.14974e-297 0)
(-1.93804e-297 -1.13139e-297 0)
(-2.68245e-297 -1.04154e-297 0)
(-3.617e-297 -8.39629e-298 0)
(-4.75943e-297 -4.76577e-298 0)
(-6.09347e-297 3.63147e-299 0)
(-1.08348e-297 -2.57357e-299 0)
(-3.98139e-298 -1.43698e-299 0)
(-1.68593e-298 -5.81314e-300 0)
(-7.52783e-299 -1.82261e-300 0)
(-3.28173e-299 -3.84545e-301 0)
(-1.35117e-299 -3.38859e-303 0)
(-5.17867e-300 4.60189e-302 0)
(-1.84017e-300 2.85616e-302 0)
(-6.04459e-301 1.20927e-302 0)
(-1.76453e-301 4.04113e-303 0)
(-7.07153e-299 -2.22415e-298 0)
(-1.20355e-298 -6.4458e-298 0)
(-1.76866e-298 -9.93584e-298 0)
(-2.67467e-298 -1.25697e-297 0)
(-4.18157e-298 -1.44443e-297 0)
(-6.52554e-298 -1.57573e-297 0)
(-9.95781e-298 -1.66711e-297 0)
(-1.47541e-297 -1.72414e-297 0)
(-2.12087e-297 -1.73493e-297 0)
(-2.9609e-297 -1.66761e-297 0)
(-4.0214e-297 -1.46824e-297 0)
(-5.32337e-297 -1.06598e-297 0)
(-6.8457e-297 -4.47591e-298 0)
(-1.18644e-297 -1.05777e-298 0)
(-4.31844e-298 -3.66669e-299 0)
(-1.81714e-298 -1.33889e-299 0)
(-8.08834e-299 -4.46205e-300 0)
(-3.51846e-299 -1.26997e-300 0)
(-1.44598e-299 -2.82809e-301 0)
(-5.53247e-300 -3.67855e-302 0)
(-1.96263e-300 5.35523e-303 0)
(-6.43682e-301 5.90731e-303 0)
(-1.87646e-301 2.54989e-303 0)
(-7.67498e-299 -3.49571e-298 0)
(-9.09989e-299 -9.80877e-298 0)
(-1.30749e-298 -1.48456e-297 0)
(-2.22907e-298 -1.84788e-297 0)
(-3.89524e-298 -2.09756e-297 0)
(-6.51077e-298 -2.27111e-297 0)
(-1.03325e-297 -2.40032e-297 0)
(-1.56858e-297 -2.49886e-297 0)
(-2.294e-297 -2.55726e-297 0)
(-3.24743e-297 -2.53741e-297 0)
(-4.46301e-297 -2.37087e-297 0)
(-5.96956e-297 -1.9605e-297 0)
(-7.7333e-297 -1.25955e-297 0)
(-1.29649e-297 -2.4378e-298 0)
(-4.66629e-298 -7.43038e-299 0)
(-1.95072e-298 -2.57916e-299 0)
(-8.65493e-299 -8.68706e-300 0)
(-3.75372e-299 -2.68194e-300 0)
(-1.53778e-299 -7.37087e-301 0)
(-5.86434e-300 -1.7693e-301 0)
(-2.07361e-300 -3.61096e-302 0)
(-6.78001e-301 -5.82469e-303 0)
(-1.97137e-301 -4.60235e-304 0)
(-5.58534e-299 -5.56927e-298 0)
(1.55579e-299 -1.48346e-297 0)
(-5.35526e-301 -2.18349e-297 0)
(-1.05828e-298 -2.6593e-297 0)
(-3.01962e-298 -2.9703e-297 0)
(-5.98533e-298 -3.18543e-297 0)
(-1.02158e-297 -3.35654e-297 0)
(-1.61151e-297 -3.51025e-297 0)
(-2.4185e-297 -3.64046e-297 0)
(-3.49524e-297 -3.70454e-297 0)
(-4.89017e-297 -3.61959e-297 0)
(-6.64516e-297 -3.26484e-297 0)
(-8.70656e-297 -2.5621e-297 0)
(-1.40219e-297 -4.66044e-298 0)
(-5.01467e-298 -1.31283e-298 0)
(-2.08582e-298 -4.34431e-299 0)
(-9.20887e-299 -1.44971e-299 0)
(-3.96763e-299 -4.63328e-300 0)
(-1.61362e-299 -1.38914e-300 0)
(-6.10958e-300 -3.89636e-301 0)
(-2.14598e-300 -1.0286e-301 0)
(-6.97503e-301 -2.57242e-302 0)
(-2.01818e-301 -5.81008e-303 0)
(8.14866e-299 -9.13399e-298 0)
(3.08708e-298 -2.23962e-297 0)
(2.89807e-298 -3.16549e-297 0)
(1.2558e-298 -3.74572e-297 0)
(-1.3169e-298 -4.10387e-297 0)
(-4.74236e-298 -4.35095e-297 0)
(-9.31833e-298 -4.56604e-297 0)
(-1.56089e-297 -4.78942e-297 0)
(-2.4332e-297 -5.02158e-297 0)
(-3.62563e-297 -5.21619e-297 0)
(-5.20704e-297 -5.27769e-297 0)
(-7.2345e-297 -5.07081e-297 0)
(-9.63606e-297 -4.51487e-297 0)
(-1.49098e-297 -7.71988e-298 0)
(-5.39854e-298 -1.99648e-298 0)
(-2.21833e-298 -6.25686e-299 0)
(-9.63175e-299 -2.0751e-299 0)
(-4.0789e-299 -6.86199e-300 0)
(-1.63318e-299 -2.19481e-300 0)
(-6.10086e-300 -6.71245e-301 0)
(-2.11863e-300 -1.95803e-301 0)
(-6.82068e-301 -5.436e-302 0)
(-1.95842e-301 -1.3699e-302 0)
(7.19707e-298 -1.48494e-297 0)
(1.03679e-297 -3.3874e-297 0)
(8.45626e-298 -4.52351e-297 0)
(4.99191e-298 -5.16413e-297 0)
(1.23084e-298 -5.53363e-297 0)
(-2.72775e-298 -5.79523e-297 0)
(-7.40184e-298 -6.05261e-297 0)
(-1.36526e-297 -6.36189e-297 0)
(-2.25598e-297 -6.73106e-297 0)
(-3.52775e-297 -7.11256e-297 0)
(-5.28032e-297 -7.39408e-297 0)
(-7.56893e-297 -7.42324e-297 0)
(-1.0285e-296 -7.15794e-297 0)
(-1.65532e-297 -8.84748e-298 0)
(-5.59446e-298 -2.15534e-298 0)
(-2.20541e-298 -7.00894e-299 0)
(-9.27059e-299 -2.4722e-299 0)
(-3.8304e-299 -8.72293e-300 0)
(-1.50451e-299 -2.96835e-300 0)
(-5.53532e-300 -9.60234e-301 0)
(-1.89876e-300 -2.93958e-301 0)
(-6.05146e-301 -8.48983e-302 0)
(-1.72287e-301 -2.21462e-302 0)
(3.11115e-297 -2.65779e-297 0)
(2.48548e-297 -4.91697e-297 0)
(1.65834e-297 -6.18569e-297 0)
(9.42007e-298 -6.84616e-297 0)
(3.97819e-298 -7.20975e-297 0)
(-3.11968e-299 -7.48081e-297 0)
(-4.50377e-298 -7.78699e-297 0)
(-9.92469e-298 -8.19717e-297 0)
(-1.81551e-297 -8.72873e-297 0)
(-3.09925e-297 -9.33394e-297 0)
(-5.00482e-297 -9.88615e-297 0)
(-7.56134e-297 -1.01702e-296 0)
(-2.02226e-297 -1.98854e-297 0)
(-8.08648e-298 -5.28821e-298 0)
(-3.47067e-298 -1.76575e-298 0)
(-1.55206e-298 -6.58785e-299 0)
(-6.86989e-299 -2.51349e-299 0)
(-2.90224e-299 -9.343e-300 0)
(-1.14926e-299 -3.30071e-300 0)
(-4.23617e-300 -1.09827e-300 0)
(-1.4515e-300 -3.43325e-301 0)
(-4.61376e-301 -1.00638e-301 0)
(-1.30763e-301 -2.65426e-302 0)
(1.61615e-298 -5.92599e-298 0)
(9.76235e-299 -1.08307e-297 0)
(9.06221e-299 -1.24253e-297 0)
(7.01851e-299 -1.32587e-297 0)
(3.18863e-299 -1.3746e-297 0)
(-1.50137e-299 -1.40642e-297 0)
(-7.39108e-299 -1.43525e-297 0)
(-1.6017e-298 -1.46895e-297 0)
(-2.98209e-298 -1.50706e-297 0)
(-5.15369e-298 -1.53977e-297 0)
(-8.11081e-298 -1.5574e-297 0)
(-9.12557e-298 -1.66795e-297 0)
(-5.329e-298 -8.12431e-298 0)
(-3.20429e-298 -3.22334e-298 0)
(-1.73206e-298 -1.30008e-298 0)
(-8.77649e-299 -5.29376e-299 0)
(-4.14751e-299 -2.11408e-299 0)
(-1.81407e-299 -8.07469e-300 0)
(-7.31992e-300 -2.9082e-300 0)
(-2.72599e-300 -9.81723e-301 0)
(-9.39033e-301 -3.10133e-301 0)
(-2.9911e-301 -9.15578e-302 0)
(-8.46012e-302 -2.4226e-302 0)
(-3.67265e-299 -1.12417e-298 0)
(-4.55535e-299 -3.55944e-298 0)
(-3.14947e-299 -4.62024e-298 0)
(-1.38528e-299 -5.03308e-298 0)
(-6.94853e-300 -5.19555e-298 0)
(-1.02098e-299 -5.27485e-298 0)
(-2.23073e-299 -5.33698e-298 0)
(-4.47833e-299 -5.40512e-298 0)
(-8.19713e-299 -5.47901e-298 0)
(-1.37505e-298 -5.55555e-298 0)
(-2.03592e-298 -5.68315e-298 0)
(-2.17835e-298 -5.68383e-298 0)
(-1.76438e-298 -3.50613e-298 0)
(-1.28886e-298 -1.74952e-298 0)
(-7.99279e-299 -8.08185e-299 0)
(-4.39675e-299 -3.53672e-299 0)
(-2.17827e-299 -1.46493e-299 0)
(-9.79364e-300 -5.70731e-300 0)
(-4.01717e-300 -2.08064e-300 0)
(-1.51081e-300 -7.08048e-301 0)
(-5.23384e-301 -2.24909e-301 0)
(-1.67139e-301 -6.66102e-302 0)
(-4.71645e-302 -1.76044e-302 0)
(-1.64297e-299 -2.11512e-299 0)
(-2.61549e-299 -1.13479e-298 0)
(-2.55711e-299 -1.78277e-298 0)
(-1.67105e-299 -2.08572e-298 0)
(-9.45693e-300 -2.20579e-298 0)
(-6.84425e-300 -2.24996e-298 0)
(-8.93567e-300 -2.26999e-298 0)
(-1.56611e-299 -2.2856e-298 0)
(-2.75678e-299 -2.302e-298 0)
(-4.46366e-299 -2.32262e-298 0)
(-6.30571e-299 -2.34974e-298 0)
(-7.01371e-299 -2.25711e-298 0)
(-6.54746e-299 -1.57307e-298 0)
(-5.23624e-299 -8.87518e-299 0)
(-3.49374e-299 -4.44553e-299 0)
(-2.01514e-299 -2.03856e-299 0)
(-1.02793e-299 -8.6577e-300 0)
(-4.70395e-300 -3.41671e-300 0)
(-1.95008e-300 -1.25384e-300 0)
(-7.38006e-301 -4.28169e-301 0)
(-2.56476e-301 -1.36211e-301 0)
(-8.19568e-302 -4.03287e-302 0)
(-2.30299e-302 -1.06064e-302 0)
(-4.78816e-300 -4.62376e-300 0)
(-9.88399e-300 -3.59286e-299 0)
(-1.16646e-299 -6.8709e-299 0)
(-9.21634e-300 -8.77896e-299 0)
(-5.82768e-300 -9.65605e-299 0)
(-3.80921e-300 -9.99388e-299 0)
(-3.7702e-300 -1.01146e-298 0)
(-5.70077e-300 -1.01713e-298 0)
(-9.56043e-300 -1.0219e-298 0)
(-1.50746e-299 -1.02688e-298 0)
(-2.10223e-299 -1.02348e-298 0)
(-2.47465e-299 -9.52915e-299 0)
(-2.4958e-299 -6.97313e-299 0)
(-2.08973e-299 -4.19223e-299 0)
(-1.44626e-299 -2.19922e-299 0)
(-8.55376e-300 -1.03785e-299 0)
(-4.43224e-300 -4.47699e-300 0)
(-2.04681e-300 -1.77962e-300 0)
(-8.52722e-301 -6.54737e-301 0)
(-3.23369e-301 -2.2356e-301 0)
(-1.12356e-301 -7.09854e-302 0)
(-3.58263e-302 -2.09453e-302 0)
(-9.99932e-303 -5.46355e-303 0)
(-1.28779e-300 -1.12066e-300 0)
(-3.22756e-300 -1.10424e-299 0)
(-4.25374e-300 -2.52712e-299 0)
(-3.8693e-300 -3.53529e-299 0)
(-2.69621e-300 -4.06939e-299 0)
(-1.75951e-300 -4.29759e-299 0)
(-1.50726e-300 -4.37982e-299 0)
(-2.00554e-300 -4.40894e-299 0)
(-3.2127e-300 -4.42262e-299 0)
(-5.0128e-300 -4.42068e-299 0)
(-7.08915e-300 -4.33833e-299 0)
(-8.80104e-300 -3.94487e-299 0)
(-9.30164e-300 -2.94584e-299 0)
(-7.98795e-300 -1.83078e-299 0)
(-5.63448e-300 -9.86393e-300 0)
(-3.37433e-300 -4.73596e-300 0)
(-1.76072e-300 -2.0615e-300 0)
(-8.15634e-301 -8.2213e-301 0)
(-3.39913e-301 -3.02313e-301 0)
(-1.2867e-301 -1.02917e-301 0)
(-4.45505e-302 -3.25264e-302 0)
(-1.41339e-302 -9.53863e-303 0)
(-3.90786e-303 -2.46064e-303 0)
(-3.30992e-301 -2.85514e-301 0)
(-9.58799e-301 -3.2895e-300 0)
(-1.33838e-300 -8.77108e-300 0)
(-1.35271e-300 -1.33586e-299 0)
(-1.02368e-300 -1.60917e-299 0)
(-6.84726e-301 -1.73709e-299 0)
(-5.44652e-301 -1.7858e-299 0)
(-6.58372e-301 -1.80157e-299 0)
(-1.0199e-300 -1.80472e-299 0)
(-1.60247e-300 -1.79348e-299 0)
(-2.3359e-300 -1.73557e-299 0)
(-3.0322e-300 -1.54943e-299 0)
(-3.30151e-300 -1.16506e-299 0)
(-2.88163e-300 -7.36931e-300 0)
(-2.05458e-300 -4.03329e-300 0)
(-1.2377e-300 -1.95656e-300 0)
(-6.47216e-301 -8.55821e-301 0)
(-2.9958e-301 -3.41454e-301 0)
(-1.24465e-301 -1.25199e-301 0)
(-4.68859e-302 -4.24002e-302 0)
(-1.61308e-302 -1.33076e-302 0)
(-5.07817e-303 -3.86959e-303 0)
(-1.38746e-303 -9.84744e-304 0)
(-8.22068e-302 -7.32309e-302 0)
(-2.64369e-301 -9.44538e-301 0)
(-3.75341e-301 -2.86008e-300 0)
(-4.08576e-301 -4.70415e-300 0)
(-3.31424e-301 -5.91363e-300 0)
(-2.28924e-301 -6.52269e-300 0)
(-1.75881e-301 -6.76709e-300 0)
(-1.99638e-301 -6.84442e-300 0)
(-3.04435e-301 -6.84749e-300 0)
(-4.89072e-301 -6.76621e-300 0)
(-7.40002e-301 -6.46902e-300 0)
(-9.94774e-301 -5.69205e-300 0)
(-1.10443e-300 -4.28465e-300 0)
(-9.74454e-301 -2.73574e-300 0)
(-6.99227e-301 -1.51126e-300 0)
(-4.22324e-301 -7.37523e-301 0)
(-2.20706e-301 -3.23247e-301 0)
(-1.01822e-301 -1.2875e-301 0)
(-4.20732e-302 -4.69877e-302 0)
(-1.57351e-302 -1.58017e-302 0)
(-5.36661e-303 -4.9158e-303 0)
(-1.67262e-303 -1.41453e-303 0)
(-4.50608e-304 -3.54362e-304 0)