/*--------------------------------*- C++ -*----------------------------------*\
| =========                 |                                                 |
| \\      /  F ield         | OpenFOAM: The Open Source CFD Toolbox           |
|  \\    /   O peration     | Version:  2406                                  |
|   \\  /    A nd           | Website:  www.openfoam.com                      |
|    \\/     M anipulation  |                                                 |
\*---------------------------------------------------------------------------*/
FoamFile
{
    version     2.0;
    format      ascii;
    arch        "LSB;label=32;scalar=64";
    class       volScalarField;
    location    "0.4";
    object      epsilon;
}
// * * * * * * * * * * * * * * * * * * * * * * * * * * * * * * * * * * * * * //

dimensions      [0 2 -3 0 0 0 0];

internalField   nonuniform List<scalar> 
2268
(
3.11056
4.22461
4.22461
4.22461
4.22461
4.22461
4.22461
4.22461
4.22461
4.22461
4.22461
4.22461
4.22461
0.105926
0.0781904
0.108343
0.127239
0.136457
0.136546
0.126837
0.105529
0.069742
0.0185064
1.99652
3.53904
3.87395
3.99094
4.04704
4.07915
4.09939
4.11284
4.12192
4.12796
4.13166
4.13343
4.13343
0.150379
0.0635384
0.0693447
0.0760775
0.0795044
0.0792264
0.0748215
0.0654571
0.0502067
0.032188
1.99652
3.12319
3.57196
3.77086
3.87483
3.93633
3.9757
4.00204
4.01992
4.03183
4.03915
4.04264
4.04264
0.176526
0.0710918
0.0685097
0.0714876
0.0732462
0.0728141
0.0697493
0.0634841
0.053771
0.049309
1.99652
2.85875
3.32579
3.572
3.71211
3.79846
3.85491
3.89313
3.91926
3.93673
3.9475
3.95264
3.95264
0.195821
0.0795323
0.0718053
0.0723826
0.0730791
0.0725446
0.0703137
0.0660119
0.0598585
0.0645377
1.99652
2.68257
3.12893
3.39682
3.5614
3.66728
3.7382
3.78692
3.82053
3.84312
3.8571
3.86378
3.86378
0.210817
0.0870394
0.075623
0.0743435
0.0741924
0.0735752
0.0720362
0.0694386
0.0665929
0.0795679
1.99652
2.55993
2.97192
3.24473
3.42379
3.54389
3.62645
3.68408
3.72425
3.75144
3.76833
3.77642
3.77642
0.222858
0.0933639
0.0790488
0.076229
0.0753504
0.0746534
0.0737257
0.072775
0.0737564
0.0975302
1.99652
2.47111
2.84601
3.11356
3.29936
3.4289
3.52026
3.58515
3.63088
3.66206
3.68152
3.69087
3.69087
0.232778
0.098523
0.0817386
0.0775899
0.0760699
0.0752806
0.0748637
0.0754659
0.0812719
0.128021
1.99652
2.40455
2.74407
3.00066
3.18749
3.32242
3.42
3.49049
3.54076
3.57531
3.59696
3.60741
3.60741
0.241105
0.102516
0.0834891
0.0781792
0.0760965
0.075192
0.0751288
0.0768989
0.0877395
0.210307
0.0205353
0.0781483
0.118816
0.145181
0.161757
0.171861
0.177736
0.180842
0.182063
0.181829
0.180195
0.17689
0.171349
0.162736
0.149963
0.131671
0.106045
0.0702889
0.0227581
0.0326294
0.0537722
0.0709484
0.0821255
0.0890236
0.0931358
0.0954804
0.0967052
0.0971906
0.0971185
0.0965141
0.0952665
0.0931335
0.0897344
0.0845316
0.0767952
0.0655549
0.04978
0.0320878
0.0496405
0.0562957
0.0672247
0.0745257
0.0790051
0.0816434
0.0831321
0.0839057
0.084213
0.0841709
0.0837953
0.0830136
0.0816623
0.0794699
0.0760257
0.0707411
0.0628667
0.0520153
0.0458552
0.0649471
0.0618873
0.0687967
0.0737071
0.0767567
0.0785526
0.0795642
0.0800897
0.0802975
0.080265
0.0800014
0.0794548
0.0785058
0.0769445
0.0744328
0.0704646
0.064419
0.0562822
0.0572963
0.0803568
0.0682464
0.0714371
0.0743345
0.0762538
0.0774082
0.0780641
0.0784063
0.0785398
0.0785117
0.0783255
0.0779447
0.0772816
0.0761728
0.0743365
0.0713326
0.0666353
0.0604797
0.0669303
0.0992543
0.0749497
0.0739867
0.0750199
0.0759767
0.0766044
0.0769725
0.0771671
0.0772408
0.0772165
0.0770936
0.0768471
0.0764151
0.0756716
0.0743835
0.0721722
0.0686008
0.064117
0.0752441
0.131507
0.0817178
0.075853
0.0752108
0.0753702
0.0755723
0.0757096
0.0757858
0.0758123
0.0757932
0.0757251
0.0755924
0.0753533
0.0749124
0.0740799
0.0725405
0.0699605
0.0670328
0.0826078
0.213577
0.0870806
0.0765068
0.074626
0.074193
0.0740763
0.0740399
0.0740268
0.0740185
0.0740064
0.0739855
0.073947
0.0738639
0.0736648
0.0731986
0.0722167
0.0705159
0.0691221
0.0893065
1.99652
2.32441
2.61365
2.8485
3.03071
3.16899
3.27268
3.34954
3.40535
3.44416
3.46868
3.48056
3.48056
0.251932
0.106777
0.084574
0.0777384
0.0749199
0.0738025
0.0739765
0.0762034
0.0839248
0.111627
1.99652
2.25443
2.4912
2.69466
2.86183
2.99522
3.09939
3.17908
3.2383
3.28019
3.30695
3.31999
3.31999
0.262134
0.111455
0.08634
0.0780036
0.074359
0.0728086
0.0727251
0.0743124
0.0786486
0.088109
1.99652
2.20583
2.40242
2.57749
2.72709
2.85095
2.95085
3.02928
3.08878
3.1315
3.15908
3.1726
3.1726
0.269279
0.115146
0.0880415
0.0786032
0.0742664
0.0722328
0.0716934
0.0725006
0.0748547
0.0790702
1.99652
2.17008
2.33538
2.48605
2.61835
2.73092
2.82398
2.89862
2.95622
2.99812
3.02542
3.03887
3.03887
0.27445
0.11797
0.0894154
0.0791503
0.0742466
0.0717584
0.0707567
0.0709207
0.0721667
0.0744761
1.99652
2.14267
2.28313
2.41316
2.52956
2.6306
2.71573
2.78518
2.83953
2.8795
2.90574
2.91874
2.91873
0.278292
0.120156
0.0904858
0.0795825
0.0742214
0.0713431
0.0699444
0.069626
0.0702165
0.0716515
1.99652
2.12103
2.24141
2.35406
2.45628
2.54635
2.62334
2.68699
2.73737
2.77475
2.79945
2.81173
2.81173
0.2812
0.121877
0.0913216
0.0799171
0.0741923
0.0709983
0.0692848
0.0686167
0.0687954
0.069752
1.99652
2.10357
2.2075
2.30549
2.3953
2.4753
2.54445
2.60221
2.64833
2.68281
2.70572
2.71715
2.71714
0.28343
0.123256
0.0919855
0.0801845
0.0741755
0.0707367
0.0687859
0.0678706
0.0677833
0.0684552
1.99652
2.08927
2.17958
2.26519
2.34423
2.4152
2.47708
2.52917
2.57107
2.60257
2.62359
2.6341
2.6341
0.285158
0.124377
0.0925241
0.0804089
0.074181
0.0705588
0.0684362
0.067351
0.0670928
0.0675925
1.99652
2.07744
2.1564
2.23155
2.30129
2.36431
2.4196
2.46644
2.50432
2.53293
2.55209
2.56169
2.56168
0.286511
0.1253
0.0929699
0.0806049
0.0742104
0.070454
0.0682112
0.0670129
0.0666474
0.0670452
1.99652
2.0676
2.13707
2.20337
2.26515
2.32123
2.37067
2.41275
2.44693
2.47284
2.49024
2.49897
2.49897
0.287586
0.126072
0.0933461
0.0807808
0.074259
0.0704057
0.0680806
0.0668093
0.0663787
0.0667185
1.99652
2.0594
2.12092
2.17977
2.23477
2.28486
2.32919
2.36705
2.39791
2.42137
2.43715
2.44508
2.44508
0.28846
0.12673
0.0936717
0.0809414
0.0743201
0.0703959
0.0680148
0.0666974
0.0662287
0.066537
1.99652
2.05258
2.10748
2.16008
2.20933
2.25432
2.29424
2.32843
2.35637
2.37765
2.39199
2.3992
2.3992
0.289203
0.127311
0.0939648
0.0810917
0.0743873
0.0704083
0.0679882
0.0666419
0.0661518
0.0664442
1.99652
2.04695
2.09636
2.14375
2.18821
2.2289
2.26507
2.29613
2.32155
2.34095
2.35404
2.36063
2.36062
0.289895
0.127861
0.0942473
0.0812374
0.074455
0.0704289
0.0679798
0.0666155
0.0661145
0.0664003
1.99652
2.04235
2.08727
2.1304
2.17091
2.20803
2.24109
2.26952
2.29282
2.31063
2.32265
2.32871
2.32871
0.290654
0.128446
0.0945481
0.0813842
0.0745162
0.0704438
0.0679715
0.0665971
0.066093
0.0663787
1.99652
2.03867
2.08
2.1197
2.15703
2.19127
2.2218
2.24808
2.26965
2.28615
2.2973
2.30292
2.30291
0.291695
0.129175
0.0949014
0.0815308
0.074556
0.0704349
0.0679453
0.0665693
0.06607
0.066362
1.99652
2.03582
2.07436
2.11141
2.14626
2.17825
2.20681
2.23141
2.25161
2.26708
2.27753
2.2828
2.2828
0.293461
0.130214
0.0953243
0.0816477
0.0745395
0.070373
0.0678792
0.0665153
0.0660323
0.066339
1.99652
2.03374
2.07024
2.10535
2.13838
2.16872
2.19582
2.21917
2.23837
2.25307
2.26301
2.26802
2.26802
0.296889
0.131699
0.095718
0.0816253
0.0743901
0.0702113
0.0677453
0.0664183
0.0659688
0.0663019
1.99652
2.03237
2.06755
2.10137
2.13321
2.16247
2.18861
2.21115
2.22968
2.24387
2.25347
2.25831
2.25831
0.303159
0.133032
0.0955651
0.0811831
0.0739707
0.0698842
0.067512
0.0662624
0.0658715
0.0662461
1.99652
2.0317
2.06621
2.09941
2.13065
2.15938
2.18504
2.20717
2.22537
2.23931
2.24874
2.2535
2.2535
0.301097
0.129603
0.0933551
0.0798197
0.073107
0.069328
0.0671552
0.0660385
0.0657366
0.06617
1.99652
2.0317
2.06621
2.0994
2.13065
2.15938
2.18504
2.20717
2.22537
2.23931
2.24874
2.2535
0.400194
0.16302
0.107721
0.0870703
0.0771817
0.0717349
0.0685354
0.0666785
0.0657513
0.0655678
0.0660761
0.183854
0.223712
0.248183
0.263294
0.273044
0.279506
0.283939
0.287276
0.290447
0.294726
0.301505
0.299659
0.162718
0.113952
0.0922607
0.0808197
0.0741786
0.0701154
0.0676015
0.0661241
0.0654219
0.0653765
0.0659706
0.0787935
0.0867128
0.100945
0.11084
0.117383
0.1217
0.12462
0.126764
0.128638
0.130601
0.13219
0.128909
0.107409
0.0921508
0.0822429
0.0757291
0.0713917
0.0685078
0.0666457
0.0655502
0.0650802
0.0651786
0.0658618
0.0896697
0.0729031
0.0783659
0.0837192
0.0876095
0.0902517
0.0920351
0.0932938
0.0942569
0.0949643
0.0949882
0.0928984
0.0867802
0.0806568
0.0756565
0.0718442
0.069046
0.0670701
0.0657604
0.0650088
0.0647552
0.0649899
0.0657584
0.102944
0.0727983
0.0731689
0.0755839
0.0776262
0.0790498
0.0799854
0.0805948
0.0809754
0.0811014
0.080746
0.07945
0.0768942
0.0739691
0.0712507
0.0689704
0.0671833
0.0658724
0.0650001
0.0645352
0.0644682
0.0648228
0.0656672
0.112712
0.0745456
0.071904
0.0724398
0.0732074
0.0737434
0.0740435
0.0741771
0.0741821
0.0740283
0.0736041
0.0727501
0.0714089
0.0698324
0.0682736
0.0668919
0.0657666
0.0649284
0.0643863
0.0641473
0.0642315
0.064685
0.0655926
0.119564
0.0761943
0.0717089
0.0710422
0.0709426
0.0708437
0.0706769
0.0704661
0.0702237
0.0699241
0.0695071
0.0689055
0.0681037
0.0671853
0.0662611
0.0654223
0.0647296
0.0642199
0.0639179
0.0638486
0.0640489
0.0645795
0.0655368
0.124255
0.0774369
0.0718025
0.0703698
0.0696911
0.0691498
0.0686494
0.068194
0.0677857
0.067403
0.0670058
0.0665544
0.0660348
0.0654728
0.0649156
0.0644114
0.0640002
0.0637138
0.0635805
0.0636333
0.0639186
0.0645061
0.0655
0.127393
0.0783049
0.0719552
0.0700405
0.0689838
0.0681431
0.0674114
0.066786
0.0662659
0.0658318
0.0654512
0.065091
0.0647322
0.0643756
0.0640376
0.0637414
0.0635115
0.0633732
0.0633543
0.0634914
0.0638359
0.0644631
0.0654822
0.129456
0.0788928
0.0721034
0.0698921
0.0685957
0.0675591
0.0666724
0.0659321
0.0653371
0.0648696
0.0644995
0.0641947
0.0639307
0.0636958
0.0634901
0.0633223
0.0632071
0.0631641
0.0632201
0.0634127
0.0637964
0.0644495
0.0654842
0.130818
0.079294
0.0722383
0.0698499
0.0684073
0.0672477
0.0662615
0.0654462
0.0648021
0.0643125
0.0639481
0.0636761
0.0634681
0.0633053
0.0631788
0.0630891
0.0630444
0.0630608
0.0631636
0.063391
0.0637987
0.0644669
0.0655093
0.131769
0.0795896
0.0723722
0.0698821
0.068355
0.0671225
0.0660759
0.0652141
0.064539
0.0640351
0.0636734
0.0634202
0.0632447
0.0631237
0.0630436
0.0629999
0.0629971
0.0630488
0.0631793
0.0634268
0.0638476
0.0645224
0.0655654
0.132556
0.0798551
0.0725326
0.069986
0.0684137
0.0671415
0.0660607
0.0651722
0.0644789
0.0639663
0.0636057
0.0633628
0.0632054
0.0631081
0.0630541
0.0630364
0.0630572
0.0631285
0.063274
0.0635314
0.0639569
0.0646313
0.0656677
0.133422
0.0801768
0.0727683
0.0701885
0.0685931
0.0673007
0.0662023
0.0652995
0.0645964
0.0640791
0.063719
0.0634817
0.0633341
0.0632494
0.0632094
0.0632054
0.0632384
0.0633195
0.0634713
0.0637312
0.0641549
0.0648218
0.0658435
0.134685
0.0806807
0.0731679
0.0705565
0.0689431
0.0676366
0.066527
0.0656159
0.0649077
0.0643882
0.0640288
0.0637946
0.063652
0.0635735
0.0635403
0.0635428
0.063581
0.0636653
0.0638176
0.0640743
0.0644897
0.0651415
0.0661381
0.136846
0.0815879
0.0738958
0.0712195
0.0695663
0.0682327
0.0671059
0.0661853
0.0654727
0.0649521
0.0645934
0.0643611
0.0642211
0.0641455
0.064115
0.0641196
0.0641586
0.0642418
0.06439
0.0646383
0.0650388
0.0656662
0.0666239
0.140809
0.0833182
0.0752573
0.0724057
0.0706369
0.0692295
0.0680609
0.0671201
0.0663999
0.0658779
0.0655204
0.0652899
0.0651514
0.0650769
0.0650469
0.0650509
0.065088
0.0651669
0.0653071
0.0655417
0.0659197
0.0665112
0.0674125
0.148276
0.0866871
0.0777969
0.0744808
0.0724125
0.0708287
0.0695687
0.0685874
0.0678535
0.0673297
0.0669745
0.0667466
0.06661
0.0665361
0.0665053
0.0665073
0.0665405
0.0666124
0.066741
0.0669562
0.067303
0.067845
0.0686689
0.162504
0.0932496
0.0824005
0.0779456
0.0752107
0.0732767
0.0718545
0.0708101
0.0700593
0.069537
0.0691881
0.068966
0.0688328
0.06876
0.0687284
0.0687275
0.0687552
0.0688178
0.068931
0.0691211
0.0694273
0.0699047
0.0706278
0.189956
0.105864
0.0902482
0.0832768
0.0792974
0.0768097
0.0751729
0.0740656
0.0733119
0.0728053
0.0724734
0.0722641
0.0721386
0.072069
0.0720373
0.0720332
0.0720544
0.0721057
0.0721999
0.0723587
0.0726144
0.0730118
0.0736102
0.246423
0.129576
0.102134
0.090408
0.0846516
0.0815716
0.0797892
0.0786906
0.0779873
0.0775316
0.0772392
0.0770562
0.0769461
0.0768842
0.0768544
0.0768479
0.0768621
0.0769002
0.0769718
0.0770932
0.0772886
0.077591
0.0780426
0.40974
0.171533
0.115684
0.0976905
0.0907144
0.087594
0.0860092
0.0851146
0.0845718
0.0842306
0.0840145
0.0838797
0.083798
0.0837511
0.0837274
0.0837202
0.0837275
0.083751
0.0837965
0.0838743
0.0839997
0.0841929
0.0844789
1.58152
0.212743
0.117517
0.101124
0.0966594
0.0950511
0.0943282
0.0939438
0.0937163
0.0935743
0.093484
0.093427
0.0933919
0.0933712
0.09336
0.0933557
0.0933573
0.0933651
0.0933813
0.0934093
0.0934547
0.0935246
0.0936281
0.249229
0.192916
0.194217
0.254524
0.101312
0.102627
0.102937
0.102456
0.0831886
0.0848323
0.0848887
0.0835524
0.076789
0.0778617
0.0778247
0.0768531
0.0732705
0.0740323
0.0739501
0.0731738
0.0710043
0.0715907
0.071483
0.0708116
0.069493
0.0699763
0.0698529
0.0692408
0.0685046
0.0689276
0.068794
0.0682141
0.0678861
0.0682751
0.0681343
0.0675701
0.0675208
0.0678913
0.0677454
0.0671875
0.0673195
0.0676803
0.0675307
0.0669743
0.0672172
0.0675732
0.0674211
0.0668644
0.0671695
0.0675234
0.0673702
0.0668129
0.0671478
0.0675017
0.0673486
0.0667914
0.0671347
0.0674905
0.067339
0.0667831
0.0671195
0.0674795
0.0673316
0.0667783
0.0670959
0.0674631
0.0673211
0.0667721
0.0670604
0.0674383
0.0673047
0.0667621
0.0670121
0.0674044
0.067282
0.0667476
0.0669528
0.0673627
0.0672537
0.0667292
0.0668864
0.0673161
0.0672221
0.0667084
0.0668182
0.0672684
0.0671898
0.0666872
0.0667537
0.0672235
0.0671597
0.0666676
0.0666973
0.0671846
0.0671339
0.0666512
0.0666519
0.0671538
0.067114
0.0666392
0.0666189
0.0671322
0.067101
0.0666325
0.0665987
0.0671203
0.0670955
0.0666318
0.0665917
0.0671187
0.0670985
0.0666384
0.0665993
0.0671292
0.0671118
0.0666547
0.0666251
0.0671554
0.0671399
0.0666856
0.0666768
0.0672051
0.0671905
0.0667395
0.0667688
0.0672922
0.0672781
0.0668317
0.0669264
0.0674411
0.0674272
0.0669878
0.0671919
0.0676928
0.0676788
0.0672502
0.067634
0.0681142
0.0681
0.0676876
0.0683599
0.0688101
0.0687959
0.0684072
0.0695305
0.0699398
0.0699257
0.0695699
0.071378
0.071734
0.0717205
0.0714083
0.0742236
0.0745142
0.0745019
0.0742441
0.0784968
0.0787116
0.0787015
0.078508
0.0847578
0.0848894
0.0848824
0.0847609
0.0937252
0.093769
0.0937657
0.0937215
0.111562
0.0829265
0.0749734
0.0723851
0.0713914
0.0709459
0.0707259
0.0706177
0.0705739
0.0705743
0.0706125
0.0706867
0.0707843
0.070861
0.070818
0.0705169
0.0700004
0.0710107
0.0990523
0.0879949
0.0773304
0.0723653
0.0700172
0.0688357
0.0682037
0.0678588
0.0676829
0.06762
0.0676473
0.0677615
0.067969
0.0682715
0.0686489
0.0690489
0.0694275
0.0700353
0.0731894
0.108264
0.0786171
0.0732908
0.0700548
0.0681543
0.0670351
0.0663721
0.0659896
0.0657932
0.0657352
0.0657981
0.0659854
0.0663118
0.0667904
0.0674178
0.0681696
0.0690542
0.0704297
0.0749223
0.114384
0.0737843
0.0703956
0.068115
0.0666151
0.0656477
0.0650384
0.0646757
0.0644934
0.0644578
0.0645608
0.064814
0.06524
0.0658604
0.0666824
0.0676969
0.0689381
0.0708177
0.0761424
0.11842
0.0708035
0.0682877
0.0665616
0.0653727
0.064571
0.0640498
0.063737
0.0635887
0.0635852
0.0637285
0.0640383
0.064544
0.0652734
0.0662396
0.0674408
0.0689225
0.0711226
0.0769596
0.121053
0.0688038
0.0667524
0.065367
0.0644077
0.0637536
0.0633256
0.0630727
0.0629661
0.0629976
0.063178
0.063534
0.0641008
0.0649102
0.0659786
0.0673069
0.0689446
0.0713428
0.0774909
0.122743
0.0674402
0.0656566
0.0644861
0.0636906
0.063155
0.06281
0.0626143
0.0625487
0.0626129
0.062825
0.0632171
0.0638286
0.0646942
0.065832
0.0672432
0.0689784
0.0714952
0.0778287
0.123809
0.0665299
0.0649018
0.0638658
0.0631823
0.0627352
0.0624566
0.0623092
0.0622789
0.0623708
0.062608
0.0630268
0.0636697
0.0645732
0.0657558
0.0672189
0.0690125
0.0715981
0.0780396
0.124468
0.0659468
0.0644054
0.0634504
0.06284
0.0624547
0.0622252
0.0621149
0.0621122
0.0622257
0.0624816
0.0629192
0.063583
0.0645107
0.0657212
0.0672152
0.0690424
0.0716664
0.0781692
0.12487
0.0655925
0.064096
0.0631871
0.0626219
0.0622772
0.0620814
0.0619976
0.062015
0.0621439
0.0624129
0.0628629
0.06354
0.0644826
0.0657094
0.0672209
0.0690665
0.0717108
0.0782476
0.12511
0.0653905
0.0639149
0.0630304
0.0624913
0.0621716
0.0619975
0.0619312
0.061962
0.0621014
0.0623789
0.0628368
0.0635218
0.0644729
0.0657088
0.0672297
0.0690847
0.0717394
0.0782944
0.125252
0.0652839
0.0638165
0.0629436
0.0624185
0.0621132
0.0619522
0.0618967
0.061936
0.0620819
0.0623645
0.062827
0.0635165
0.0644722
0.0657128
0.0672383
0.0690978
0.0717574
0.078322
0.125335
0.065233
0.063768
0.0629
0.0623817
0.062084
0.0619302
0.061881
0.0619251
0.0620748
0.0623604
0.0628254
0.0635172
0.0644751
0.0657179
0.0672455
0.0691068
0.0717686
0.0783381
0.125382
0.065212
0.0637474
0.062881
0.0623656
0.0620715
0.0619215
0.0618754
0.0619222
0.0620738
0.0623609
0.0628271
0.06352
0.0644789
0.0657226
0.0672509
0.0691129
0.0717754
0.0783474
0.125409
0.0652052
0.063741
0.062875
0.0623605
0.0620679
0.0619194
0.0618749
0.0619229
0.0620754
0.0623632
0.0628299
0.0635231
0.0644823
0.0657263
0.0672548
0.0691168
0.0717796
0.0783527
0.125425
0.0652038
0.0637408
0.0628749
0.0623607
0.0620684
0.0619205
0.0618765
0.0619249
0.0620777
0.0623657
0.0628325
0.0635258
0.064485
0.0657289
0.0672573
0.0691193
0.071782
0.0783557
0.125433
0.0652029
0.0637424
0.062877
0.0623628
0.0620705
0.0619226
0.0618787
0.0619271
0.06208
0.0623679
0.0628347
0.0635279
0.064487
0.0657308
0.067259
0.0691208
0.0717834
0.0783574
0.125438
0.0652004
0.0637437
0.0628795
0.0623654
0.062073
0.0619249
0.0618808
0.0619291
0.0620818
0.0623696
0.0628363
0.0635293
0.0644883
0.065732
0.0672601
0.0691217
0.0717843
0.0783583
0.125441
0.0651956
0.0637442
0.0628816
0.0623678
0.0620753
0.0619269
0.0618826
0.0619307
0.0620832
0.0623709
0.0628374
0.0635304
0.0644892
0.0657328
0.0672608
0.0691223
0.0717848
0.0783588
0.125442
0.0651887
0.0637436
0.0628832
0.0623699
0.0620772
0.0619286
0.061884
0.061932
0.0620843
0.0623719
0.0628383
0.0635311
0.0644898
0.0657333
0.0672612
0.0691226
0.071785
0.0783592
0.125443
0.0651805
0.0637423
0.0628843
0.0623717
0.062079
0.0619302
0.0618853
0.0619331
0.0620853
0.0623727
0.0628389
0.0635317
0.0644903
0.0657337
0.0672615
0.0691229
0.0717852
0.0783593
0.125444
0.0651721
0.0637409
0.0628854
0.0623734
0.0620807
0.0619316
0.0618866
0.0619341
0.0620861
0.0623734
0.0628396
0.0635322
0.0644908
0.065734
0.0672618
0.0691231
0.0717854
0.0783595
0.125444
0.0651645
0.06374
0.0628868
0.0623753
0.0620825
0.0619333
0.061888
0.0619353
0.0620872
0.0623743
0.0628404
0.0635329
0.0644913
0.0657345
0.0672621
0.0691233
0.0717856
0.0783597
0.125445
0.0651589
0.0637402
0.0628889
0.0623778
0.062085
0.0619355
0.0618899
0.061937
0.0620887
0.0623757
0.0628415
0.0635339
0.0644922
0.0657352
0.0672627
0.0691238
0.0717859
0.07836
0.125446
0.065156
0.0637421
0.0628923
0.0623815
0.0620884
0.0619387
0.0618928
0.0619397
0.0620911
0.0623779
0.0628435
0.0635356
0.0644936
0.0657364
0.0672636
0.0691245
0.0717865
0.0783606
0.125447
0.0651567
0.0637466
0.0628979
0.0623872
0.0620939
0.0619438
0.0618976
0.0619441
0.0620953
0.0623817
0.062847
0.0635387
0.0644963
0.0657386
0.0672654
0.0691259
0.0717876
0.0783617
0.12545
0.0651621
0.0637552
0.0629073
0.0623965
0.0621028
0.0619523
0.0619057
0.0619518
0.0621025
0.0623884
0.0628531
0.0635442
0.0645011
0.0657427
0.0672687
0.0691285
0.0717897
0.0783638
0.125456
0.065174
0.06377
0.0629228
0.0624119
0.0621178
0.0619668
0.0619196
0.0619651
0.0621151
0.0624002
0.0628641
0.0635542
0.0645099
0.0657502
0.0672748
0.0691334
0.0717937
0.078368
0.125468
0.0651958
0.0637951
0.0629488
0.0624379
0.0621434
0.0619916
0.0619437
0.0619883
0.0621373
0.0624213
0.0628837
0.0635721
0.0645259
0.065764
0.0672863
0.0691427
0.0718014
0.078376
0.12549
0.0652335
0.0638373
0.0629927
0.062482
0.0621871
0.0620346
0.0619856
0.0620289
0.0621763
0.0624585
0.0629187
0.0636044
0.064555
0.0657894
0.0673079
0.0691604
0.0718162
0.0783916
0.125533
0.0652971
0.0639083
0.0630668
0.0625571
0.062262
0.0621085
0.062058
0.0620995
0.0622446
0.062524
0.0629808
0.0636623
0.0646078
0.0658364
0.0673483
0.0691944
0.0718452
0.0784223
0.125616
0.0654042
0.0640276
0.0631918
0.0626844
0.0623895
0.062235
0.0621827
0.0622215
0.0623633
0.0626385
0.0630902
0.0637653
0.0647031
0.0659224
0.067424
0.0692595
0.0719022
0.0784831
0.125777
0.0655836
0.064227
0.0634011
0.0628983
0.0626047
0.0624494
0.0623948
0.0624301
0.0625674
0.0628367
0.063281
0.063947
0.0648735
0.0660794
0.0675657
0.0693852
0.0720154
0.0786054
0.126093
0.0658822
0.0645574
0.0637483
0.0632539
0.0629634
0.0628078
0.0627506
0.0627817
0.0629129
0.0631744
0.0636087
0.0642624
0.065174
0.0663624
0.067829
0.0696281
0.0722433
0.0788559
0.126723
0.066374
0.0650979
0.0643155
0.0638351
0.0635508
0.0633964
0.063337
0.0633631
0.0634871
0.0637389
0.0641609
0.0647995
0.065694
0.0668641
0.0683129
0.0700971
0.0727077
0.0793808
0.127998
0.0671721
0.0659676
0.0652253
0.064767
0.0644936
0.0643428
0.0642822
0.0643036
0.0644197
0.0646604
0.0650684
0.065691
0.0665699
0.0677303
0.0691828
0.0709923
0.0736608
0.0805093
0.13063
0.0684433
0.0673385
0.0666534
0.0662277
0.0659715
0.0658283
0.0657689
0.0657867
0.065895
0.0661242
0.0665174
0.0671251
0.0679965
0.0691725
0.0706914
0.0726541
0.0755994
0.0829793
0.136165
0.0704238
0.0694508
0.0688427
0.0684623
0.0682314
0.0681011
0.0680463
0.0680626
0.068164
0.068381
0.0687583
0.0693519
0.0702269
0.0714613
0.0731681
0.075576
0.0793945
0.0883673
0.147944
0.0734359
0.072628
0.0721183
0.0717972
0.0716011
0.07149
0.0714442
0.0714614
0.0715559
0.0717579
0.0721131
0.0726845
0.0735614
0.0748873
0.0769326
0.0802672
0.086241
0.0996868
0.172999
0.0779067
0.0772955
0.0769056
0.0766583
0.0765069
0.0764218
0.0763888
0.0764079
0.0764927
0.0766706
0.0769852
0.0775028
0.0783346
0.079702
0.0821102
0.0867944
0.0969063
0.121846
0.227863
0.0843895
0.0840029
0.0837533
0.0835944
0.0834973
0.083444
0.0834261
0.0834448
0.0835109
0.0836453
0.0838819
0.0842765
0.0849357
0.0861074
0.0884589
0.093972
0.109183
0.160124
0.388892
0.0935926
0.0934554
0.0933657
0.0933086
0.0932742
0.0932563
0.0932524
0.0932633
0.093294
0.093353
0.0934547
0.0936229
0.0939065
0.0944328
0.0956098
0.0989999
0.112181
0.193592
1.44657
)
;

boundaryField
{
    leftWall
    {
        type            epsilonWallFunction;
        blending        stepwise;
        value           nonuniform List<scalar> 
50
(
3.11056
1.99652
1.99652
1.99652
1.99652
1.99652
1.99652
1.99652
1.99652
1.99652
1.99652
1.99652
1.99652
1.99652
1.99652
1.99652
1.99652
1.99652
1.99652
1.99652
1.99652
1.99652
1.99652
1.99652
1.99652
1.99652
1.99652
1.99652
0.183854
0.0787935
0.0896697
0.102944
0.112712
0.119564
0.124255
0.127393
0.129456
0.130818
0.131769
0.132556
0.133422
0.134685
0.136846
0.140809
0.148276
0.162504
0.189956
0.246423
0.40974
1.58152
)
;
    }
    rightWall
    {
        type            epsilonWallFunction;
        blending        stepwise;
        value           nonuniform List<scalar> 
50
(
0.0227581
0.0320878
0.0458552
0.0572963
0.0669303
0.0752441
0.0826078
0.0893065
0.0990523
0.108264
0.114384
0.11842
0.121053
0.122743
0.123809
0.124468
0.12487
0.12511
0.125252
0.125335
0.125382
0.125409
0.125425
0.125433
0.125438
0.125441
0.125442
0.125443
0.125444
0.125444
0.125445
0.125446
0.125447
0.12545
0.125456
0.125468
0.12549
0.125533
0.125616
0.125777
0.126093
0.126723
0.127998
0.13063
0.136165
0.147944
0.172999
0.227863
0.388892
1.44657
)
;
    }
    lowerWall
    {
        type            epsilonWallFunction;
        blending        stepwise;
        value           nonuniform List<scalar> 
62
(
3.11056
4.22461
4.22461
4.22461
4.22461
4.22461
4.22461
4.22461
4.22461
4.22461
4.22461
4.22461
4.22461
0.105926
0.0781904
0.108343
0.127239
0.136457
0.136546
0.126837
0.105529
0.069742
0.0185064
0.0185064
0.032188
0.049309
0.0645377
0.0795679
0.0975302
0.128021
0.210307
0.249229
0.192916
0.194217
0.254524
0.0205353
0.0326294
0.0496405
0.0649471
0.0803568
0.0992543
0.131507
0.213577
0.0205353
0.0781483
0.118816
0.145181
0.161757
0.171861
0.177736
0.180842
0.182063
0.181829
0.180195
0.17689
0.171349
0.162736
0.149963
0.131671
0.106045
0.0702889
0.0227581
)
;
    }
    atmosphere
    {
        type            inletOutlet;
        inletValue      uniform 0.1;
        value           uniform 0.1;
    }
    defaultFaces
    {
        type            empty;
    }
}


// ************************************************************************* //
