/*--------------------------------*- C++ -*----------------------------------*\
| =========                 |                                                 |
| \\      /  F ield         | OpenFOAM: The Open Source CFD Toolbox           |
|  \\    /   O peration     | Version:  2406                                  |
|   \\  /    A nd           | Website:  www.openfoam.com                      |
|    \\/     M anipulation  |                                                 |
\*---------------------------------------------------------------------------*/
FoamFile
{
    version     2.0;
    format      ascii;
    arch        "LSB;label=32;scalar=64";
    class       volScalarField;
    location    "0.4";
    object      epsilon;
}
// * * * * * * * * * * * * * * * * * * * * * * * * * * * * * * * * * * * * * //

dimensions      [0 2 -3 0 0 0 0];

internalField   nonuniform List<scalar> 
2268
(
0.0209133
0.0698199
0.108847
0.137512
0.158571
0.173972
0.185108
0.193021
0.198511
0.202188
0.204499
0.205744
0.206076
0.205497
0.20384
0.200727
0.195511
0.18716
0.174086
0.153885
0.123135
0.0778379
0.0190365
0.0329891
0.0486685
0.0641482
0.0756731
0.0839846
0.0899102
0.0940849
0.0969793
0.0989422
0.10023
0.101024
0.101441
0.101541
0.101321
0.100714
0.0995707
0.0976328
0.0944906
0.0895165
0.081778
0.0699934
0.0529311
0.0341531
0.0489519
0.0500821
0.0589249
0.0659967
0.0711316
0.0747531
0.0772628
0.0789723
0.0801119
0.0808476
0.0812943
0.0815245
0.0815735
0.0814399
0.0810821
0.0804098
0.0792692
0.0774218
0.0745173
0.0700717
0.0635083
0.0547198
0.053805
0.062596
0.0536604
0.0585996
0.0632105
0.0666587
0.0690926
0.0707629
0.0718847
0.0726212
0.0730894
0.0733692
0.0735103
0.0735366
0.0734472
0.0732154
0.0727838
0.0720583
0.0709018
0.0691372
0.0665781
0.0631618
0.0597308
0.0719368
0.0741501
0.0573599
0.0594807
0.062366
0.0646539
0.0662847
0.067395
0.0681287
0.0686004
0.0688935
0.0690643
0.0691473
0.0691591
0.0690999
0.0689533
0.0686857
0.0682461
0.0675734
0.0666249
0.0654648
0.0645299
0.065771
0.0899754
0.0839745
0.0607365
0.0606713
0.0622371
0.0636421
0.0646649
0.065353
0.0657947
0.0660673
0.0662282
0.0663163
0.0663549
0.0663555
0.0663189
0.0662371
0.0660948
0.0658744
0.0655744
0.0652614
0.0652218
0.066437
0.0725291
0.111085
0.0923604
0.0636918
0.0618722
0.0623898
0.0630918
0.063629
0.0639791
0.0641861
0.0642977
0.064351
0.0643709
0.0643725
0.0643629
0.0643438
0.0643135
0.0642708
0.0642242
0.0642175
0.064401
0.0652429
0.0682829
0.0798642
0.145672
0.099536
0.0662313
0.0629752
0.0626429
0.0627721
0.0629107
0.0629813
0.0629925
0.0629686
0.0629304
0.0628917
0.0628606
0.0628409
0.0628349
0.0628456
0.0628825
0.0629729
0.0631926
0.0637458
0.0652068
0.0694769
0.086225
0.237977
0.0209352
0.0844483
0.131369
0.161655
0.180501
0.191966
0.198691
0.202283
0.203662
0.203259
0.201131
0.197022
0.190383
0.180379
0.165839
0.145159
0.116075
0.0753835
0.0230643
0.0339016
0.0554809
0.0732121
0.0847911
0.0919821
0.0963231
0.0988436
0.100183
0.100708
0.100595
0.0998667
0.0984206
0.0960299
0.0923353
0.0868174
0.0787469
0.0671311
0.0509276
0.0331095
0.0525034
0.0560507
0.0653444
0.0718274
0.0759711
0.0785093
0.0799923
0.080784
0.0811013
0.0810491
0.080642
0.0798145
0.0784213
0.0762274
0.072889
0.0679332
0.0607967
0.0513642
0.0481044
0.069565
0.0602408
0.0641512
0.0676077
0.0700308
0.071589
0.0725238
0.0730311
0.0732395
0.0732134
0.0729602
0.0724338
0.0715319
0.0700882
0.0678618
0.0645401
0.0598456
0.0543276
0.0608384
0.0866337
0.0655473
0.0648345
0.0659491
0.067115
0.0679795
0.0685336
0.0688457
0.0689791
0.0689686
0.0688156
0.0684862
0.0679076
0.0669617
0.0654821
0.0632759
0.0602806
0.057562
0.0715979
0.107043
0.0715134
0.0661271
0.0652625
0.0654358
0.0657642
0.0660264
0.0661896
0.066266
0.0662674
0.0661901
0.0660093
0.0656739
0.0651025
0.0641866
0.0628264
0.061126
0.0605661
0.0807387
0.14109
0.077864
0.0674274
0.064929
0.0643278
0.0642378
0.0642707
0.0643165
0.0643486
0.0643611
0.0643462
0.0642861
0.0641466
0.0638756
0.06341
0.0627232
0.0620502
0.0632156
0.0885376
0.227945
0.083118
0.0682344
0.0646409
0.0634884
0.0630837
0.0629387
0.0628926
0.0628911
0.0629152
0.0629546
0.0629969
0.0630217
0.063
0.0629049
0.0627677
0.0629272
0.0655001
0.0952079
0.109216
0.0696143
0.0644924
0.0630695
0.0624595
0.0620789
0.0617814
0.0615324
0.0613263
0.0611634
0.0610436
0.0609659
0.0609299
0.060938
0.0609986
0.0611326
0.0613872
0.0618675
0.0628126
0.0647976
0.0693309
0.0809628
0.116182
0.118547
0.07279
0.0659309
0.0635125
0.0622206
0.0613502
0.0606965
0.0601886
0.059796
0.0595014
0.0592922
0.0591593
0.0590977
0.0591079
0.0591998
0.0593978
0.0597519
0.0603596
0.0614106
0.0632781
0.0667021
0.0731174
0.0849694
0.125151
0.0749542
0.0668906
0.063792
0.0620292
0.0608125
0.0599
0.0591982
0.0586615
0.0582615
0.0579775
0.0577945
0.0577033
0.0577014
0.057796
0.0580074
0.0583755
0.058971
0.0599127
0.0613926
0.063693
0.0671355
0.0717367
0.12976
0.0764098
0.0675137
0.0639485
0.0618581
0.0603947
0.0592924
0.0584443
0.0577953
0.0573101
0.0569627
0.0567339
0.0566103
0.0565859
0.0566631
0.0568547
0.0571866
0.0577016
0.0584617
0.0595467
0.061033
0.0629222
0.0649706
0.13292
0.0773743
0.06791
0.0640257
0.0617073
0.0600679
0.0588262
0.0578673
0.0571306
0.0565765
0.0561755
0.0559048
0.0557478
0.0556946
0.0557423
0.0558959
0.0561683
0.0565805
0.0571584
0.0579244
0.0588783
0.059957
0.0609783
0.135046
0.0780034
0.0681576
0.0640572
0.0615809
0.059816
0.0584722
0.0574297
0.0566247
0.056015
0.0555687
0.0552605
0.055071
0.0549864
0.0549992
0.0551074
0.0553143
0.0556259
0.0560481
0.0565783
0.0571938
0.057835
0.0583913
0.136448
0.0784072
0.0683098
0.0640651
0.0614803
0.0596267
0.0582084
0.0571031
0.0562452
0.0555911
0.0551071
0.0547661
0.0545461
0.0544305
0.0544078
0.0544706
0.0546153
0.0548392
0.0551379
0.0554998
0.0559
0.056294
0.0566173
0.137354
0.0786621
0.0684023
0.0640626
0.0614041
0.0594883
0.0580162
0.0568642
0.0559659
0.0552767
0.0547618
0.0543926
0.0541455
0.0540013
0.0539454
0.0539668
0.0540573
0.0542092
0.0544138
0.0546572
0.0549182
0.0551661
0.0553624
0.137929
0.0788206
0.0684579
0.0640567
0.0613489
0.0593901
0.0578796
0.0566933
0.0557645
0.055048
0.0545083
0.0541158
0.0538453
0.0536761
0.0535912
0.053577
0.0536225
0.0537178
0.0538521
0.0540125
0.0541821
0.0543398
0.0544623
0.138287
0.0789177
0.0684911
0.0640507
0.0613106
0.0593224
0.057785
0.056574
0.0556225
0.0548851
0.054326
0.0539146
0.0536248
0.0534346
0.0533254
0.0532821
0.0532918
0.0533436
0.0534264
0.0535287
0.0536373
0.0537377
0.0538151
0.138507
0.0789764
0.0685108
0.064046
0.0612848
0.0592771
0.0577211
0.0564926
0.0555246
0.0547717
0.0541975
0.0537713
0.0534661
0.053259
0.0531303
0.0530639
0.0530461
0.0530652
0.0531108
0.0531726
0.0532402
0.0533032
0.0533522
0.13864
0.0790115
0.0685224
0.0640427
0.0612682
0.0592476
0.0576791
0.0564383
0.0554586
0.0546943
0.054109
0.0536714
0.0533543
0.053134
0.0529902
0.0529061
0.0528676
0.0528629
0.0528819
0.0529155
0.0529554
0.0529939
0.0530245
0.138719
0.0790322
0.0685293
0.0640406
0.0612578
0.0592289
0.057652
0.056403
0.0554151
0.0546427
0.0540493
0.0536033
0.0532772
0.0530469
0.0528918
0.0527945
0.0527409
0.0527191
0.0527194
0.0527336
0.0527549
0.0527771
0.0527957
0.138765
0.0790444
0.0685334
0.0640393
0.0612515
0.0592173
0.0576351
0.0563806
0.0553871
0.054609
0.0540098
0.0535577
0.0532251
0.0529875
0.0528241
0.0527174
0.0526529
0.0526191
0.0526065
0.0526076
0.0526163
0.0526278
0.0526385
0.138792
0.0790514
0.0685359
0.0640387
0.0612478
0.0592104
0.0576247
0.0563666
0.0553694
0.0545875
0.0539842
0.0535279
0.0531906
0.0529478
0.0527786
0.0526652
0.0525932
0.052551
0.0525297
0.0525219
0.0525223
0.0525268
0.0525325
0.138808
0.0790555
0.0685373
0.0640383
0.0612456
0.0592063
0.0576185
0.0563581
0.0553584
0.054574
0.053968
0.0535088
0.0531683
0.0529219
0.0527486
0.0526306
0.0525534
0.0525057
0.0524785
0.0524649
0.0524599
0.0524599
0.0524623
0.138817
0.0790578
0.0685382
0.0640382
0.0612444
0.0592039
0.0576148
0.056353
0.0553518
0.0545657
0.0539579
0.0534967
0.0531541
0.0529053
0.0527292
0.0526081
0.0525276
0.0524762
0.0524451
0.0524278
0.0524193
0.0524163
0.0524167
0.138822
0.0790591
0.0685387
0.0640381
0.0612438
0.0592026
0.0576127
0.05635
0.0553479
0.0545607
0.0539518
0.0534893
0.0531452
0.0528948
0.0527169
0.0525938
0.0525111
0.0524573
0.0524238
0.052404
0.0523933
0.0523886
0.0523876
0.138825
0.0790598
0.068539
0.0640381
0.0612435
0.0592019
0.0576116
0.0563483
0.0553456
0.0545577
0.0539481
0.0534848
0.0531398
0.0528884
0.0527093
0.0525849
0.0525008
0.0524455
0.0524104
0.0523891
0.0523771
0.0523712
0.0523694
0.138827
0.0790602
0.0685391
0.0640381
0.0612433
0.0592015
0.0576109
0.0563474
0.0553443
0.054556
0.0539459
0.0534821
0.0531366
0.0528845
0.0527047
0.0525795
0.0524944
0.0524382
0.0524022
0.05238
0.0523671
0.0523605
0.0523582
0.138827
0.0790604
0.0685392
0.0640381
0.0612432
0.0592013
0.0576106
0.0563468
0.0553435
0.054555
0.0539447
0.0534806
0.0531346
0.0528822
0.0527019
0.0525762
0.0524906
0.0524338
0.0523972
0.0523745
0.0523611
0.052354
0.0523515
0.138828
0.0790606
0.0685393
0.0640382
0.0612432
0.0592012
0.0576104
0.0563466
0.0553431
0.0545545
0.053944
0.0534797
0.0531335
0.0528808
0.0527003
0.0525743
0.0524884
0.0524312
0.0523943
0.0523712
0.0523575
0.0523502
0.0523475
0.138828
0.0790606
0.0685393
0.0640382
0.0612432
0.0592012
0.0576103
0.0563464
0.0553429
0.0545542
0.0539436
0.0534792
0.0531329
0.05288
0.0526994
0.0525732
0.0524871
0.0524297
0.0523926
0.0523693
0.0523554
0.052348
0.0523452
0.138828
0.0790607
0.0685393
0.0640382
0.0612432
0.0592011
0.0576102
0.0563463
0.0553428
0.054554
0.0539433
0.0534789
0.0531325
0.0528796
0.0526988
0.0525725
0.0524863
0.0524288
0.0523916
0.0523682
0.0523542
0.0523467
0.0523438
0.138828
0.0790607
0.0685393
0.0640382
0.0612432
0.0592011
0.0576102
0.0563463
0.0553427
0.054554
0.0539432
0.0534787
0.0531323
0.0528794
0.0526985
0.0525722
0.0524859
0.0524284
0.052391
0.0523676
0.0523535
0.052346
0.0523431
0.138829
0.0790607
0.0685394
0.0640382
0.0612432
0.0592011
0.0576102
0.0563463
0.0553427
0.0545539
0.0539432
0.0534787
0.0531322
0.0528792
0.0526984
0.052572
0.0524857
0.0524281
0.0523907
0.0523672
0.0523532
0.0523456
0.0523427
0.138829
0.0790607
0.0685394
0.0640382
0.0612432
0.0592011
0.0576102
0.0563463
0.0553427
0.0545539
0.0539431
0.0534786
0.0531322
0.0528792
0.0526983
0.0525719
0.0524855
0.0524279
0.0523905
0.052367
0.052353
0.0523454
0.0523424
0.138829
0.0790607
0.0685394
0.0640382
0.0612432
0.0592011
0.0576102
0.0563463
0.0553427
0.0545539
0.0539431
0.0534786
0.0531322
0.0528791
0.0526983
0.0525718
0.0524855
0.0524279
0.0523905
0.0523669
0.0523529
0.0523453
0.0523423
0.138829
0.0790607
0.0685394
0.0640382
0.0612432
0.0592011
0.0576102
0.0563463
0.0553427
0.0545539
0.0539431
0.0534786
0.0531321
0.0528791
0.0526982
0.0525718
0.0524854
0.0524278
0.0523904
0.0523669
0.0523528
0.0523452
0.0523423
0.138829
0.0790607
0.0685394
0.0640382
0.0612432
0.0592011
0.0576102
0.0563463
0.0553427
0.0545539
0.0539431
0.0534786
0.0531321
0.0528791
0.0526982
0.0525718
0.0524854
0.0524278
0.0523904
0.0523668
0.0523528
0.0523452
0.0523422
0.138829
0.0790607
0.0685394
0.0640382
0.0612432
0.0592011
0.0576102
0.0563463
0.0553427
0.0545539
0.0539431
0.0534786
0.0531321
0.0528791
0.0526982
0.0525718
0.0524854
0.0524278
0.0523904
0.0523668
0.0523527
0.0523451
0.0523422
0.138829
0.0790607
0.0685394
0.0640382
0.0612432
0.0592011
0.0576102
0.0563463
0.0553427
0.0545539
0.0539431
0.0534786
0.0531321
0.0528791
0.0526982
0.0525718
0.0524854
0.0524278
0.0523904
0.0523668
0.0523527
0.0523451
0.0523422
0.138829
0.0790607
0.0685394
0.0640382
0.0612432
0.0592011
0.0576102
0.0563463
0.0553427
0.0545539
0.0539431
0.0534786
0.0531321
0.0528791
0.0526982
0.0525718
0.0524854
0.0524278
0.0523903
0.0523668
0.0523527
0.0523451
0.0523422
0.138829
0.0790607
0.0685394
0.0640382
0.0612432
0.0592011
0.0576102
0.0563463
0.0553427
0.0545539
0.0539431
0.0534786
0.0531321
0.0528791
0.0526982
0.0525718
0.0524854
0.0524278
0.0523903
0.0523668
0.0523527
0.0523451
0.0523421
0.138829
0.0790607
0.0685394
0.0640382
0.0612432
0.0592011
0.0576102
0.0563463
0.0553427
0.0545539
0.0539431
0.0534786
0.0531321
0.0528791
0.0526982
0.0525718
0.0524854
0.0524278
0.0523903
0.0523668
0.0523527
0.0523451
0.0523421
0.138829
0.0790607
0.0685394
0.0640382
0.0612432
0.0592011
0.0576102
0.0563463
0.0553427
0.0545539
0.0539431
0.0534786
0.0531321
0.0528791
0.0526982
0.0525717
0.0524854
0.0524277
0.0523903
0.0523668
0.0523527
0.052345
0.0523421
0.138829
0.0790607
0.0685394
0.0640382
0.0612432
0.0592011
0.0576102
0.0563463
0.0553427
0.0545539
0.0539431
0.0534786
0.0531321
0.0528791
0.0526982
0.0525717
0.0524854
0.0524277
0.0523903
0.0523667
0.0523526
0.052345
0.052342
0.138829
0.0790607
0.0685394
0.0640382
0.0612432
0.0592011
0.0576102
0.0563463
0.0553427
0.0545539
0.0539431
0.0534786
0.0531321
0.0528791
0.0526982
0.0525717
0.0524853
0.0524277
0.0523903
0.0523667
0.0523526
0.052345
0.052342
0.138829
0.0790607
0.0685394
0.0640382
0.0612432
0.0592011
0.0576102
0.0563462
0.0553427
0.0545539
0.0539431
0.0534786
0.0531321
0.0528791
0.0526982
0.0525717
0.0524853
0.0524277
0.0523903
0.0523667
0.0523526
0.0523449
0.0523419
0.138829
0.0790607
0.0685394
0.0640382
0.0612432
0.0592011
0.0576102
0.0563462
0.0553427
0.0545539
0.0539431
0.0534786
0.0531321
0.052879
0.0526982
0.0525717
0.0524853
0.0524277
0.0523902
0.0523667
0.0523525
0.0523449
0.0523419
0.138829
0.0790607
0.0685394
0.0640382
0.0612432
0.0592011
0.0576102
0.0563462
0.0553427
0.0545539
0.0539431
0.0534786
0.0531321
0.052879
0.0526982
0.0525717
0.0524853
0.0524277
0.0523902
0.0523666
0.0523525
0.0523448
0.0523418
0.138829
0.0790607
0.0685394
0.0640382
0.0612432
0.0592011
0.0576102
0.0563462
0.0553427
0.0545539
0.0539431
0.0534786
0.0531321
0.052879
0.0526982
0.0525717
0.0524853
0.0524277
0.0523902
0.0523666
0.0523525
0.0523448
0.0523418
0.278371
0.214359
0.213884
0.27563
0.0994868
0.100186
0.100142
0.0993928
0.0748738
0.0757556
0.0757515
0.0748668
0.0660429
0.0664036
0.0664048
0.0660471
0.0614463
0.0616061
0.0616082
0.061453
0.0586285
0.058709
0.0587113
0.0586353
0.0567498
0.0567948
0.0567969
0.0567563
0.0554414
0.0554684
0.0554704
0.0554474
0.0545114
0.0545284
0.0545303
0.0545172
0.0538464
0.0538575
0.0538594
0.053852
0.0533724
0.0533799
0.0533817
0.0533779
0.0530376
0.0530428
0.0530446
0.0530432
0.0528043
0.052808
0.0528099
0.0528099
0.0526442
0.052647
0.0526488
0.0526498
0.0525363
0.0525385
0.0525403
0.0525419
0.0524649
0.0524667
0.0524685
0.0524705
0.0524185
0.05242
0.0524219
0.0524242
0.0523889
0.0523903
0.0523922
0.0523946
0.0523704
0.0523717
0.0523736
0.0523762
0.0523591
0.0523603
0.0523622
0.0523648
0.0523522
0.0523534
0.0523553
0.052358
0.0523482
0.0523494
0.0523512
0.0523539
0.0523458
0.052347
0.0523489
0.0523516
0.0523445
0.0523456
0.0523475
0.0523502
0.0523437
0.0523449
0.0523468
0.0523495
0.0523433
0.0523444
0.0523463
0.052349
0.0523431
0.0523442
0.0523461
0.0523488
0.0523429
0.0523441
0.052346
0.0523487
0.0523429
0.052344
0.0523459
0.0523486
0.0523428
0.052344
0.0523459
0.0523486
0.0523428
0.052344
0.0523458
0.0523486
0.0523428
0.0523439
0.0523458
0.0523485
0.0523428
0.0523439
0.0523458
0.0523485
0.0523427
0.0523439
0.0523458
0.0523485
0.0523427
0.0523439
0.0523458
0.0523485
0.0523427
0.0523438
0.0523457
0.0523484
0.0523426
0.0523438
0.0523457
0.0523484
0.0523426
0.0523437
0.0523456
0.0523483
0.0523425
0.0523436
0.0523455
0.0523483
0.0523424
0.0523436
0.0523454
0.0523482
0.0523423
0.0523435
0.0523454
0.0523481
0.0523423
0.0523434
0.0523453
0.052348
0.113314
0.0788158
0.0680061
0.0640201
0.0623618
0.061613
0.0612613
0.0611064
0.0610674
0.0611119
0.0612273
0.0614089
0.0616537
0.0619618
0.0623512
0.0629247
0.0641525
0.0685467
0.1042
0.0841596
0.0719803
0.0657244
0.0625579
0.0609171
0.060046
0.059587
0.0593714
0.0593209
0.0594021
0.0596055
0.0599348
0.060403
0.0610349
0.0618862
0.0631192
0.0653223
0.0714024
0.112851
0.0715076
0.0665739
0.0630647
0.0608409
0.0594876
0.0586836
0.0582305
0.0580169
0.0579853
0.0581119
0.0583937
0.0588426
0.0594826
0.060354
0.0615359
0.0632277
0.0660977
0.0733418
0.118962
0.0649016
0.0626447
0.0606515
0.0591635
0.058141
0.0574813
0.0570949
0.0569219
0.0569297
0.0571072
0.05746
0.0580072
0.0587808
0.0598315
0.0612521
0.0632657
0.0665944
0.074641
0.123219
0.0609585
0.0598174
0.0586533
0.0576753
0.0569407
0.0564394
0.0561438
0.0560307
0.0560885
0.0563189
0.0567355
0.057364
0.0582423
0.0594275
0.0610212
0.0632611
0.0669046
0.0754986
0.126133
0.0583886
0.057765
0.0570653
0.0564272
0.055918
0.0555605
0.0553581
0.0553106
0.0554217
0.0557034
0.0561766
0.0568721
0.0578323
0.0591187
0.0608379
0.0632363
0.0670944
0.0760562
0.128091
0.0566213
0.0562612
0.0558316
0.0554184
0.0550773
0.0548395
0.0547219
0.0547372
0.0548996
0.0552285
0.0557507
0.056501
0.0575251
0.0588872
0.0606969
0.0632058
0.0672086
0.0764132
0.129381
0.0553696
0.0551545
0.0548882
0.0546248
0.0544065
0.0542636
0.054218
0.0542891
0.0544975
0.054868
0.0554315
0.056226
0.0572995
0.0587178
0.0605923
0.0631774
0.0672762
0.0766382
0.130215
0.0544712
0.0543411
0.0541772
0.0540146
0.053885
0.053815
0.0538278
0.0539459
0.0541937
0.0545994
0.0551968
0.0560263
0.0571373
0.0585969
0.0605173
0.0631542
0.067316
0.076778
0.130744
0.053825
0.0537472
0.0536494
0.0535553
0.0534891
0.053474
0.0535326
0.0536887
0.0539687
0.0544031
0.0550277
0.0558842
0.0570234
0.0585129
0.0604652
0.0631369
0.0673392
0.0768637
0.131075
0.0533628
0.0533182
0.0532637
0.0532164
0.0531954
0.0532208
0.0533144
0.0535001
0.0538056
0.0542626
0.0549083
0.0557854
0.0569453
0.0584559
0.0604302
0.0631248
0.0673528
0.0769156
0.131278
0.0530356
0.0530126
0.0529869
0.0529716
0.0529823
0.0530371
0.0531566
0.0533648
0.0536898
0.0541643
0.0548258
0.0557181
0.0568928
0.0584183
0.0604073
0.0631168
0.0673608
0.0769467
0.131401
0.0528072
0.0527984
0.0527918
0.0527982
0.052831
0.0529067
0.0530451
0.05327
0.0536095
0.0540968
0.0547701
0.0556733
0.0568585
0.058394
0.0603928
0.0631118
0.0673655
0.0769652
0.131475
0.0526504
0.0526508
0.052657
0.052678
0.052726
0.0528163
0.0529681
0.0532048
0.0535549
0.0540515
0.0547331
0.0556441
0.0568364
0.0583787
0.0603838
0.0631087
0.0673683
0.076976
0.131518
0.0525446
0.052551
0.0525656
0.0525964
0.0526547
0.052755
0.052916
0.0531611
0.0535185
0.0540217
0.0547092
0.0556254
0.0568226
0.0583692
0.0603783
0.0631069
0.06737
0.0769823
0.131544
0.0524746
0.0524849
0.0525049
0.0525421
0.0526072
0.0527142
0.0528815
0.0531323
0.0534948
0.0540024
0.0546939
0.0556137
0.056814
0.0583636
0.0603751
0.0631059
0.067371
0.076986
0.131559
0.052429
0.0524418
0.0524654
0.0525068
0.0525763
0.0526877
0.0528592
0.0531138
0.0534797
0.0539903
0.0546844
0.0556065
0.0568089
0.0583602
0.0603733
0.0631053
0.0673716
0.0769881
0.131567
0.0524
0.0524144
0.0524401
0.0524842
0.0525565
0.0526708
0.052845
0.0531021
0.0534702
0.0539828
0.0546786
0.0556022
0.0568058
0.0583582
0.0603723
0.0631051
0.067372
0.0769893
0.131572
0.0523819
0.0523972
0.0524243
0.05247
0.0525442
0.0526602
0.0528362
0.0530949
0.0534644
0.0539782
0.0546751
0.0555996
0.0568041
0.0583571
0.0603717
0.0631049
0.0673722
0.07699
0.131575
0.0523708
0.0523867
0.0524146
0.0524613
0.0525366
0.0526538
0.0528308
0.0530904
0.0534609
0.0539755
0.0546731
0.0555981
0.0568031
0.0583565
0.0603714
0.0631049
0.0673723
0.0769904
0.131577
0.052364
0.0523803
0.0524088
0.0524561
0.052532
0.0526499
0.0528276
0.0530878
0.0534588
0.0539739
0.0546719
0.0555973
0.0568025
0.0583562
0.0603712
0.0631048
0.0673724
0.0769906
0.131577
0.0523601
0.0523766
0.0524053
0.052453
0.0525293
0.0526476
0.0528257
0.0530863
0.0534576
0.0539729
0.0546712
0.0555968
0.0568022
0.058356
0.0603712
0.0631048
0.0673725
0.0769907
0.131578
0.0523578
0.0523744
0.0524033
0.0524512
0.0525277
0.0526463
0.0528245
0.0530854
0.0534569
0.0539724
0.0546708
0.0555965
0.056802
0.0583559
0.0603711
0.0631048
0.0673725
0.0769908
0.131578
0.0523564
0.0523731
0.0524021
0.0524502
0.0525268
0.0526455
0.0528239
0.0530849
0.0534565
0.0539721
0.0546706
0.0555964
0.0568019
0.0583559
0.0603711
0.0631048
0.0673725
0.0769908
0.131578
0.0523557
0.0523724
0.0524015
0.0524496
0.0525263
0.0526451
0.0528236
0.0530846
0.0534563
0.053972
0.0546705
0.0555963
0.0568019
0.0583558
0.0603711
0.0631048
0.0673725
0.0769909
0.131578
0.0523553
0.052372
0.0524011
0.0524493
0.0525261
0.0526448
0.0528234
0.0530845
0.0534562
0.0539719
0.0546704
0.0555963
0.0568019
0.0583558
0.0603711
0.0631048
0.0673725
0.0769909
0.131579
0.052355
0.0523718
0.0524009
0.0524491
0.0525259
0.0526447
0.0528233
0.0530844
0.0534561
0.0539718
0.0546704
0.0555963
0.0568019
0.0583558
0.0603711
0.0631048
0.0673725
0.0769909
0.131579
0.0523549
0.0523717
0.0524008
0.052449
0.0525258
0.0526446
0.0528232
0.0530843
0.0534561
0.0539718
0.0546704
0.0555963
0.0568019
0.0583558
0.0603711
0.0631048
0.0673725
0.0769909
0.131579
0.0523549
0.0523716
0.0524008
0.052449
0.0525258
0.0526446
0.0528232
0.0530843
0.053456
0.0539718
0.0546704
0.0555962
0.0568019
0.0583558
0.0603711
0.0631048
0.0673725
0.0769909
0.131579
0.0523548
0.0523716
0.0524007
0.0524489
0.0525258
0.0526446
0.0528232
0.0530843
0.053456
0.0539718
0.0546704
0.0555962
0.0568019
0.0583558
0.0603711
0.0631048
0.0673725
0.0769909
0.131579
0.0523548
0.0523716
0.0524007
0.0524489
0.0525257
0.0526446
0.0528232
0.0530843
0.053456
0.0539718
0.0546704
0.0555962
0.0568019
0.0583558
0.0603711
0.0631048
0.0673725
0.0769909
0.131579
0.0523548
0.0523716
0.0524007
0.0524489
0.0525257
0.0526446
0.0528232
0.0530843
0.053456
0.0539718
0.0546704
0.0555962
0.0568019
0.0583558
0.0603711
0.0631048
0.0673725
0.0769909
0.131579
0.0523548
0.0523715
0.0524007
0.0524489
0.0525257
0.0526446
0.0528232
0.0530843
0.053456
0.0539718
0.0546704
0.0555962
0.0568019
0.0583558
0.0603711
0.0631048
0.0673725
0.0769909
0.131579
0.0523547
0.0523715
0.0524007
0.0524489
0.0525257
0.0526445
0.0528232
0.0530843
0.053456
0.0539718
0.0546704
0.0555962
0.0568019
0.0583558
0.0603711
0.0631048
0.0673725
0.0769909
0.131579
0.0523547
0.0523715
0.0524007
0.0524488
0.0525257
0.0526445
0.0528231
0.0530843
0.053456
0.0539718
0.0546704
0.0555962
0.0568019
0.0583558
0.0603711
0.0631048
0.0673725
0.0769909
0.131579
0.0523547
0.0523715
0.0524006
0.0524488
0.0525257
0.0526445
0.0528231
0.0530843
0.053456
0.0539718
0.0546704
0.0555962
0.0568019
0.0583558
0.0603711
0.0631048
0.0673725
0.0769909
0.131579
0.0523546
0.0523714
0.0524006
0.0524488
0.0525257
0.0526445
0.0528231
0.0530843
0.053456
0.0539718
0.0546704
0.0555962
0.0568019
0.0583558
0.0603711
0.0631048
0.0673725
0.0769909
0.131579
0.0523546
0.0523714
0.0524006
0.0524488
0.0525256
0.0526445
0.0528231
0.0530843
0.053456
0.0539718
0.0546704
0.0555962
0.0568018
0.0583558
0.0603711
0.0631048
0.0673725
0.0769909
0.131579
0.0523545
0.0523713
0.0524005
0.0524488
0.0525256
0.0526445
0.0528231
0.0530843
0.053456
0.0539718
0.0546703
0.0555962
0.0568018
0.0583558
0.0603711
0.0631048
0.0673725
0.0769909
0.131579
0.0523544
0.0523713
0.0524005
0.0524487
0.0525256
0.0526445
0.0528231
0.0530843
0.053456
0.0539718
0.0546703
0.0555962
0.0568018
0.0583558
0.0603711
0.0631048
0.0673725
0.0769909
0.131579
0.0523544
0.0523712
0.0524005
0.0524487
0.0525256
0.0526445
0.0528231
0.0530842
0.053456
0.0539718
0.0546703
0.0555962
0.0568018
0.0583558
0.0603711
0.0631048
0.0673725
0.0769909
0.131579
0.0523543
0.0523712
0.0524004
0.0524487
0.0525256
0.0526445
0.0528231
0.0530842
0.053456
0.0539718
0.0546703
0.0555962
0.0568018
0.0583558
0.0603711
0.0631048
0.0673725
0.0769909
0.131579
)
;

boundaryField
{
    leftWall
    {
        type            epsilonWallFunction;
        blending        stepwise;
        value           nonuniform List<scalar> 
50
(
0.0209133
0.0329891
0.0489519
0.062596
0.0741501
0.0839745
0.0923604
0.099536
0.109216
0.118547
0.125151
0.12976
0.13292
0.135046
0.136448
0.137354
0.137929
0.138287
0.138507
0.13864
0.138719
0.138765
0.138792
0.138808
0.138817
0.138822
0.138825
0.138827
0.138827
0.138828
0.138828
0.138828
0.138828
0.138829
0.138829
0.138829
0.138829
0.138829
0.138829
0.138829
0.138829
0.138829
0.138829
0.138829
0.138829
0.138829
0.138829
0.138829
0.138829
0.138829
)
;
    }
    rightWall
    {
        type            epsilonWallFunction;
        blending        stepwise;
        value           nonuniform List<scalar> 
50
(
0.0230643
0.0331095
0.0481044
0.0608384
0.0715979
0.0807387
0.0885376
0.0952079
0.1042
0.112851
0.118962
0.123219
0.126133
0.128091
0.129381
0.130215
0.130744
0.131075
0.131278
0.131401
0.131475
0.131518
0.131544
0.131559
0.131567
0.131572
0.131575
0.131577
0.131577
0.131578
0.131578
0.131578
0.131578
0.131579
0.131579
0.131579
0.131579
0.131579
0.131579
0.131579
0.131579
0.131579
0.131579
0.131579
0.131579
0.131579
0.131579
0.131579
0.131579
0.131579
)
;
    }
    lowerWall
    {
        type            epsilonWallFunction;
        blending        stepwise;
        value           nonuniform List<scalar> 
62
(
0.0209133
0.0698199
0.108847
0.137512
0.158571
0.173972
0.185108
0.193021
0.198511
0.202188
0.204499
0.205744
0.206076
0.205497
0.20384
0.200727
0.195511
0.18716
0.174086
0.153885
0.123135
0.0778379
0.0190365
0.0190365
0.0341531
0.053805
0.0719368
0.0899754
0.111085
0.145672
0.237977
0.278371
0.214359
0.213884
0.27563
0.0209352
0.0339016
0.0525034
0.069565
0.0866337
0.107043
0.14109
0.227945
0.0209352
0.0844483
0.131369
0.161655
0.180501
0.191966
0.198691
0.202283
0.203662
0.203259
0.201131
0.197022
0.190383
0.180379
0.165839
0.145159
0.116075
0.0753835
0.0230643
)
;
    }
    atmosphere
    {
        type            inletOutlet;
        inletValue      uniform 0.1;
        value           nonuniform List<scalar> 
46
(
0.138829
0.0790607
0.0685394
0.0640382
0.0612432
0.0592011
0.0576102
0.0563462
0.0553427
0.0545539
0.0539431
0.0534786
0.0531321
0.052879
0.0526982
0.0525717
0.0524853
0.0524277
0.0523902
0.0523666
0.0523525
0.0523448
0.0523418
0.0523423
0.0523434
0.0523453
0.052348
0.0523543
0.0523712
0.0524004
0.0524487
0.0525256
0.0526445
0.0528231
0.0530842
0.053456
0.0539718
0.0546703
0.0555962
0.0568018
0.0583558
0.0603711
0.0631048
0.0673725
0.0769909
0.131579
)
;
    }
    defaultFaces
    {
        type            empty;
    }
}


// ************************************************************************* //
