/*--------------------------------*- C++ -*----------------------------------*\
| =========                 |                                                 |
| \\      /  F ield         | OpenFOAM: The Open Source CFD Toolbox           |
|  \\    /   O peration     | Version:  2406                                  |
|   \\  /    A nd           | Website:  www.openfoam.com                      |
|    \\/     M anipulation  |                                                 |
\*---------------------------------------------------------------------------*/
FoamFile
{
    version     2.0;
    format      ascii;
    arch        "LSB;label=32;scalar=64";
    class       volScalarField;
    location    "0.4";
    object      k;
}
// * * * * * * * * * * * * * * * * * * * * * * * * * * * * * * * * * * * * * //

dimensions      [0 2 -2 0 0 0 0];

internalField   nonuniform List<scalar> 
2268
(
0.1
0.1
0.1
0.1
0.1
0.1
0.1
0.1
0.1
0.1
0.1
0.1
0.1
0.00834279
0.00648596
0.00811738
0.00906753
0.00951987
0.00953615
0.00908443
0.00803528
0.00608698
0.00247429
0.1
0.1
0.1
0.1
0.1
0.1
0.1
0.1
0.1
0.1
0.1
0.1
0.1
0.0119185
0.0151392
0.0184518
0.0204319
0.0213903
0.0214286
0.0204735
0.0182491
0.0141374
0.00593046
0.1
0.1
0.1
0.1
0.1
0.1
0.1
0.1
0.1
0.1
0.1
0.1
0.1
0.0151298
0.0198001
0.0237634
0.0261626
0.0273476
0.0274233
0.0262961
0.023624
0.0186013
0.00792541
0.1
0.1
0.1
0.1
0.1
0.1
0.1
0.1
0.1
0.1
0.1
0.1
0.1
0.0177042
0.0232234
0.0275762
0.0302231
0.0315575
0.0316899
0.0305173
0.027651
0.0220955
0.00952329
0.1
0.1
0.1
0.1
0.1
0.1
0.1
0.1
0.1
0.1
0.1
0.1
0.1
0.0198284
0.0259641
0.030624
0.0334583
0.0349178
0.0351302
0.0339948
0.0310926
0.0252334
0.0109894
0.1
0.1
0.1
0.1
0.1
0.1
0.1
0.1
0.1
0.1
0.1
0.1
0.1
0.021638
0.0282479
0.0331713
0.0361658
0.0377437
0.03806
0.0370309
0.0342364
0.0283332
0.0126323
0.1
0.1
0.1
0.1
0.1
0.1
0.1
0.1
0.1
0.1
0.1
0.1
0.1
0.0232238
0.0302025
0.0353524
0.03849
0.0401854
0.0406273
0.0397645
0.0372221
0.0316524
0.0152061
0.1
0.1
0.1
0.1
0.1
0.1
0.1
0.1
0.1
0.1
0.1
0.1
0.1
0.0246485
0.0319071
0.0372457
0.0405113
0.0423241
0.0429085
0.0422582
0.040095
0.0353665
0.0212597
0.00265653
0.00660123
0.00875867
0.0100312
0.0107982
0.0112585
0.0115255
0.011667
0.0117218
0.0117084
0.011629
0.0114715
0.0112107
0.0108078
0.0102082
0.00933333
0.00805349
0.00609807
0.00353903
0.00643048
0.0153103
0.0198893
0.0225992
0.024232
0.0252118
0.0257813
0.0260833
0.0261991
0.0261671
0.0259915
0.025647
0.0250806
0.0242097
0.0229159
0.0210256
0.0182553
0.0140381
0.00631626
0.0085618
0.020168
0.0257905
0.0290861
0.031074
0.0322728
0.0329739
0.0333468
0.0334871
0.0334395
0.0332082
0.0327624
0.0320377
0.030934
0.0293063
0.0269401
0.023486
0.0182343
0.00805617
0.0102961
0.0239988
0.0302313
0.0338133
0.0359719
0.0372807
0.038051
0.0384613
0.0386114
0.038547
0.0382712
0.0377496
0.0369118
0.0356478
0.033797
0.0311195
0.0272209
0.0212756
0.00938211
0.0119204
0.027453
0.0340284
0.0377158
0.0399368
0.0412923
0.0420954
0.042523
0.0426732
0.0425898
0.0422736
0.0416876
0.0407574
0.0393667
0.0373442
0.0344308
0.0301943
0.0237005
0.0104378
0.0137827
0.0308398
0.0374712
0.0411116
0.0433132
0.0446691
0.0454783
0.0459083
0.0460509
0.0459461
0.0455917
0.0449484
0.0439388
0.0424423
0.0402798
0.0371765
0.0326663
0.0257142
0.0113144
0.0166998
0.0343814
0.0406878
0.044141
0.0462581
0.0475789
0.0483735
0.0487937
0.0489225
0.0487941
0.0484031
0.0477077
0.0466284
0.0450415
0.0427617
0.0395015
0.0347652
0.0274264
0.0120696
0.0231638
0.0381963
0.043715
0.0468682
0.0488533
0.0501129
0.0508771
0.051278
0.0513877
0.0512341
0.0508079
0.0500648
0.0489236
0.0472581
0.0448782
0.0414866
0.0365631
0.0289018
0.0127416
0.1
0.1
0.1
0.1
0.1
0.1
0.1
0.1
0.1
0.1
0.1
0.1
0.1
0.0266838
0.0342483
0.0398229
0.0432672
0.045262
0.0460847
0.0458058
0.044328
0.0412977
0.0356466
0.1
0.1
0.1
0.1
0.1
0.1
0.1
0.1
0.1
0.1
0.1
0.1
0.1
0.0288399
0.0365932
0.0424164
0.0460858
0.0483308
0.0494884
0.0497153
0.0490773
0.0476017
0.045357
0.1
0.1
0.1
0.1
0.1
0.1
0.1
0.1
0.1
0.1
0.1
0.1
0.1
0.0305714
0.0383574
0.0443828
0.0482636
0.0507488
0.0522162
0.0528775
0.0528793
0.0523731
0.0516029
0.1
0.1
0.1
0.1
0.1
0.1
0.1
0.1
0.1
0.1
0.1
0.1
0.1
0.032013
0.0397231
0.0459027
0.04997
0.0526698
0.054402
0.0554062
0.0558594
0.0559334
0.0558435
0.1
0.1
0.1
0.1
0.1
0.1
0.1
0.1
0.1
0.1
0.1
0.1
0.1
0.03324
0.0408017
0.0470904
0.0513125
0.0541931
0.0561396
0.0574029
0.0581664
0.058593
0.0588538
0.1
0.1
0.1
0.1
0.1
0.1
0.1
0.1
0.1
0.1
0.1
0.1
0.1
0.0342965
0.0416638
0.0480221
0.0523663
0.0553923
0.0575064
0.0589613
0.0599377
0.0605855
0.0610451
0.1
0.1
0.1
0.1
0.1
0.1
0.1
0.1
0.1
0.1
0.1
0.1
0.1
0.0352114
0.0423576
0.0487527
0.0531887
0.0563276
0.0585694
0.0601643
0.061288
0.0620795
0.0626601
0.1
0.1
0.1
0.1
0.1
0.1
0.1
0.1
0.1
0.1
0.1
0.1
0.1
0.0360053
0.0429183
0.0493246
0.0538261
0.0570499
0.0593872
0.0610836
0.0623099
0.063197
0.0638551
0.1
0.1
0.1
0.1
0.1
0.1
0.1
0.1
0.1
0.1
0.1
0.1
0.1
0.0366948
0.0433743
0.0497727
0.0543184
0.0576039
0.0600108
0.0617799
0.0630776
0.0640293
0.0647384
0.1
0.1
0.1
0.1
0.1
0.1
0.1
0.1
0.1
0.1
0.1
0.1
0.1
0.0372938
0.0437492
0.0501273
0.0547006
0.0580291
0.0604851
0.062305
0.0636516
0.0646466
0.0653891
0.1
0.1
0.1
0.1
0.1
0.1
0.1
0.1
0.1
0.1
0.1
0.1
0.1
0.0378154
0.0440645
0.0504158
0.0550043
0.0583609
0.0608496
0.0627032
0.0640816
0.065104
0.0658673
0.1
0.1
0.1
0.1
0.1
0.1
0.1
0.1
0.1
0.1
0.1
0.1
0.1
0.038273
0.0443418
0.050665
0.0552599
0.0586323
0.0611398
0.0630124
0.0644086
0.0654461
0.0662202
0.1
0.1
0.1
0.1
0.1
0.1
0.1
0.1
0.1
0.1
0.1
0.1
0.1
0.0386834
0.0446062
0.0509044
0.0554984
0.058875
0.0613879
0.0632661
0.0646675
0.065709
0.066485
0.1
0.1
0.1
0.1
0.1
0.1
0.1
0.1
0.1
0.1
0.1
0.1
0.1
0.0390719
0.0448927
0.0511706
0.0557549
0.0591215
0.0616244
0.0634936
0.0648872
0.0659219
0.0666914
0.1
0.1
0.1
0.1
0.1
0.1
0.1
0.1
0.1
0.1
0.1
0.1
0.1
0.039484
0.0452573
0.0515148
0.0560716
0.0594065
0.0618789
0.0637213
0.0650926
0.0661087
0.0668628
0.1
0.1
0.1
0.1
0.1
0.1
0.1
0.1
0.1
0.1
0.1
0.1
0.1
0.0400123
0.0457971
0.0520112
0.056501
0.0597674
0.0621795
0.0639722
0.0653035
0.066288
0.067017
0.1
0.1
0.1
0.1
0.1
0.1
0.1
0.1
0.1
0.1
0.1
0.1
0.1
0.0408662
0.0466834
0.0527636
0.0571033
0.0602408
0.0625506
0.0642645
0.0655355
0.0664737
0.0671669
0.1
0.1
0.1
0.1
0.1
0.1
0.1
0.1
0.1
0.1
0.1
0.1
0.1
0.0425419
0.0481906
0.0538905
0.0579307
0.0608527
0.0630081
0.0646097
0.0657979
0.0666744
0.0673212
0.1
0.1
0.1
0.1
0.1
0.1
0.1
0.1
0.1
0.1
0.1
0.1
0.1
0.0459092
0.0505635
0.0554402
0.0589912
0.0616045
0.0635528
0.0650096
0.0660936
0.0668937
0.0674841
0.1
0.1
0.1
0.1
0.1
0.1
0.1
0.1
0.1
0.1
0.1
0.1
0.0464886
0.0481367
0.0532461
0.0572326
0.0602149
0.0624646
0.064169
0.065456
0.0664187
0.0671307
0.0676563
0.0201
0.0278358
0.0322461
0.0349808
0.0367448
0.0379058
0.0386951
0.0392926
0.0398846
0.0407477
0.0424267
0.0458179
0.0481025
0.0522969
0.0560804
0.0591267
0.0615203
0.0633861
0.0648293
0.0659329
0.066764
0.0673802
0.0678355
0.0109273
0.0248704
0.0316129
0.0359347
0.0388861
0.0409701
0.0424982
0.0437049
0.0448104
0.0460741
0.0478319
0.0503663
0.0531493
0.0560416
0.0586885
0.0609498
0.0628132
0.0643143
0.0655007
0.06642
0.067117
0.0676349
0.0680177
0.0118958
0.0274074
0.0349124
0.0398277
0.0432856
0.0457981
0.0476834
0.0491776
0.050484
0.0517997
0.0533099
0.0551107
0.0570598
0.0590461
0.060922
0.0625925
0.0640195
0.0652006
0.0661517
0.066897
0.0674649
0.0678867
0.0681982
0.0130994
0.0297323
0.0377002
0.0429367
0.0466733
0.0494307
0.0515225
0.0531742
0.0545667
0.0558542
0.0571584
0.05854
0.0599711
0.0614035
0.0627693
0.0640117
0.0650968
0.0660117
0.0667582
0.0673473
0.0677966
0.0681289
0.0683732
0.0139639
0.0314905
0.0398175
0.0452786
0.0491981
0.0521133
0.0543356
0.0560806
0.0575125
0.058761
0.0599226
0.0610536
0.0621659
0.0632476
0.0642708
0.0652055
0.0660295
0.0667306
0.0673059
0.0677604
0.0681052
0.0683571
0.0685403
0.0145644
0.0327618
0.0413791
0.0470192
0.0510765
0.0541051
0.0564177
0.0582236
0.0596766
0.0608932
0.0619598
0.0629329
0.0638409
0.0646919
0.0654801
0.0661937
0.0668209
0.0673541
0.0677905
0.0681325
0.0683881
0.0685704
0.0687001
0.0149759
0.0336616
0.042511
0.0483004
0.0524703
0.0555886
0.0579701
0.0598211
0.0612893
0.0624846
0.0634888
0.0643592
0.0651323
0.0658275
0.0664521
0.0670062
0.0674864
0.06789
0.068216
0.0684667
0.0686484
0.0687722
0.0688563
0.0152539
0.034289
0.0433221
0.0492369
0.0535031
0.0566974
0.0591364
0.0610251
0.062508
0.0636917
0.0646559
0.0654589
0.0661413
0.0667297
0.0672394
0.0676782
0.0680494
0.0683543
0.0685944
0.0687726
0.0688946
0.0689705
0.0690169
0.0154398
0.034724
0.0439021
0.0499233
0.0542742
0.057536
0.0600264
0.0619498
0.0634491
0.0646292
0.0655692
0.066328
0.0669493
0.0674639
0.0678925
0.0682483
0.0685392
0.0687701
0.0689444
0.0690662
0.0691412
0.0691788
0.0691946
0.0155654
0.0350306
0.0443263
0.0504405
0.0548683
0.0581927
0.0607316
0.0626889
0.0642067
0.0653895
0.0663161
0.0670468
0.067627
0.0680907
0.0684622
0.0687585
0.0689909
0.0691668
0.0692917
0.0693705
0.069409
0.0694166
0.0694083
0.0156557
0.0352627
0.0446613
0.0508619
0.0553635
0.0587489
0.0613354
0.0633266
0.0648648
0.0660545
0.0669753
0.0676885
0.0682412
0.0686698
0.0690012
0.0692551
0.0694451
0.0695809
0.0696692
0.0697157
0.0697267
0.0697113
0.0696842
0.0157327
0.0354705
0.0449717
0.0512614
0.0558393
0.059287
0.0619215
0.0639467
0.0655059
0.0667046
0.0676237
0.0683257
0.0688597
0.0692637
0.0695667
0.0697902
0.0699499
0.0700566
0.0701183
0.0701411
0.0701317
0.0700991
0.0700579
0.0158186
0.0357088
0.0453311
0.0517237
0.0563863
0.0598998
0.0625824
0.0646398
0.0662178
0.0674243
0.0683419
0.0690353
0.069555
0.0699406
0.0702227
0.0704242
0.0705619
0.0706477
0.0706903
0.0706963
0.0706723
0.0706274
0.070576
0.0159425
0.0360505
0.045837
0.052359
0.057119
0.0607009
0.0634275
0.0655102
0.0670996
0.0683074
0.0692193
0.069902
0.0704077
0.0707773
0.0710424
0.0712268
0.0713481
0.0714189
0.071448
0.0714425
0.0714089
0.0713561
0.0712981
0.0161497
0.0366083
0.046634
0.0533229
0.058191
0.061835
0.0645909
0.0666815
0.0682656
0.0694607
0.0703562
0.071021
0.0715086
0.0718607
0.0721095
0.0722791
0.0723874
0.072447
0.072467
0.0724543
0.0724154
0.0723588
0.0722978
0.0165183
0.0375679
0.0479458
0.05484
0.0598096
0.0634867
0.0662355
0.0682983
0.0698464
0.0710042
0.0718648
0.0724985
0.0729594
0.0732892
0.0735195
0.0736742
0.0737708
0.0738217
0.0738357
0.0738196
0.0737794
0.0737231
0.0736633
0.017186
0.0392383
0.0501153
0.0572256
0.0622433
0.0658792
0.0685485
0.0705221
0.0719853
0.0730689
0.0738675
0.0744511
0.0748726
0.0751719
0.0753792
0.0755171
0.0756019
0.0756454
0.0756559
0.0756395
0.0756019
0.0755502
0.0754955
0.0183933
0.0421244
0.0536435
0.0608896
0.0658066
0.0692556
0.0717255
0.0735183
0.0748296
0.0757908
0.0764935
0.0770038
0.0773702
0.077629
0.0778072
0.077925
0.077997
0.0780335
0.078042
0.078028
0.0779964
0.0779533
0.077908
0.0205635
0.0470449
0.0592121
0.0662971
0.0708088
0.073835
0.0759389
0.0774369
0.0785186
0.0793046
0.0798758
0.0802887
0.080584
0.0807919
0.0809347
0.0810288
0.0810863
0.0811157
0.0811232
0.0811133
0.0810903
0.081059
0.0810265
0.0246193
0.0554043
0.0676509
0.0738461
0.0774503
0.0797483
0.081303
0.0823941
0.0831759
0.0837415
0.0841516
0.0844475
0.0846591
0.0848079
0.0849101
0.0849776
0.0850191
0.0850408
0.0850474
0.0850424
0.0850291
0.085011
0.0849927
0.0347132
0.0698114
0.0796284
0.0835777
0.0856735
0.0869745
0.0878514
0.0884686
0.0889127
0.0892354
0.0894702
0.0896403
0.0897622
0.0898482
0.0899076
0.089947
0.0899715
0.0899848
0.0899899
0.089989
0.0899844
0.0899782
0.0899729
0.0856078
0.0933465
0.0941781
0.0946596
0.0950425
0.0953378
0.0955599
0.0957255
0.0958488
0.0959404
0.0960081
0.0960578
0.0960939
0.0961195
0.0961374
0.0961494
0.0961571
0.0961616
0.0961639
0.0961649
0.0961653
0.0961662
0.0961683
0.0240152
0.0202887
0.0203988
0.024428
0.0434163
0.0427198
0.0429287
0.0440542
0.0511955
0.0511298
0.0513475
0.0518501
0.0558737
0.0559794
0.0561984
0.0565323
0.0590644
0.059236
0.0594573
0.0597305
0.0613477
0.0615524
0.0617768
0.0620234
0.0630162
0.0632405
0.0634682
0.0637017
0.064245
0.064482
0.0647126
0.0649395
0.0651504
0.0653959
0.065629
0.0658524
0.0658154
0.0660665
0.0663014
0.0665226
0.0663022
0.0665565
0.0667922
0.0670118
0.0666589
0.0669143
0.0671496
0.0673674
0.0669231
0.0671775
0.067411
0.0676263
0.0671246
0.0673756
0.0676056
0.0678172
0.0672862
0.0675314
0.0677559
0.0679624
0.0674255
0.0676621
0.0678789
0.0680784
0.0675552
0.0677803
0.0679869
0.0681776
0.0676837
0.0678942
0.0680882
0.068268
0.0678156
0.0680089
0.068188
0.068355
0.0679525
0.0681263
0.0682886
0.0684413
0.0680936
0.0682462
0.0683904
0.0685278
0.0682364
0.0683672
0.0684928
0.0686143
0.0683781
0.0684873
0.0685943
0.0687002
0.0685161
0.0686047
0.0686942
0.0687851
0.0686494
0.0687193
0.0687925
0.0688697
0.0687793
0.0688325
0.0688913
0.0689563
0.06891
0.0689487
0.0689952
0.0690495
0.0690491
0.0690758
0.0691119
0.0691574
0.0692094
0.0692262
0.0692538
0.069292
0.0694091
0.0694181
0.0694388
0.0694712
0.069674
0.0696768
0.0696921
0.06972
0.0700393
0.0700373
0.0700484
0.0700727
0.0705512
0.0705456
0.0705535
0.0705749
0.0712691
0.071261
0.0712664
0.0712855
0.0722668
0.0722571
0.0722607
0.0722775
0.0736323
0.073622
0.0736242
0.0736388
0.075467
0.0754571
0.0754582
0.0754703
0.0778842
0.0778758
0.0778761
0.0778852
0.0810095
0.0810033
0.081003
0.0810087
0.0849836
0.0849801
0.0849795
0.0849818
0.0899709
0.0899701
0.0899695
0.0899691
0.0961705
0.0961712
0.0961709
0.0961695
0.0374325
0.0440917
0.0480861
0.0506933
0.0524303
0.0535675
0.0542667
0.0546265
0.0547003
0.0545054
0.0540262
0.0532146
0.0519866
0.0502128
0.0476976
0.0441316
0.0389657
0.030891
0.0136944
0.0468744
0.0502646
0.0528767
0.0548077
0.0561869
0.0571259
0.057709
0.0579926
0.0580058
0.0577513
0.0572044
0.0563115
0.0549849
0.0530914
0.0504296
0.0466792
0.0412635
0.0327757
0.0145815
0.0530264
0.0549495
0.0566826
0.0580878
0.0591498
0.0598944
0.0603541
0.060553
0.0605
0.0601843
0.059573
0.0586071
0.0571948
0.0551991
0.0524137
0.0485091
0.0428874
0.0340744
0.0151677
0.057246
0.0584765
0.0596699
0.0606945
0.0614985
0.0620701
0.0624119
0.0625262
0.062406
0.0620302
0.0613583
0.0603263
0.0588383
0.056754
0.0538623
0.0498266
0.0440336
0.0349653
0.015556
0.0602618
0.0611347
0.061995
0.062752
0.0633556
0.0637818
0.0640178
0.0640526
0.0638683
0.0634354
0.0627073
0.0616156
0.0600608
0.0578993
0.0549163
0.0507697
0.0448362
0.0355714
0.015812
0.0624682
0.063142
0.0637923
0.0643627
0.0648145
0.0651224
0.0652676
0.0652311
0.0649879
0.0645025
0.0637235
0.0625785
0.0609653
0.0587372
0.0556767
0.051438
0.045392
0.0359791
0.0159787
0.0641009
0.0646572
0.0651718
0.0656119
0.0659501
0.0661642
0.0662335
0.0661352
0.0658398
0.0653075
0.0644833
0.0632918
0.0616282
0.0593438
0.0562188
0.0519054
0.0457714
0.0362493
0.0160857
0.0653129
0.0657967
0.0662219
0.0665704
0.0668242
0.0669649
0.0669724
0.0668221
0.0664819
0.0659089
0.0650457
0.0638144
0.0621083
0.0597772
0.0565999
0.0522276
0.0460266
0.0364257
0.0161532
0.0662104
0.0666481
0.0670131
0.067297
0.0674884
0.0675727
0.0675309
0.0673378
0.0669601
0.0663528
0.0654567
0.0641922
0.0624513
0.0600824
0.0568638
0.0524461
0.0461955
0.036539
0.0161952
0.0668711
0.0672785
0.0676025
0.0678405
0.067986
0.0680274
0.0679469
0.0677197
0.0673113
0.066676
0.065753
0.0644615
0.0626926
0.0602941
0.0570437
0.052592
0.0463055
0.0366106
0.0162208
0.0673537
0.0677405
0.068036
0.0682415
0.0683534
0.0683625
0.0682524
0.0679983
0.0675657
0.0669079
0.0659633
0.0646506
0.0628599
0.0604386
0.0571644
0.0526879
0.0463761
0.0366553
0.0162363
0.0677038
0.0680757
0.0683511
0.0685331
0.0686206
0.0686057
0.0684732
0.0681985
0.067747
0.0670717
0.0661105
0.0647814
0.062974
0.0605358
0.0572441
0.05275
0.0464207
0.0366827
0.0162455
0.0679571
0.0683174
0.0685777
0.0687426
0.0688122
0.0687797
0.0686304
0.0683402
0.0678744
0.0671858
0.066212
0.0648704
0.0630508
0.0606001
0.057296
0.0527896
0.0464484
0.0366993
0.016251
0.0681416
0.0684913
0.0687397
0.0688917
0.068948
0.0689024
0.0687407
0.068439
0.0679626
0.0672641
0.0662809
0.0649303
0.0631017
0.0606422
0.0573294
0.0528146
0.0464656
0.0367093
0.0162541
0.0682786
0.0686177
0.0688556
0.0689973
0.0690434
0.0689881
0.0688172
0.0685071
0.0680228
0.0673171
0.066327
0.0649699
0.063135
0.0606693
0.0573505
0.0528301
0.046476
0.0367152
0.0162559
0.0683843
0.0687117
0.0689397
0.0690724
0.0691104
0.0690476
0.0688699
0.0685535
0.0680635
0.0673526
0.0663576
0.0649958
0.0631565
0.0606865
0.0573638
0.0528397
0.0464823
0.0367186
0.016257
0.0684705
0.0687845
0.0690022
0.0691267
0.0691577
0.0690889
0.0689059
0.0685849
0.0680908
0.0673761
0.0663777
0.0650127
0.0631703
0.0606974
0.057372
0.0528455
0.046486
0.0367207
0.0162576
0.0685453
0.0688441
0.0690509
0.0691672
0.0691919
0.069118
0.0689309
0.0686063
0.0681092
0.0673917
0.0663908
0.0650235
0.0631791
0.0607043
0.0573771
0.052849
0.0464882
0.0367219
0.0162579
0.0686142
0.0688959
0.0690908
0.0691988
0.0692175
0.0691391
0.0689485
0.0686211
0.0681216
0.0674022
0.0663995
0.0650306
0.0631847
0.0607086
0.0573803
0.0528512
0.0464896
0.0367226
0.0162581
0.0686803
0.0689431
0.0691255
0.069225
0.0692377
0.0691552
0.0689615
0.0686318
0.0681305
0.0674095
0.0664055
0.0650355
0.0631885
0.0607115
0.0573824
0.0528526
0.0464904
0.036723
0.0162582
0.0687452
0.0689881
0.0691573
0.0692481
0.069255
0.0691685
0.068972
0.0686403
0.0681374
0.0674152
0.0664101
0.0650392
0.0631914
0.0607137
0.0573839
0.0528536
0.046491
0.0367233
0.0162583
0.0688095
0.0690319
0.0691878
0.0692699
0.0692711
0.0691808
0.0689817
0.0686481
0.0681438
0.0674204
0.0664145
0.0650427
0.0631941
0.0607157
0.0573853
0.0528545
0.0464916
0.0367235
0.0162584
0.0688733
0.0690756
0.0692184
0.0692919
0.0692876
0.0691936
0.068992
0.0686566
0.068151
0.0674265
0.0664195
0.0650468
0.0631974
0.0607182
0.0573871
0.0528557
0.0464922
0.0367238
0.0162584
0.0689373
0.0691203
0.0692506
0.069316
0.0693064
0.0692088
0.0690048
0.0686676
0.0681605
0.0674348
0.0664266
0.0650528
0.0632023
0.0607219
0.0573898
0.0528575
0.0464933
0.0367243
0.0162586
0.0690025
0.0691678
0.0692865
0.0693444
0.0693298
0.0692289
0.0690224
0.0686834
0.0681747
0.0674474
0.0664377
0.0650623
0.0632101
0.0607281
0.0573943
0.0528605
0.0464951
0.0367252
0.0162588
0.0690719
0.0692213
0.0693296
0.0693807
0.0693615
0.0692573
0.0690484
0.0687073
0.0681967
0.0674675
0.0664557
0.0650779
0.0632231
0.0607385
0.0574021
0.0528659
0.0464984
0.0367269
0.0162592
0.0691503
0.0692859
0.0693852
0.0694302
0.0694068
0.0692995
0.0690881
0.0687447
0.0682317
0.0674998
0.066485
0.0651037
0.0632451
0.0607564
0.0574157
0.0528755
0.0465044
0.0367299
0.01626
0.0692456
0.0693697
0.0694612
0.0695009
0.0694737
0.0693635
0.0691494
0.0688032
0.0682872
0.0675518
0.0665327
0.0651465
0.0632821
0.0607869
0.0574394
0.0528924
0.0465152
0.0367355
0.0162616
0.06937
0.0694846
0.0695697
0.0696048
0.0695742
0.069461
0.069244
0.0688947
0.0683749
0.0676348
0.06661
0.0652166
0.0633437
0.0608387
0.0574805
0.0529225
0.0465347
0.0367459
0.0162644
0.069541
0.0696479
0.0697277
0.069759
0.0697252
0.069609
0.069389
0.069036
0.0685118
0.0677659
0.0667335
0.0653305
0.0634456
0.0609261
0.0575513
0.0529755
0.0465701
0.0367651
0.0162699
0.0697833
0.0698841
0.0699596
0.0699875
0.0699508
0.0698318
0.0696086
0.0692518
0.0687226
0.0679699
0.0669284
0.065513
0.0636119
0.0610719
0.0576725
0.0530688
0.0466341
0.0368009
0.0162802
0.0701309
0.0702267
0.0702985
0.0703234
0.070284
0.0701625
0.0699365
0.0695762
0.0690422
0.0682827
0.0672312
0.0658015
0.0638802
0.0613129
0.0578784
0.0532321
0.0467498
0.0368677
0.0163
0.0706289
0.0707203
0.0707885
0.0708107
0.0707691
0.0706457
0.0704178
0.0700554
0.0695182
0.0687536
0.0676936
0.0662499
0.0643066
0.0617063
0.058225
0.0535169
0.0469593
0.0369931
0.0163381
0.0713357
0.0714224
0.0714869
0.0715063
0.071463
0.0713388
0.0711111
0.0707495
0.0702133
0.0694487
0.0683858
0.0669337
0.0649721
0.0623382
0.0588015
0.0540098
0.0473379
0.0372298
0.0164123
0.0723237
0.0724048
0.0724646
0.072481
0.0724366
0.0723136
0.0720896
0.0717343
0.0712066
0.0704521
0.069399
0.0679532
0.0659886
0.0633335
0.0597443
0.0548532
0.0480195
0.0376789
0.0165585
0.0736801
0.0737534
0.073807
0.0738197
0.0737751
0.0736562
0.0734411
0.0731003
0.0725931
0.0718654
0.0708445
0.0694334
0.0675
0.0648605
0.0612503
0.0562689
0.0492326
0.038531
0.0168499
0.0755053
0.0755679
0.0756129
0.0756212
0.0755777
0.0754665
0.0752672
0.0749518
0.0744817
0.0738045
0.0728491
0.0715183
0.0696761
0.0671265
0.0635778
0.0585752
0.0513419
0.040129
0.017434
0.0779122
0.0779609
0.0779949
0.077998
0.077957
0.0778579
0.0776823
0.0774052
0.0769918
0.0763944
0.0755472
0.0743581
0.0726939
0.070354
0.0670223
0.0621741
0.0548704
0.0430408
0.0185925
0.0810263
0.0810584
0.0810797
0.0810774
0.0810409
0.0809582
0.0808144
0.0805885
0.0802519
0.0797648
0.0790717
0.0780933
0.0767109
0.0747371
0.0718546
0.0674843
0.0604729
0.0481272
0.0208271
0.0849896
0.0850046
0.0850131
0.0850065
0.0849766
0.0849146
0.0848093
0.0846453
0.0844019
0.0840503
0.0835499
0.0828424
0.0818382
0.08039
0.07823
0.0748114
0.0688471
0.0567217
0.0251515
0.0899686
0.0899696
0.0899684
0.0899601
0.0899397
0.0899015
0.0898387
0.0897425
0.0896009
0.0893974
0.0891096
0.0887047
0.0881329
0.087312
0.0860889
0.0841225
0.0804321
0.071119
0.0359604
0.0961657
0.0961608
0.0961567
0.0961516
0.0961437
0.0961311
0.0961114
0.0960821
0.0960397
0.0959798
0.0958963
0.0957812
0.0956229
0.0954055
0.0951086
0.0947131
0.0942123
0.0934457
0.0865338
)
;

boundaryField
{
    leftWall
    {
        type            kqRWallFunction;
        value           nonuniform List<scalar> 
50
(
0.1
0.1
0.1
0.1
0.1
0.1
0.1
0.1
0.1
0.1
0.1
0.1
0.1
0.1
0.1
0.1
0.1
0.1
0.1
0.1
0.1
0.1
0.1
0.1
0.1
0.1
0.1
0.1
0.0201
0.0109273
0.0118958
0.0130994
0.0139639
0.0145644
0.0149759
0.0152539
0.0154398
0.0155654
0.0156557
0.0157327
0.0158186
0.0159425
0.0161497
0.0165183
0.017186
0.0183933
0.0205635
0.0246193
0.0347132
0.0856078
)
;
    }
    rightWall
    {
        type            kqRWallFunction;
        value           nonuniform List<scalar> 
50
(
0.00353903
0.00631626
0.00805617
0.00938211
0.0104378
0.0113144
0.0120696
0.0127416
0.0136944
0.0145815
0.0151677
0.015556
0.015812
0.0159787
0.0160857
0.0161532
0.0161952
0.0162208
0.0162363
0.0162455
0.016251
0.0162541
0.0162559
0.016257
0.0162576
0.0162579
0.0162581
0.0162582
0.0162583
0.0162584
0.0162584
0.0162586
0.0162588
0.0162592
0.01626
0.0162616
0.0162644
0.0162699
0.0162802
0.0163
0.0163381
0.0164123
0.0165585
0.0168499
0.017434
0.0185925
0.0208271
0.0251515
0.0359604
0.0865338
)
;
    }
    lowerWall
    {
        type            kqRWallFunction;
        value           nonuniform List<scalar> 
62
(
0.1
0.1
0.1
0.1
0.1
0.1
0.1
0.1
0.1
0.1
0.1
0.1
0.1
0.00834279
0.00648596
0.00811738
0.00906753
0.00951987
0.00953615
0.00908443
0.00803528
0.00608698
0.00247429
0.00247429
0.00593046
0.00792541
0.00952329
0.0109894
0.0126323
0.0152061
0.0212597
0.0240152
0.0202887
0.0203988
0.024428
0.00265653
0.00643048
0.0085618
0.0102961
0.0119204
0.0137827
0.0166998
0.0231638
0.00265653
0.00660123
0.00875867
0.0100312
0.0107982
0.0112585
0.0115255
0.011667
0.0117218
0.0117084
0.011629
0.0114715
0.0112107
0.0108078
0.0102082
0.00933333
0.00805349
0.00609807
0.00353903
)
;
    }
    atmosphere
    {
        type            inletOutlet;
        inletValue      uniform 0.1;
        value           uniform 0.1;
    }
    defaultFaces
    {
        type            empty;
    }
}


// ************************************************************************* //
