/*--------------------------------*- C++ -*----------------------------------*\
| =========                 |                                                 |
| \\      /  F ield         | OpenFOAM: The Open Source CFD Toolbox           |
|  \\    /   O peration     | Version:  2406                                  |
|   \\  /    A nd           | Website:  www.openfoam.com                      |
|    \\/     M anipulation  |                                                 |
\*---------------------------------------------------------------------------*/
FoamFile
{
    version     2.0;
    format      ascii;
    arch        "LSB;label=32;scalar=64";
    class       volScalarField;
    location    "0.4";
    object      k;
}
// * * * * * * * * * * * * * * * * * * * * * * * * * * * * * * * * * * * * * //

dimensions      [0 2 -2 0 0 0 0];

internalField   nonuniform List<scalar> 
2268
(
0.00327999
0.00610554
0.00824628
0.00967033
0.0106658
0.0113754
0.0118829
0.0122432
0.0124946
0.0126647
0.0127731
0.0128327
0.0128502
0.0128257
0.0127523
0.0126141
0.0123833
0.0120139
0.011431
0.0105094
0.00903557
0.00662713
0.00253354
0.0060293
0.0140979
0.0185975
0.02161
0.0237192
0.0252219
0.0262964
0.0270598
0.0275937
0.0279564
0.0281889
0.0283179
0.0283571
0.0283071
0.0281535
0.0278637
0.0273799
0.026607
0.0253894
0.0234689
0.0204082
0.0154316
0.00622015
0.00789504
0.0183626
0.0238599
0.02754
0.0301314
0.0319879
0.0333228
0.0342772
0.0349495
0.03541
0.035708
0.0358757
0.0359298
0.0358714
0.0356838
0.0353288
0.0347388
0.0338024
0.0323381
0.0300433
0.0263952
0.0203904
0.00848647
0.00934094
0.0214433
0.0275572
0.0316297
0.0345089
0.0365828
0.0380828
0.0391623
0.0399284
0.0404574
0.0408031
0.0410007
0.0410686
0.0410088
0.0408041
0.0404151
0.0397714
0.0387578
0.0371859
0.0347392
0.030846
0.0242846
0.0103558
0.0104898
0.0238753
0.0304538
0.0348045
0.0378869
0.0401174
0.0417397
0.0429148
0.0437546
0.0443392
0.044725
0.044949
0.0450313
0.0449746
0.0447629
0.0443573
0.0436891
0.0426457
0.0410432
0.0385685
0.0346239
0.0277712
0.012073
0.0114248
0.0258613
0.0328227
0.0373932
0.0406337
0.0429873
0.044708
0.0459616
0.0468636
0.0474963
0.0479178
0.0481667
0.0482642
0.0482144
0.0480029
0.0475933
0.0469209
0.0458802
0.0443001
0.0418858
0.0380467
0.0311806
0.0139473
0.0121985
0.0275112
0.0348014
0.0395568
0.0429286
0.0453847
0.0471883
0.0485094
0.0494659
0.0501417
0.0505961
0.050869
0.0509827
0.0509429
0.0507375
0.0503336
0.0496724
0.0486586
0.0471396
0.0448539
0.0412665
0.0347813
0.0167747
0.0128459
0.0288963
0.0364736
0.0413909
0.0448762
0.0474212
0.0492971
0.0506778
0.0516832
0.0523983
0.0528836
0.0531799
0.0533108
0.0532837
0.0530893
0.0526989
0.0520606
0.0510916
0.0496613
0.0475529
0.0443389
0.0387641
0.0233604
0.00269941
0.00700202
0.00944031
0.010867
0.0117165
0.0122237
0.0125193
0.0126765
0.0127352
0.0127135
0.0126137
0.0124246
0.012122
0.0116672
0.011002
0.0100358
0.00861441
0.00642917
0.00357846
0.00662967
0.0162105
0.021252
0.0242143
0.0259838
0.0270424
0.0276596
0.0279873
0.0281079
0.0280591
0.0278453
0.027443
0.0268017
0.0258394
0.024432
0.0223865
0.0193791
0.0147772
0.00647505
0.00894194
0.021335
0.0274038
0.0309329
0.0330487
0.0343227
0.0350697
0.0354662
0.0356086
0.0355402
0.0352657
0.0347567
0.0339521
0.0327535
0.0310112
0.0284936
0.0248134
0.0191855
0.00835911
0.0108492
0.0253273
0.0319266
0.0356858
0.0379429
0.0393117
0.0401192
0.0405476
0.0406959
0.0406085
0.0402889
0.0397055
0.038792
0.0374413
0.0354906
0.0326882
0.0286101
0.0223507
0.00981945
0.0126164
0.0288788
0.035724
0.0395231
0.0418075
0.0432045
0.044034
0.0444731
0.0446176
0.0445098
0.044151
0.0435075
0.0425091
0.0410438
0.0389411
0.035936
0.0315756
0.0248434
0.0109813
0.014588
0.0323175
0.0391219
0.0428126
0.0450444
0.0464238
0.0472488
0.0476835
0.0478168
0.0476866
0.0472917
0.0465958
0.0455263
0.0439678
0.0417442
0.0385806
0.0339977
0.0268773
0.011928
0.0176106
0.0358858
0.0422725
0.0457244
0.0478437
0.049172
0.0499725
0.0503914
0.0505073
0.0503528
0.0499233
0.0491801
0.0480485
0.0464103
0.0440855
0.04079
0.0360201
0.0285668
0.0127119
0.0243468
0.0397296
0.0452352
0.0483461
0.0503106
0.0515637
0.0523249
0.0527187
0.0528123
0.0526318
0.0521687
0.0513817
0.0501942
0.0484859
0.0460729
0.0426631
0.0377297
0.0299852
0.0133681
0.0137003
0.0307268
0.0386992
0.0438416
0.0474848
0.0501528
0.0521294
0.0535939
0.0546687
0.0554407
0.0559716
0.0563037
0.0564628
0.0564593
0.0562883
0.0559285
0.0553402
0.0544607
0.0531966
0.051406
0.048851
0.0450478
0.0387165
0.0145121
0.0324827
0.0408665
0.0462549
0.0500736
0.052879
0.0549687
0.0565282
0.0576832
0.0585226
0.0591098
0.0594894
0.0596899
0.0597262
0.0596
0.0593006
0.0588041
0.058074
0.0570607
0.0557016
0.0539214
0.051639
0.0488072
0.0150832
0.0337306
0.0424313
0.0480201
0.0519863
0.0549091
0.0570959
0.0587377
0.0599631
0.0608629
0.0615023
0.0619279
0.0621714
0.0622518
0.0621774
0.0619464
0.0615488
0.0609686
0.0601869
0.059189
0.057978
0.0566019
0.0552145
0.0154829
0.0346162
0.0435608
0.0493126
0.0534032
0.0564266
0.0586979
0.0604119
0.0616996
0.0626539
0.0633416
0.0638114
0.0640978
0.0642238
0.0642031
0.0640415
0.0637396
0.0632955
0.062709
0.0619897
0.0611676
0.0603113
0.0595491
0.0157596
0.0352402
0.0443716
0.0502551
0.0544496
0.0575592
0.0599036
0.0616808
0.0630239
0.0640271
0.0647592
0.0652707
0.0655985
0.0657692
0.0658009
0.0657052
0.0654902
0.0651629
0.0647336
0.064221
0.0636601
0.0631088
0.0626522
0.0159484
0.0356751
0.0449484
0.050937
0.0552174
0.0583997
0.0608069
0.0626391
0.0640307
0.0650777
0.06585
0.0664001
0.0667669
0.0669797
0.0670602
0.0670244
0.0668852
0.0666551
0.066349
0.065988
0.0656036
0.0652394
0.0649498
0.0160751
0.0359741
0.0453537
0.0514251
0.0557753
0.0590181
0.0614786
0.0633578
0.0647918
0.0658772
0.0666855
0.0672704
0.0676728
0.0679242
0.0680487
0.0680655
0.0679908
0.0678398
0.0676291
0.0673793
0.0671163
0.0668721
0.0666818
0.0161587
0.0361765
0.0456348
0.0517701
0.0561761
0.0594684
0.0619731
0.0638921
0.0653622
0.066481
0.0673208
0.0679366
0.0683707
0.0686563
0.0688194
0.0688815
0.0688604
0.0687729
0.0686357
0.0684676
0.0682897
0.0681255
0.0679983
0.0162128
0.0363115
0.0458268
0.0520108
0.0564604
0.0597923
0.0623329
0.0642849
0.0657853
0.0669324
0.0677994
0.068442
0.0689037
0.0692189
0.0694152
0.0695152
0.069538
0.0695008
0.0694201
0.0693124
0.0691951
0.0690857
0.0690004
0.0162474
0.0364001
0.0459561
0.0521761
0.0566591
0.0600221
0.0625915
0.0645702
0.0660955
0.0672662
0.068156
0.0688213
0.0693064
0.0696468
0.0698708
0.070002
0.0700602
0.0700627
0.070025
0.0699622
0.0698886
0.0698176
0.0697609
0.0162691
0.0364573
0.0460417
0.0522881
0.0567962
0.0601829
0.0627748
0.0647746
0.06632
0.06751
0.0684185
0.0691026
0.0696072
0.0699683
0.0702151
0.0703716
0.0704579
0.0704911
0.0704862
0.0704567
0.0704148
0.0703711
0.0703344
0.0162825
0.0364937
0.0460977
0.0523628
0.0568892
0.0602938
0.0629029
0.0649192
0.0664804
0.0676857
0.0686093
0.0693086
0.069829
0.0702069
0.070472
0.0706486
0.0707568
0.0708136
0.0708334
0.0708286
0.0708097
0.0707855
0.070763
0.0162906
0.0365166
0.0461337
0.0524119
0.0569515
0.0603692
0.0629911
0.06502
0.0665933
0.0678105
0.068746
0.0694574
0.0699904
0.0703816
0.0706611
0.0708532
0.0709783
0.0710531
0.0710913
0.0711046
0.0711024
0.0710923
0.0710798
0.0162956
0.0365307
0.0461566
0.0524438
0.0569927
0.0604198
0.0630511
0.0650892
0.0666718
0.0678981
0.0688427
0.0695634
0.0701061
0.0705077
0.0707982
0.0710023
0.0711402
0.0712283
0.0712802
0.0713067
0.0713166
0.0713164
0.071311
0.0162985
0.0365394
0.046171
0.0524642
0.0570195
0.0604532
0.0630913
0.0651362
0.0667255
0.0679586
0.0689102
0.069638
0.070188
0.0705974
0.0708963
0.0711094
0.0712567
0.0713547
0.0714165
0.0714526
0.071471
0.071478
0.0714776
0.0163002
0.0365447
0.0461799
0.0524771
0.0570367
0.060475
0.0631179
0.0651676
0.0667619
0.068
0.0689565
0.0696896
0.0702452
0.0706604
0.0709654
0.0711851
0.0713394
0.0714445
0.0715134
0.0715563
0.0715809
0.0715929
0.071596
0.0163013
0.0365478
0.0461853
0.0524851
0.0570477
0.0604891
0.0631352
0.0651884
0.0667861
0.0680278
0.068988
0.0697249
0.0702845
0.0707039
0.0710135
0.0712379
0.0713972
0.0715074
0.0715814
0.0716291
0.0716579
0.0716734
0.0716789
0.0163018
0.0365497
0.0461886
0.0524901
0.0570546
0.0604981
0.0631464
0.0652019
0.0668021
0.0680463
0.0690091
0.0697487
0.0703112
0.0707336
0.0710464
0.0712742
0.071437
0.0715508
0.0716283
0.0716793
0.0717111
0.0717289
0.0717361
0.0163022
0.0365508
0.0461906
0.0524932
0.0570588
0.0605037
0.0631536
0.0652106
0.0668125
0.0680584
0.0690231
0.0697646
0.0703291
0.0707536
0.0710687
0.0712988
0.0714641
0.0715804
0.0716603
0.0717136
0.0717474
0.0717668
0.0717751
0.0163024
0.0365514
0.0461918
0.052495
0.0570615
0.0605072
0.0631581
0.0652162
0.0668192
0.0680663
0.0690322
0.0697751
0.0703409
0.0707669
0.0710835
0.0713153
0.0714822
0.0716002
0.0716818
0.0717366
0.0717717
0.0717922
0.0718013
0.0163025
0.0365518
0.0461925
0.0524961
0.0570631
0.0605094
0.0631609
0.0652197
0.0668234
0.0680713
0.0690381
0.0697819
0.0703486
0.0707757
0.0710933
0.0713262
0.0714942
0.0716133
0.071696
0.0717518
0.0717878
0.0718091
0.0718186
0.0163025
0.036552
0.0461929
0.0524968
0.057064
0.0605107
0.0631626
0.0652219
0.0668261
0.0680746
0.0690419
0.0697862
0.0703536
0.0707813
0.0710997
0.0713333
0.071502
0.0716219
0.0717053
0.0717618
0.0717984
0.0718201
0.07183
0.0163026
0.0365521
0.0461932
0.0524972
0.0570646
0.0605115
0.0631637
0.0652233
0.0668278
0.0680766
0.0690443
0.069789
0.0703568
0.070785
0.0711038
0.0713378
0.0715071
0.0716274
0.0717113
0.0717682
0.0718052
0.0718272
0.0718373
0.0163026
0.0365522
0.0461933
0.0524974
0.057065
0.060512
0.0631643
0.0652241
0.0668288
0.0680778
0.0690458
0.0697907
0.0703588
0.0707873
0.0711064
0.0713408
0.0715103
0.071631
0.0717151
0.0717723
0.0718096
0.0718318
0.071842
0.0163026
0.0365523
0.0461934
0.0524975
0.0570652
0.0605123
0.0631647
0.0652246
0.0668295
0.0680786
0.0690467
0.0697918
0.0703601
0.0707887
0.071108
0.0713426
0.0715124
0.0716332
0.0717176
0.0717749
0.0718123
0.0718346
0.0718449
0.0163026
0.0365523
0.0461934
0.0524976
0.0570653
0.0605125
0.063165
0.0652249
0.0668298
0.0680791
0.0690473
0.0697925
0.0703609
0.0707896
0.071109
0.0713437
0.0715136
0.0716346
0.0717191
0.0717765
0.071814
0.0718364
0.0718468
0.0163026
0.0365523
0.0461935
0.0524977
0.0570654
0.0605126
0.0631651
0.0652251
0.0668301
0.0680794
0.0690476
0.0697929
0.0703613
0.0707902
0.0711097
0.0713444
0.0715144
0.0716355
0.07172
0.0717776
0.0718151
0.0718375
0.0718479
0.0163026
0.0365523
0.0461935
0.0524977
0.0570654
0.0605127
0.0631652
0.0652252
0.0668302
0.0680795
0.0690478
0.0697932
0.0703616
0.0707905
0.07111
0.0713449
0.0715149
0.071636
0.0717206
0.0717782
0.0718157
0.0718382
0.0718486
0.0163026
0.0365523
0.0461935
0.0524977
0.0570654
0.0605127
0.0631652
0.0652252
0.0668303
0.0680796
0.069048
0.0697933
0.0703618
0.0707907
0.0711103
0.0713451
0.0715152
0.0716363
0.0717209
0.0717785
0.0718161
0.0718386
0.071849
0.0163026
0.0365523
0.0461935
0.0524977
0.0570654
0.0605127
0.0631653
0.0652253
0.0668303
0.0680797
0.069048
0.0697934
0.0703619
0.0707908
0.0711104
0.0713453
0.0715154
0.0716365
0.0717211
0.0717788
0.0718164
0.0718389
0.0718493
0.0163026
0.0365523
0.0461935
0.0524977
0.0570654
0.0605127
0.0631653
0.0652253
0.0668304
0.0680797
0.0690481
0.0697934
0.070362
0.0707909
0.0711105
0.0713454
0.0715155
0.0716366
0.0717213
0.0717789
0.0718165
0.071839
0.0718494
0.0163026
0.0365523
0.0461935
0.0524977
0.0570655
0.0605127
0.0631653
0.0652253
0.0668304
0.0680797
0.0690481
0.0697935
0.070362
0.0707909
0.0711105
0.0713454
0.0715155
0.0716367
0.0717213
0.071779
0.0718166
0.0718391
0.0718495
0.0163026
0.0365523
0.0461935
0.0524977
0.0570655
0.0605127
0.0631653
0.0652253
0.0668304
0.0680798
0.0690481
0.0697935
0.070362
0.070791
0.0711106
0.0713455
0.0715156
0.0716367
0.0717214
0.071779
0.0718166
0.0718391
0.0718496
0.0163026
0.0365523
0.0461935
0.0524977
0.0570655
0.0605127
0.0631653
0.0652253
0.0668304
0.0680798
0.0690481
0.0697935
0.070362
0.070791
0.0711106
0.0713455
0.0715156
0.0716367
0.0717214
0.071779
0.0718167
0.0718392
0.0718496
0.0163026
0.0365523
0.0461935
0.0524977
0.0570655
0.0605127
0.0631653
0.0652253
0.0668304
0.0680798
0.0690481
0.0697935
0.0703621
0.070791
0.0711106
0.0713455
0.0715156
0.0716368
0.0717214
0.0717791
0.0718167
0.0718392
0.0718496
0.0163026
0.0365523
0.0461935
0.0524977
0.0570655
0.0605127
0.0631653
0.0652253
0.0668304
0.0680798
0.0690481
0.0697935
0.0703621
0.070791
0.0711106
0.0713455
0.0715156
0.0716368
0.0717214
0.0717791
0.0718167
0.0718392
0.0718496
0.0163026
0.0365523
0.0461935
0.0524977
0.0570655
0.0605127
0.0631653
0.0652253
0.0668304
0.0680798
0.0690481
0.0697935
0.0703621
0.070791
0.0711106
0.0713455
0.0715156
0.0716368
0.0717214
0.0717791
0.0718167
0.0718392
0.0718496
0.0163026
0.0365523
0.0461935
0.0524977
0.0570655
0.0605127
0.0631653
0.0652253
0.0668304
0.0680798
0.0690481
0.0697935
0.0703621
0.070791
0.0711106
0.0713455
0.0715156
0.0716368
0.0717214
0.0717791
0.0718167
0.0718392
0.0718496
0.0163026
0.0365523
0.0461935
0.0524977
0.0570655
0.0605127
0.0631653
0.0652253
0.0668304
0.0680798
0.0690481
0.0697935
0.0703621
0.070791
0.0711106
0.0713455
0.0715156
0.0716368
0.0717214
0.0717791
0.0718167
0.0718392
0.0718496
0.0163026
0.0365523
0.0461935
0.0524977
0.0570655
0.0605127
0.0631653
0.0652253
0.0668304
0.0680798
0.0690481
0.0697935
0.0703621
0.070791
0.0711106
0.0713455
0.0715156
0.0716368
0.0717214
0.0717791
0.0718167
0.0718391
0.0718495
0.0163026
0.0365523
0.0461935
0.0524977
0.0570655
0.0605127
0.0631653
0.0652253
0.0668304
0.0680798
0.0690481
0.0697935
0.0703621
0.070791
0.0711106
0.0713455
0.0715156
0.0716368
0.0717214
0.071779
0.0718167
0.0718391
0.0718495
0.0163026
0.0365523
0.0461935
0.0524977
0.0570655
0.0605127
0.0631653
0.0652253
0.0668304
0.0680798
0.0690481
0.0697935
0.0703621
0.070791
0.0711106
0.0713455
0.0715156
0.0716368
0.0717214
0.071779
0.0718167
0.0718391
0.0718495
0.0261269
0.0219731
0.0219408
0.0259562
0.0464855
0.0455567
0.0455458
0.0464536
0.0544618
0.0541807
0.0541757
0.0544478
0.0592032
0.0590821
0.059078
0.0591912
0.0624604
0.0623944
0.0623904
0.0624484
0.0648317
0.0647908
0.0647868
0.0648195
0.0666048
0.0665775
0.0665734
0.0665922
0.0679462
0.0679271
0.0679229
0.0679333
0.0689645
0.0689507
0.0689463
0.0689512
0.069736
0.0697256
0.0697211
0.0697223
0.070317
0.070309
0.0703044
0.0703029
0.0707508
0.0707445
0.0707398
0.0707365
0.0710713
0.0710662
0.0710614
0.0710567
0.0713051
0.0713009
0.071296
0.0712904
0.0714736
0.0714699
0.0714649
0.0714586
0.0715932
0.0715899
0.0715849
0.0715782
0.071677
0.0716739
0.0716689
0.0716618
0.0717348
0.071732
0.0717269
0.0717196
0.0717742
0.0717715
0.0717664
0.0717589
0.0718007
0.071798
0.0717929
0.0717853
0.0718182
0.0718156
0.0718105
0.0718028
0.0718296
0.071827
0.071822
0.0718143
0.071837
0.0718345
0.0718294
0.0718217
0.0718417
0.0718392
0.0718341
0.0718264
0.0718447
0.0718422
0.0718371
0.0718293
0.0718466
0.071844
0.071839
0.0718312
0.0718477
0.0718452
0.0718401
0.0718323
0.0718484
0.0718459
0.0718408
0.071833
0.0718488
0.0718463
0.0718412
0.0718335
0.0718491
0.0718466
0.0718415
0.0718337
0.0718493
0.0718467
0.0718416
0.0718339
0.0718493
0.0718468
0.0718417
0.071834
0.0718494
0.0718469
0.0718418
0.071834
0.0718494
0.0718469
0.0718418
0.071834
0.0718494
0.0718469
0.0718418
0.071834
0.0718494
0.0718469
0.0718418
0.071834
0.0718494
0.0718469
0.0718418
0.071834
0.0718494
0.0718469
0.0718418
0.071834
0.0718494
0.0718469
0.0718418
0.071834
0.0718494
0.0718468
0.0718417
0.071834
0.0718493
0.0718468
0.0718417
0.0718339
0.0718493
0.0718468
0.0718417
0.0718339
0.0391535
0.0456916
0.0495467
0.0520601
0.0537456
0.0548562
0.055539
0.0558826
0.0559351
0.0557116
0.0551969
0.0543458
0.0530786
0.0512718
0.0487361
0.0451672
0.040006
0.0318596
0.0142343
0.0489349
0.0519867
0.0543742
0.0561648
0.0574605
0.0583493
0.0588988
0.0591542
0.0591385
0.0588515
0.0582687
0.057339
0.0559785
0.0540591
0.0513852
0.0476385
0.0422267
0.0336583
0.0150566
0.0552459
0.0567793
0.0582532
0.0594919
0.0604486
0.0611252
0.0615372
0.0616974
0.061608
0.0612553
0.0606064
0.0596041
0.0581602
0.0561426
0.0533494
0.0494518
0.0438336
0.034937
0.0156341
0.0595499
0.060397
0.0613234
0.0621688
0.0628537
0.0633444
0.0636272
0.0636936
0.0635303
0.0631128
0.0624005
0.0613311
0.0598122
0.0577076
0.0548108
0.0507846
0.0449967
0.0358454
0.0160378
0.0626408
0.0631432
0.0637366
0.064308
0.0647834
0.0651188
0.0652869
0.0652661
0.0650323
0.0645529
0.0637812
0.0626501
0.0610638
0.0588826
0.0558959
0.0517609
0.0458344
0.0364863
0.0163168
0.0649321
0.0652429
0.0656267
0.0660068
0.0663234
0.066533
0.0666026
0.0665036
0.066205
0.0656683
0.064842
0.0636552
0.0620089
0.0597608
0.056697
0.0524709
0.0464326
0.0369338
0.0165071
0.0666603
0.0668556
0.0671022
0.0673475
0.0675444
0.0676533
0.0676404
0.0674734
0.067117
0.0665287
0.0656533
0.0644169
0.0627181
0.0604122
0.0572835
0.0529824
0.046855
0.0372422
0.0166347
0.067974
0.0680953
0.0682492
0.0683981
0.0685046
0.0685341
0.0684532
0.0682283
0.0678217
0.0671879
0.0662693
0.0649897
0.0632456
0.060891
0.0577082
0.0533465
0.0471495
0.0374517
0.0167188
0.068974
0.0690459
0.0691353
0.0692143
0.0692528
0.0692199
0.069084
0.0688108
0.0683614
0.0676885
0.0667327
0.0654162
0.063634
0.0612388
0.0580122
0.0536024
0.047352
0.0375919
0.0167734
0.0697329
0.0697706
0.0698144
0.0698425
0.0698296
0.0697483
0.0695682
0.0692555
0.0687704
0.0680647
0.0670776
0.0657302
0.0639166
0.0614885
0.0582269
0.0537797
0.0474891
0.0376843
0.0168083
0.0703051
0.0703188
0.0703299
0.0703206
0.0702691
0.0701503
0.0699354
0.0695909
0.0690768
0.0683441
0.0673313
0.0659587
0.0641196
0.0616653
0.0583765
0.0539009
0.0475808
0.0377443
0.0168302
0.0707327
0.0707293
0.0707169
0.0706801
0.0705997
0.0704523
0.0702103
0.0698406
0.0693033
0.0685489
0.0675154
0.0661227
0.0642635
0.0617889
0.0584794
0.0539827
0.0476411
0.0377827
0.0168438
0.0710486
0.0710331
0.0710036
0.0709468
0.0708449
0.070676
0.0704132
0.0700241
0.0694685
0.0686971
0.0676474
0.0662389
0.0643642
0.0618741
0.0585491
0.054037
0.0476803
0.037807
0.0168522
0.0712793
0.071255
0.0712134
0.071142
0.0710243
0.0708393
0.0705609
0.0701569
0.0695874
0.0688028
0.0677406
0.0663201
0.0644336
0.061932
0.0585957
0.0540726
0.0477054
0.0378221
0.0168572
0.0714454
0.071415
0.0713647
0.0712828
0.0711536
0.0709568
0.0706669
0.0702517
0.0696717
0.0688772
0.0678056
0.0663761
0.0644809
0.0619709
0.0586265
0.0540957
0.0477214
0.0378315
0.0168602
0.0715634
0.0715287
0.0714722
0.0713828
0.0712454
0.0710402
0.0707417
0.0703184
0.0697307
0.0689288
0.0678503
0.0664142
0.0645128
0.0619967
0.0586466
0.0541105
0.0477313
0.0378372
0.016862
0.0716461
0.0716083
0.0715475
0.0714529
0.0713097
0.0710984
0.0707939
0.0703647
0.0697713
0.0689642
0.0678807
0.0664398
0.0645339
0.0620136
0.0586596
0.0541199
0.0477375
0.0378406
0.0168631
0.0717031
0.0716633
0.0715995
0.0715013
0.071354
0.0711385
0.0708297
0.0703964
0.069799
0.0689881
0.067901
0.0664568
0.0645477
0.0620245
0.0586678
0.0541257
0.0477413
0.0378427
0.0168637
0.0717419
0.0717007
0.0716349
0.0715343
0.0713842
0.0711657
0.070854
0.0704177
0.0698176
0.069004
0.0679144
0.0664679
0.0645567
0.0620315
0.058673
0.0541294
0.0477437
0.037844
0.0168641
0.071768
0.0717258
0.0716587
0.0715564
0.0714044
0.0711839
0.0708702
0.0704319
0.0698299
0.0690145
0.0679232
0.0664751
0.0645625
0.062036
0.0586763
0.0541316
0.0477451
0.0378447
0.0168643
0.0717853
0.0717425
0.0716745
0.071571
0.0714178
0.0711959
0.0708809
0.0704413
0.0698379
0.0690214
0.0679289
0.0664797
0.0645661
0.0620388
0.0586783
0.054133
0.0477459
0.0378451
0.0168644
0.0717966
0.0717534
0.0716848
0.0715806
0.0714266
0.0712038
0.0708878
0.0704474
0.0698431
0.0690257
0.0679326
0.0664827
0.0645684
0.0620405
0.0586795
0.0541338
0.0477464
0.0378454
0.0168645
0.0718039
0.0717604
0.0716914
0.0715867
0.0714322
0.0712089
0.0708923
0.0704512
0.0698465
0.0690285
0.0679349
0.0664845
0.0645698
0.0620416
0.0586803
0.0541343
0.0477467
0.0378455
0.0168645
0.0718085
0.0717649
0.0716957
0.0715907
0.0714358
0.0712121
0.0708951
0.0704537
0.0698486
0.0690303
0.0679363
0.0664857
0.0645707
0.0620422
0.0586807
0.0541346
0.0477469
0.0378456
0.0168645
0.0718115
0.0717677
0.0716983
0.0715932
0.0714381
0.0712141
0.0708969
0.0704553
0.0698499
0.0690314
0.0679372
0.0664864
0.0645713
0.0620426
0.058681
0.0541348
0.047747
0.0378456
0.0168645
0.0718133
0.0717695
0.0717
0.0715947
0.0714395
0.0712154
0.070898
0.0704562
0.0698507
0.0690321
0.0679377
0.0664868
0.0645716
0.0620428
0.0586812
0.0541349
0.047747
0.0378457
0.0168645
0.0718144
0.0717706
0.071701
0.0715957
0.0714404
0.0712162
0.0708987
0.0704568
0.0698512
0.0690325
0.0679381
0.066487
0.0645718
0.062043
0.0586813
0.0541349
0.047747
0.0378457
0.0168645
0.0718151
0.0717712
0.0717017
0.0715963
0.0714409
0.0712167
0.0708992
0.0704572
0.0698515
0.0690327
0.0679383
0.0664872
0.0645719
0.0620431
0.0586813
0.054135
0.0477471
0.0378457
0.0168645
0.0718155
0.0717716
0.0717021
0.0715966
0.0714412
0.071217
0.0708994
0.0704574
0.0698517
0.0690329
0.0679384
0.0664873
0.064572
0.0620431
0.0586814
0.054135
0.0477471
0.0378457
0.0168645
0.0718158
0.0717719
0.0717023
0.0715968
0.0714414
0.0712171
0.0708996
0.0704575
0.0698518
0.069033
0.0679385
0.0664873
0.064572
0.0620431
0.0586814
0.054135
0.0477471
0.0378457
0.0168645
0.0718159
0.071772
0.0717024
0.071597
0.0714415
0.0712172
0.0708997
0.0704576
0.0698519
0.069033
0.0679385
0.0664874
0.064572
0.0620431
0.0586814
0.054135
0.0477471
0.0378457
0.0168645
0.071816
0.0717721
0.0717025
0.071597
0.0714416
0.0712173
0.0708997
0.0704577
0.0698519
0.0690331
0.0679385
0.0664874
0.064572
0.0620432
0.0586814
0.054135
0.0477471
0.0378457
0.0168645
0.0718161
0.0717721
0.0717025
0.0715971
0.0714416
0.0712173
0.0708997
0.0704577
0.0698519
0.0690331
0.0679385
0.0664874
0.064572
0.0620432
0.0586814
0.054135
0.0477471
0.0378457
0.0168645
0.0718161
0.0717722
0.0717026
0.0715971
0.0714417
0.0712174
0.0708998
0.0704577
0.0698519
0.0690331
0.0679386
0.0664874
0.0645721
0.0620432
0.0586814
0.054135
0.0477471
0.0378457
0.0168645
0.0718161
0.0717722
0.0717026
0.0715971
0.0714417
0.0712174
0.0708998
0.0704577
0.0698519
0.0690331
0.0679386
0.0664874
0.0645721
0.0620432
0.0586814
0.054135
0.0477471
0.0378457
0.0168645
0.0718161
0.0717722
0.0717026
0.0715971
0.0714417
0.0712174
0.0708998
0.0704577
0.069852
0.0690331
0.0679386
0.0664874
0.0645721
0.0620432
0.0586814
0.054135
0.0477471
0.0378457
0.0168645
0.0718161
0.0717722
0.0717026
0.0715971
0.0714417
0.0712174
0.0708998
0.0704577
0.069852
0.0690331
0.0679386
0.0664874
0.0645721
0.0620432
0.0586814
0.054135
0.0477471
0.0378457
0.0168645
0.0718161
0.0717722
0.0717026
0.0715971
0.0714417
0.0712174
0.0708998
0.0704577
0.069852
0.0690331
0.0679386
0.0664874
0.0645721
0.0620432
0.0586814
0.054135
0.0477471
0.0378457
0.0168645
0.0718161
0.0717722
0.0717026
0.0715971
0.0714417
0.0712174
0.0708998
0.0704577
0.069852
0.0690331
0.0679386
0.0664874
0.0645721
0.0620432
0.0586814
0.054135
0.0477471
0.0378457
0.0168645
0.0718161
0.0717721
0.0717026
0.0715971
0.0714417
0.0712174
0.0708998
0.0704577
0.069852
0.0690331
0.0679386
0.0664874
0.0645721
0.0620432
0.0586814
0.054135
0.0477471
0.0378457
0.0168645
0.071816
0.0717721
0.0717026
0.0715971
0.0714417
0.0712174
0.0708998
0.0704577
0.069852
0.0690331
0.0679386
0.0664874
0.0645721
0.0620432
0.0586814
0.054135
0.0477471
0.0378457
0.0168645
0.071816
0.0717721
0.0717025
0.0715971
0.0714417
0.0712174
0.0708998
0.0704577
0.069852
0.0690331
0.0679386
0.0664874
0.0645721
0.0620432
0.0586814
0.054135
0.0477471
0.0378457
0.0168645
)
;

boundaryField
{
    leftWall
    {
        type            kqRWallFunction;
        value           nonuniform List<scalar> 
50
(
0.00327999
0.0060293
0.00789504
0.00934094
0.0104898
0.0114248
0.0121985
0.0128459
0.0137003
0.0145121
0.0150832
0.0154829
0.0157596
0.0159484
0.0160751
0.0161587
0.0162128
0.0162474
0.0162691
0.0162825
0.0162906
0.0162956
0.0162985
0.0163002
0.0163013
0.0163018
0.0163022
0.0163024
0.0163025
0.0163025
0.0163026
0.0163026
0.0163026
0.0163026
0.0163026
0.0163026
0.0163026
0.0163026
0.0163026
0.0163026
0.0163026
0.0163026
0.0163026
0.0163026
0.0163026
0.0163026
0.0163026
0.0163026
0.0163026
0.0163026
)
;
    }
    rightWall
    {
        type            kqRWallFunction;
        value           nonuniform List<scalar> 
50
(
0.00357846
0.00647505
0.00835911
0.00981945
0.0109813
0.011928
0.0127119
0.0133681
0.0142343
0.0150566
0.0156341
0.0160378
0.0163168
0.0165071
0.0166347
0.0167188
0.0167734
0.0168083
0.0168302
0.0168438
0.0168522
0.0168572
0.0168602
0.016862
0.0168631
0.0168637
0.0168641
0.0168643
0.0168644
0.0168645
0.0168645
0.0168645
0.0168645
0.0168645
0.0168645
0.0168645
0.0168645
0.0168645
0.0168645
0.0168645
0.0168645
0.0168645
0.0168645
0.0168645
0.0168645
0.0168645
0.0168645
0.0168645
0.0168645
0.0168645
)
;
    }
    lowerWall
    {
        type            kqRWallFunction;
        value           nonuniform List<scalar> 
62
(
0.00327999
0.00610554
0.00824628
0.00967033
0.0106658
0.0113754
0.0118829
0.0122432
0.0124946
0.0126647
0.0127731
0.0128327
0.0128502
0.0128257
0.0127523
0.0126141
0.0123833
0.0120139
0.011431
0.0105094
0.00903557
0.00662713
0.00253354
0.00253354
0.00622015
0.00848647
0.0103558
0.012073
0.0139473
0.0167747
0.0233604
0.0261269
0.0219731
0.0219408
0.0259562
0.00269941
0.00662967
0.00894194
0.0108492
0.0126164
0.014588
0.0176106
0.0243468
0.00269941
0.00700202
0.00944031
0.010867
0.0117165
0.0122237
0.0125193
0.0126765
0.0127352
0.0127135
0.0126137
0.0124246
0.012122
0.0116672
0.011002
0.0100358
0.00861441
0.00642917
0.00357846
)
;
    }
    atmosphere
    {
        type            inletOutlet;
        inletValue      uniform 0.1;
        value           nonuniform List<scalar> 
46
(
0.0163026
0.0365523
0.0461935
0.0524977
0.0570655
0.0605127
0.0631653
0.0652253
0.0668304
0.0680798
0.0690481
0.0697935
0.0703621
0.070791
0.0711106
0.0713455
0.0715156
0.0716368
0.0717214
0.071779
0.0718167
0.0718391
0.0718495
0.0718493
0.0718468
0.0718417
0.0718339
0.071816
0.0717721
0.0717025
0.0715971
0.0714417
0.0712174
0.0708998
0.0704577
0.069852
0.0690331
0.0679386
0.0664874
0.0645721
0.0620432
0.0586814
0.054135
0.0477471
0.0378457
0.0168645
)
;
    }
    defaultFaces
    {
        type            empty;
    }
}


// ************************************************************************* //
