/*--------------------------------*- C++ -*----------------------------------*\
| =========                 |                                                 |
| \\      /  F ield         | OpenFOAM: The Open Source CFD Toolbox           |
|  \\    /   O peration     | Version:  2406                                  |
|   \\  /    A nd           | Website:  www.openfoam.com                      |
|    \\/     M anipulation  |                                                 |
\*---------------------------------------------------------------------------*/
FoamFile
{
    version     2.0;
    format      ascii;
    arch        "LSB;label=32;scalar=64";
    class       volScalarField;
    location    "0.4";
    object      nut;
}
// * * * * * * * * * * * * * * * * * * * * * * * * * * * * * * * * * * * * * //

dimensions      [0 2 -1 0 0 0 0];

internalField   nonuniform List<scalar> 
2268
(
4.62983e-05
4.80521e-05
5.62268e-05
6.12046e-05
6.45657e-05
6.69415e-05
6.86538e-05
6.9892e-05
7.07785e-05
7.13964e-05
7.18033e-05
7.20367e-05
7.21163e-05
7.20438e-05
7.18005e-05
7.13425e-05
7.059e-05
6.94065e-05
6.75536e-05
6.45958e-05
5.96722e-05
5.07811e-05
3.03467e-05
9.91756e-05
0.00036754
0.00048525
0.000555407
0.000602894
0.00063678
0.000661477
0.000679535
0.000692598
0.000701793
0.000707905
0.000711458
0.000712732
0.000711761
0.000708302
0.000701761
0.000691054
0.000674288
0.000648101
0.000606165
0.000535545
0.000404906
0.000101957
0.000114599
0.000605936
0.000869522
0.0010343
0.00114873
0.00123192
0.00129346
0.00133899
0.00137224
0.00139582
0.00141161
0.00142087
0.00142431
0.00142201
0.00141338
0.00139698
0.00137015
0.00132824
0.00126303
0.0011593
0.000987327
0.000683831
0.000120469
0.000125452
0.000771208
0.00116632
0.00142444
0.00160786
0.00174327
0.00184457
0.00192018
0.0019758
0.00201551
0.00204228
0.00205814
0.00206424
0.00206073
0.00204667
0.00201974
0.00197561
0.00190679
0.00180006
0.00163136
0.00135576
0.000888598
0.00013417
0.000133556
0.000894398
0.0014033
0.0017481
0.00199814
0.00218521
0.00232656
0.00243291
0.00251168
0.00256827
0.00260669
0.00262971
0.00263889
0.00263451
0.00261531
0.00257814
0.00251716
0.00242224
0.00227557
0.00204503
0.00167199
0.00105535
0.000145798
0.000139892
0.000991041
0.00159812
0.00202199
0.00233491
0.0025719
0.00275262
0.00288962
0.00299176
0.00306563
0.00311614
0.00314676
0.00315948
0.0031547
0.00313094
0.00308437
0.00300787
0.00288908
0.00270643
0.00242093
0.00196095
0.00120642
0.000157605
0.000145001
0.0010695
0.00176173
0.00225721
0.00262883
0.00291345
0.00313237
0.00329954
0.00342499
0.0035163
0.00357921
0.00361783
0.00363456
0.00362997
0.00360245
0.00354768
0.00345759
0.00331825
0.00310543
0.00277529
0.00224454
0.00136327
0.000173851
0.000149207
0.00113466
0.00190121
0.00246138
0.00288741
0.00321709
0.00347275
0.00366935
0.00381783
0.00392661
0.00400213
0.0040491
0.00407033
0.0040666
0.00403628
0.0039748
0.00387354
0.00371771
0.00348199
0.00312107
0.00254667
0.00156845
0.00020638
3.13259e-05
5.22515e-05
6.10552e-05
6.57462e-05
6.84475e-05
7.00526e-05
7.09946e-05
7.1496e-05
7.16708e-05
7.15688e-05
7.11951e-05
7.0517e-05
6.94643e-05
6.7919e-05
6.56897e-05
6.24459e-05
5.75379e-05
4.93488e-05
4.99683e-05
0.000116683
0.000426276
0.000555214
0.000622353
0.000660609
0.000683285
0.000696604
0.000703674
0.000706048
0.000704391
0.000698754
0.000688684
0.000673225
0.00065079
0.000618805
0.000572771
0.000503486
0.0003859
0.000113966
0.000137062
0.000730884
0.00103432
0.00119893
0.0012939
0.00135047
0.00138375
0.00140135
0.0014071
0.0014026
0.00138799
0.00136219
0.00132295
0.00126662
0.00118746
0.00107561
0.000911456
0.000644955
0.000130731
0.000152283
0.000958362
0.00143002
0.00169526
0.00185018
0.00194286
0.00199741
0.00202612
0.00203516
0.00202715
0.00200229
0.00195886
0.00189334
0.00180011
0.00167049
0.00149003
0.00123097
0.000827566
0.000142639
0.000165359
0.00114511
0.00177156
0.00213175
0.00234385
0.00247128
0.00254634
0.0025856
0.00259739
0.00258524
0.0025494
0.00248752
0.00239491
0.00226418
0.00208418
0.00183681
0.00148856
0.000965
0.000151583
0.000178926
0.00131441
0.00208306
0.00252768
0.00279068
0.0029494
0.00304303
0.00309165
0.00310536
0.00308841
0.00304102
0.00296026
0.00284037
0.00267248
0.00244338
0.00213225
0.00170183
0.00107346
0.000158596
0.00019783
0.0014885
0.00238518
0.00289801
0.00320253
0.00338756
0.00349698
0.0035533
0.00356789
0.00354541
0.00348599
0.00338613
0.00323913
0.00303485
0.00275852
0.00238738
0.00188186
0.00116183
0.000164262
0.000234043
0.00170913
0.00269894
0.00325431
0.00358812
0.00379327
0.00391509
0.00397715
0.00399138
0.00396263
0.00389076
0.00377172
0.00359799
0.0033584
0.00303703
0.00260982
0.00203596
0.00123542
0.000168931
0.000154673
0.00122061
0.00208996
0.00274281
0.00324903
0.00364661
0.00395868
0.00420116
0.00438605
0.00452281
0.0046189
0.00467983
0.00470909
0.00470788
0.00467476
0.00460507
0.00448999
0.00431466
0.00405474
0.00367038
0.00309786
0.00225582
0.00116117
0.000159888
0.00130459
0.00227976
0.00303179
0.00362682
0.00410198
0.00448033
0.00477813
0.00500805
0.00518039
0.00530353
0.00538391
0.00542592
0.00543158
0.00540027
0.00532831
0.00520842
0.00502875
0.00477171
0.00441289
0.00392307
0.00328229
0.00252318
0.000163604
0.00136613
0.00242242
0.00325329
0.00392125
0.00446208
0.00489808
0.00524527
0.00551642
0.00572224
0.00587173
0.00597212
0.00602869
0.0060445
0.00602018
0.00595375
0.00584052
0.00567305
0.0054416
0.00513581
0.00474982
0.00429489
0.00382478
0.000166266
0.00141141
0.00252954
0.00342239
0.00414935
0.00474473
0.00522984
0.00562011
0.0059281
0.00616463
0.00633912
0.00645946
0.00653181
0.00656034
0.00654717
0.00649231
0.00639392
0.00624885
0.00605384
0.00580796
0.00551724
0.00520278
0.00491219
0.000168166
0.00144452
0.00260928
0.00355017
0.0043241
0.00496397
0.00549007
0.0059171
0.00625725
0.00652129
0.0067189
0.00685851
0.00694709
0.00698996
0.00699069
0.00695124
0.00687233
0.00675425
0.00659815
0.00640819
0.00619472
0.00597837
0.00579348
0.000169509
0.00146845
0.00266782
0.00364536
0.00445603
0.00513152
0.00569114
0.00614889
0.00651649
0.0068046
0.00702302
0.00718066
0.00728521
0.00734301
0.00735894
0.00733665
0.0072789
0.0071884
0.00706887
0.00692665
0.00677249
0.00662326
0.00650204
0.000170444
0.00148548
0.0027101
0.0037151
0.00455397
0.00525742
0.00584392
0.00632679
0.00671733
0.00702599
0.0072627
0.00743668
0.00755627
0.00762867
0.00765986
0.00765481
0.00761779
0.00755302
0.00746552
0.00736213
0.00725248
0.0071494
0.0070682
0.000171085
0.00149738
0.00274008
0.00376528
0.00462539
0.00535037
0.00595798
0.00646097
0.00687024
0.00719607
0.00744841
0.00763677
0.00776999
0.00785594
0.00790151
0.00791262
0.00789456
0.00785242
0.00779174
0.00771908
0.00764252
0.00757163
0.00751663
0.000171517
0.00150554
0.00276095
0.00380071
0.00467652
0.00541775
0.0060416
0.00656037
0.00698461
0.00732444
0.00758981
0.00779046
0.00793559
0.00803361
0.00809204
0.00811751
0.00811595
0.00809291
0.00805398
0.00800517
0.00795313
0.00790498
0.00786773
0.000171802
0.00151103
0.0027752
0.00382527
0.00471246
0.0054657
0.00610181
0.00663269
0.00706864
0.00741962
0.00769561
0.00790645
0.00806164
0.00816999
0.00823948
0.00827719
0.00828944
0.00828197
0.00826025
0.00822968
0.00819573
0.00816382
0.00813884
0.000171987
0.00151465
0.00278476
0.00384198
0.00473726
0.00549923
0.00614439
0.00668438
0.0071293
0.00748898
0.00777338
0.00799246
0.0081559
0.0082728
0.00835144
0.00839922
0.00842265
0.00842754
0.00841914
0.00840232
0.00838167
0.00836137
0.00834499
0.000172106
0.00151701
0.00279105
0.00385317
0.00475409
0.00552226
0.00617398
0.0067207
0.00717234
0.00753865
0.00782958
0.00805514
0.00822516
0.00834892
0.00843491
0.0084907
0.00852294
0.00853739
0.00853909
0.0085325
0.00852152
0.00850953
0.00849921
0.000172181
0.00151851
0.00279513
0.00386053
0.00476532
0.00553783
0.00619422
0.0067458
0.00720238
0.00757364
0.00786951
0.00810006
0.00827518
0.00840429
0.008496
0.00855801
0.00859699
0.00861867
0.0086279
0.00862879
0.00862479
0.0086187
0.00861263
0.000172227
0.00151946
0.00279774
0.0038653
0.0047727
0.00554819
0.00620785
0.00676287
0.00722301
0.0075979
0.00789744
0.00813172
0.00831071
0.00844388
0.00853994
0.00860664
0.00865067
0.0086777
0.00869242
0.00869871
0.00869968
0.00869774
0.00869465
0.000172255
0.00152004
0.00279938
0.00386835
0.00477748
0.00555499
0.00621688
0.00677431
0.00723697
0.00761446
0.00791666
0.00815369
0.00833553
0.00847172
0.00857101
0.00864117
0.0086889
0.00871979
0.00873846
0.00874858
0.00875304
0.00875399
0.00875295
0.000172272
0.0015204
0.0028004
0.00387027
0.00478054
0.00555938
0.00622279
0.00678188
0.00724629
0.0076256
0.00792971
0.00816871
0.00835262
0.008491
0.00859262
0.00866528
0.00871565
0.0087493
0.00877074
0.00878354
0.00879041
0.00879336
0.00879372
0.000172283
0.00152062
0.00280103
0.00387147
0.00478246
0.00556219
0.00622661
0.00678681
0.00725242
0.007633
0.00793844
0.00817883
0.00836421
0.00850414
0.00860742
0.00868184
0.00873408
0.00876965
0.00879301
0.00880764
0.00881616
0.00882046
0.00882177
0.000172289
0.00152075
0.00280141
0.00387221
0.00478367
0.00556397
0.00622904
0.00678999
0.00725641
0.00763785
0.0079442
0.00818556
0.00837196
0.00851297
0.00861741
0.00869306
0.00874657
0.00878346
0.00880813
0.008824
0.00883363
0.00883884
0.00884077
0.000172292
0.00152083
0.00280164
0.00387266
0.00478441
0.00556507
0.00623058
0.00679201
0.00725897
0.00764099
0.00794796
0.00818997
0.00837707
0.00851883
0.00862405
0.00870054
0.00875492
0.0087927
0.00881824
0.00883494
0.00884531
0.00885111
0.00885346
0.000172294
0.00152087
0.00280178
0.00387293
0.00478487
0.00556576
0.00623154
0.00679328
0.00726059
0.007643
0.00795038
0.00819284
0.0083804
0.00852266
0.00862842
0.00870546
0.00876042
0.00879879
0.00882491
0.00884216
0.008853
0.00885919
0.00886181
0.000172296
0.0015209
0.00280186
0.0038731
0.00478514
0.00556618
0.00623213
0.00679408
0.00726162
0.00764427
0.00795192
0.00819467
0.00838255
0.00852514
0.00863125
0.00870865
0.008764
0.00880275
0.00882925
0.00884685
0.008858
0.00886444
0.00886723
0.000172296
0.00152092
0.00280191
0.00387319
0.00478531
0.00556643
0.0062325
0.00679457
0.00726225
0.00764507
0.0079529
0.00819583
0.00838391
0.00852672
0.00863306
0.00871071
0.0087663
0.0088053
0.00883204
0.00884986
0.00886121
0.0088678
0.0088707
0.000172297
0.00152093
0.00280194
0.00387325
0.00478541
0.00556658
0.00623272
0.00679487
0.00726264
0.00764557
0.0079535
0.00819656
0.00838477
0.00852772
0.0086342
0.00871201
0.00876776
0.00880692
0.00883381
0.00885177
0.00886325
0.00886994
0.00887291
0.000172297
0.00152093
0.00280195
0.00387328
0.00478546
0.00556668
0.00623285
0.00679505
0.00726288
0.00764587
0.00795388
0.00819701
0.00838531
0.00852835
0.00863492
0.00871282
0.00876868
0.00880793
0.00883492
0.00885297
0.00886453
0.00887128
0.00887429
0.000172297
0.00152093
0.00280196
0.0038733
0.0047855
0.00556673
0.00623293
0.00679516
0.00726303
0.00764606
0.00795411
0.00819729
0.00838564
0.00852873
0.00863537
0.00871333
0.00876924
0.00880856
0.00883561
0.00885372
0.00886532
0.00887211
0.00887514
0.000172297
0.00152093
0.00280197
0.00387331
0.00478552
0.00556676
0.00623298
0.00679523
0.00726312
0.00764617
0.00795425
0.00819746
0.00838584
0.00852897
0.00863564
0.00871364
0.00876959
0.00880895
0.00883604
0.00885418
0.0088658
0.00887262
0.00887567
0.000172297
0.00152094
0.00280197
0.00387332
0.00478553
0.00556678
0.006233
0.00679527
0.00726317
0.00764624
0.00795433
0.00819757
0.00838597
0.00852911
0.00863581
0.00871383
0.00876981
0.00880919
0.0088363
0.00885445
0.0088661
0.00887293
0.00887599
0.000172297
0.00152094
0.00280197
0.00387332
0.00478554
0.00556679
0.00623302
0.00679529
0.0072632
0.00764628
0.00795438
0.00819763
0.00838604
0.0085292
0.00863591
0.00871395
0.00876994
0.00880933
0.00883645
0.00885462
0.00886628
0.00887311
0.00887618
0.000172297
0.00152094
0.00280197
0.00387333
0.00478554
0.0055668
0.00623303
0.0067953
0.00726322
0.0076463
0.00795441
0.00819766
0.00838608
0.00852925
0.00863597
0.00871402
0.00877001
0.00880941
0.00883655
0.00885472
0.00886639
0.00887322
0.00887629
0.000172297
0.00152094
0.00280197
0.00387333
0.00478554
0.0055668
0.00623304
0.00679531
0.00726323
0.00764631
0.00795443
0.00819769
0.00838611
0.00852928
0.00863601
0.00871406
0.00877006
0.00880947
0.0088366
0.00885478
0.00886645
0.00887329
0.00887636
0.000172297
0.00152094
0.00280197
0.00387333
0.00478554
0.0055668
0.00623304
0.00679532
0.00726323
0.00764632
0.00795444
0.0081977
0.00838613
0.0085293
0.00863603
0.00871408
0.00877009
0.0088095
0.00883663
0.00885482
0.00886649
0.00887333
0.0088764
0.000172297
0.00152094
0.00280197
0.00387333
0.00478555
0.0055668
0.00623304
0.00679532
0.00726324
0.00764633
0.00795445
0.00819771
0.00838613
0.00852931
0.00863604
0.0087141
0.0087701
0.00880951
0.00883665
0.00885484
0.00886651
0.00887335
0.00887643
0.000172297
0.00152094
0.00280197
0.00387333
0.00478555
0.00556681
0.00623304
0.00679532
0.00726324
0.00764633
0.00795445
0.00819771
0.00838614
0.00852932
0.00863605
0.0087141
0.00877011
0.00880953
0.00883667
0.00885485
0.00886652
0.00887337
0.00887644
0.000172297
0.00152094
0.00280197
0.00387333
0.00478555
0.00556681
0.00623304
0.00679532
0.00726324
0.00764633
0.00795445
0.00819771
0.00838614
0.00852932
0.00863605
0.00871411
0.00877012
0.00880953
0.00883667
0.00885486
0.00886653
0.00887338
0.00887645
0.000172297
0.00152094
0.00280197
0.00387333
0.00478555
0.00556681
0.00623304
0.00679532
0.00726324
0.00764633
0.00795445
0.00819772
0.00838615
0.00852933
0.00863606
0.00871411
0.00877012
0.00880954
0.00883668
0.00885487
0.00886654
0.00887339
0.00887646
0.000172297
0.00152094
0.00280197
0.00387333
0.00478555
0.00556681
0.00623304
0.00679532
0.00726324
0.00764633
0.00795446
0.00819772
0.00838615
0.00852933
0.00863606
0.00871412
0.00877013
0.00880954
0.00883668
0.00885487
0.00886655
0.00887339
0.00887647
0.000172297
0.00152094
0.00280197
0.00387333
0.00478555
0.00556681
0.00623304
0.00679532
0.00726324
0.00764633
0.00795446
0.00819772
0.00838615
0.00852933
0.00863606
0.00871412
0.00877013
0.00880954
0.00883669
0.00885488
0.00886655
0.0088734
0.00887647
0.000172297
0.00152094
0.00280197
0.00387333
0.00478555
0.00556681
0.00623304
0.00679532
0.00726324
0.00764633
0.00795446
0.00819772
0.00838615
0.00852933
0.00863606
0.00871412
0.00877013
0.00880955
0.00883669
0.00885488
0.00886655
0.0088734
0.00887648
0.000172297
0.00152094
0.00280197
0.00387333
0.00478555
0.00556681
0.00623304
0.00679532
0.00726324
0.00764633
0.00795446
0.00819772
0.00838615
0.00852933
0.00863606
0.00871412
0.00877013
0.00880955
0.00883669
0.00885488
0.00886656
0.00887341
0.00887649
0.000172297
0.00152094
0.00280197
0.00387333
0.00478555
0.00556681
0.00623304
0.00679532
0.00726324
0.00764633
0.00795446
0.00819772
0.00838615
0.00852933
0.00863606
0.00871412
0.00877013
0.00880955
0.0088367
0.00885489
0.00886656
0.00887341
0.00887649
0.000172297
0.00152094
0.00280197
0.00387333
0.00478555
0.00556681
0.00623304
0.00679532
0.00726324
0.00764633
0.00795446
0.00819772
0.00838615
0.00852933
0.00863606
0.00871412
0.00877014
0.00880955
0.0088367
0.00885489
0.00886657
0.00887342
0.0088765
0.000172297
0.00152094
0.00280197
0.00387333
0.00478555
0.00556681
0.00623304
0.00679532
0.00726324
0.00764633
0.00795446
0.00819772
0.00838615
0.00852933
0.00863606
0.00871412
0.00877014
0.00880955
0.0088367
0.00885489
0.00886657
0.00887342
0.0088765
0.000220696
0.000202714
0.000202568
0.000219987
0.00195485
0.00186439
0.00186432
0.00195401
0.00356531
0.00348752
0.00348707
0.00356381
0.00477647
0.0047311
0.00473037
0.00477422
0.00571421
0.00568735
0.00568643
0.00571139
0.00645222
0.00643524
0.00643419
0.00644903
0.0070354
0.00702407
0.00702293
0.00703195
0.00749443
0.00748658
0.00748537
0.00749076
0.00785248
0.00784688
0.0078456
0.00784861
0.0081283
0.00812421
0.00812288
0.00812426
0.0083377
0.00833465
0.00833327
0.0083335
0.00849417
0.00849184
0.00849041
0.00848984
0.00860917
0.00860733
0.00860587
0.00860473
0.00869227
0.00869077
0.00868928
0.00868775
0.00875133
0.00875006
0.00874854
0.00874673
0.00879261
0.00879149
0.00878996
0.00878796
0.008821
0.00881999
0.00881844
0.00881631
0.00884023
0.00883929
0.00883773
0.00883551
0.00885306
0.00885216
0.0088506
0.00884832
0.0088615
0.00886064
0.00885907
0.00885675
0.00886699
0.00886614
0.00886457
0.00886223
0.0088705
0.00886966
0.00886809
0.00886574
0.00887273
0.0088719
0.00887033
0.00886796
0.00887412
0.0088733
0.00887172
0.00886935
0.00887499
0.00887416
0.00887259
0.00887021
0.00887552
0.00887469
0.00887312
0.00887074
0.00887584
0.00887502
0.00887344
0.00887106
0.00887603
0.00887521
0.00887364
0.00887126
0.00887615
0.00887533
0.00887375
0.00887137
0.00887622
0.0088754
0.00887382
0.00887144
0.00887626
0.00887544
0.00887387
0.00887148
0.00887629
0.00887547
0.00887389
0.00887151
0.0088763
0.00887548
0.00887391
0.00887152
0.00887631
0.00887549
0.00887392
0.00887153
0.00887632
0.0088755
0.00887392
0.00887154
0.00887633
0.00887551
0.00887393
0.00887155
0.00887633
0.00887551
0.00887394
0.00887156
0.00887634
0.00887552
0.00887394
0.00887156
0.00887635
0.00887553
0.00887395
0.00887157
0.00887635
0.00887553
0.00887396
0.00887158
0.00887636
0.00887554
0.00887397
0.00887158
0.00887636
0.00887554
0.00887397
0.00887159
0.00121759
0.00238397
0.0032488
0.0038101
0.00416879
0.00439564
0.0045316
0.00459948
0.00461107
0.00457096
0.00447844
0.00432855
0.00411266
0.00381835
0.00342846
0.00291788
0.00224533
0.00133272
0.000175004
0.0025608
0.00337919
0.00404857
0.00453826
0.00487799
0.00510305
0.00523967
0.00530441
0.00530611
0.00524753
0.00512657
0.00493701
0.00466902
0.00430926
0.00383994
0.00323592
0.00245672
0.00142795
0.000180795
0.00384141
0.00435831
0.00484279
0.00523554
0.00552826
0.00573016
0.00585284
0.00590502
0.00589112
0.00581119
0.00566125
0.00543378
0.00511805
0.00470025
0.00416268
0.00348095
0.00261619
0.00149783
0.000184918
0.00491756
0.0052407
0.00558024
0.00587941
0.00611536
0.00628249
0.00638162
0.00641439
0.00638066
0.0062775
0.00609893
0.00583609
0.00547754
0.00500933
0.00441422
0.00366891
0.00273631
0.00154929
0.000187868
0.00579325
0.00599885
0.00623345
0.00645331
0.00663357
0.00676198
0.00683272
0.00684213
0.00678619
0.00665916
0.00645316
0.00615811
0.00576198
0.00525085
0.0046081
0.00381161
0.00282598
0.00158695
0.00018997
0.00649881
0.006632
0.00679252
0.00694915
0.00707987
0.00717051
0.00721179
0.00719655
0.00711777
0.00696743
0.00673597
0.00641226
0.00598384
0.00543688
0.00475542
0.00391844
0.00289203
0.00161419
0.000191454
0.00706313
0.00715005
0.00725832
0.00736601
0.00745501
0.00751152
0.00752478
0.00748557
0.0073848
0.00721269
0.00695833
0.00660977
0.00615419
0.00557791
0.00486558
0.00399713
0.00293989
0.0016336
0.000192487
0.00751029
0.00756653
0.00763762
0.00770797
0.00776304
0.00779018
0.00777834
0.00771719
0.00759632
0.00740467
0.00713034
0.00676073
0.0062828
0.00568301
0.00494653
0.00405408
0.00297396
0.00164718
0.000193194
0.00786044
0.00789568
0.00794008
0.00798221
0.00801032
0.00801312
0.00797976
0.00789945
0.00776097
0.0075524
0.00726116
0.00687418
0.00637825
0.00575999
0.00500497
0.00409457
0.00299778
0.00165651
0.000193671
0.00813082
0.00815139
0.00817652
0.00819747
0.00820459
0.00818778
0.00813664
0.00804021
0.00788686
0.00766413
0.00735896
0.00695798
0.00644787
0.00581539
0.00504643
0.00412284
0.00301414
0.00166281
0.000193986
0.00833639
0.0083466
0.00835779
0.008363
0.00835406
0.00832186
0.00825643
0.0081469
0.0079814
0.00774717
0.00743084
0.00701884
0.0064978
0.00585458
0.00507534
0.00414224
0.00302517
0.00166698
0.000194192
0.00849014
0.00849301
0.00849415
0.00848778
0.00846676
0.00842273
0.00834617
0.00822628
0.00805115
0.00780784
0.00748279
0.00706231
0.00653301
0.00588186
0.00509517
0.00415533
0.00303249
0.0016697
0.000194324
0.00860321
0.00860088
0.00859483
0.00858004
0.00855009
0.00849719
0.00841213
0.00828428
0.00810171
0.00785141
0.00751971
0.00709286
0.00655746
0.00590054
0.00510855
0.00416403
0.00303727
0.00167144
0.000194407
0.00868495
0.00867898
0.00866783
0.00864699
0.00861056
0.00855112
0.00845974
0.00832592
0.00813776
0.0078822
0.00754554
0.00711399
0.00657417
0.00591315
0.00511746
0.00416973
0.00304034
0.00167255
0.000194459
0.00874305
0.00873454
0.00871982
0.00869472
0.00865365
0.00858949
0.00849351
0.00835531
0.00816303
0.00790361
0.00756334
0.00712841
0.00658544
0.00592154
0.0051233
0.00417341
0.0030423
0.00167324
0.000194491
0.00878367
0.00877341
0.00875623
0.00872815
0.00868383
0.00861634
0.00851706
0.00837572
0.00818047
0.00791828
0.00757543
0.0071381
0.00659292
0.00592705
0.00512708
0.00417576
0.00304353
0.00167366
0.00019451
0.00881161
0.00880017
0.0087813
0.00875119
0.00870463
0.0086348
0.00853323
0.00838967
0.00819233
0.00792819
0.00758352
0.00714452
0.00659784
0.00593062
0.0051295
0.00417724
0.00304429
0.00167392
0.000194522
0.00883053
0.0088183
0.00879831
0.00876682
0.00871873
0.00864732
0.00854416
0.00839907
0.00820029
0.00793479
0.00758887
0.00714873
0.00660102
0.00593291
0.00513103
0.00417817
0.00304476
0.00167408
0.000194529
0.00884316
0.00883041
0.00880967
0.00877726
0.00872815
0.00865567
0.00855144
0.00840531
0.00820554
0.00793913
0.00759237
0.00715146
0.00660307
0.00593436
0.00513199
0.00417874
0.00304504
0.00167418
0.000194533
0.00885147
0.00883838
0.00881715
0.00878415
0.00873436
0.00866117
0.00855623
0.00840941
0.00820898
0.00794195
0.00759462
0.0071532
0.00660436
0.00593527
0.00513259
0.00417909
0.00304521
0.00167423
0.000194535
0.00885687
0.00884356
0.00882201
0.00878862
0.00873839
0.00866474
0.00855933
0.00841206
0.00821119
0.00794376
0.00759606
0.00715431
0.00660518
0.00593584
0.00513296
0.0041793
0.00304532
0.00167427
0.000194537
0.00886033
0.00884688
0.00882513
0.00879149
0.00874098
0.00866703
0.00856132
0.00841375
0.0082126
0.00794491
0.00759696
0.007155
0.00660568
0.00593619
0.00513318
0.00417943
0.00304538
0.00167429
0.000194538
0.00886252
0.00884898
0.0088271
0.00879331
0.00874263
0.00866849
0.00856258
0.00841482
0.00821349
0.00794563
0.00759753
0.00715543
0.00660599
0.0059364
0.00513331
0.00417951
0.00304541
0.0016743
0.000194538
0.00886389
0.0088503
0.00882834
0.00879445
0.00874366
0.0086694
0.00856337
0.00841549
0.00821405
0.00794607
0.00759788
0.00715569
0.00660618
0.00593653
0.0051334
0.00417955
0.00304543
0.0016743
0.000194538
0.00886475
0.00885112
0.00882911
0.00879516
0.0087443
0.00866996
0.00856386
0.0084159
0.00821439
0.00794635
0.0075981
0.00715586
0.0066063
0.0059366
0.00513344
0.00417958
0.00304545
0.00167431
0.000194539
0.00886527
0.00885162
0.00882958
0.00879559
0.00874469
0.00867031
0.00856416
0.00841616
0.0082146
0.00794652
0.00759823
0.00715595
0.00660637
0.00593665
0.00513347
0.0041796
0.00304545
0.00167431
0.000194539
0.00886558
0.00885192
0.00882987
0.00879586
0.00874493
0.00867052
0.00856434
0.00841631
0.00821473
0.00794662
0.0075983
0.00715601
0.00660641
0.00593668
0.00513349
0.0041796
0.00304546
0.00167431
0.000194539
0.00886578
0.00885211
0.00883004
0.00879602
0.00874507
0.00867065
0.00856445
0.00841641
0.0082148
0.00794668
0.00759835
0.00715605
0.00660643
0.00593669
0.0051335
0.00417961
0.00304546
0.00167431
0.000194539
0.00886589
0.00885222
0.00883015
0.00879611
0.00874516
0.00867073
0.00856452
0.00841646
0.00821485
0.00794672
0.00759838
0.00715607
0.00660645
0.0059367
0.0051335
0.00417961
0.00304546
0.00167431
0.000194539
0.00886596
0.00885228
0.00883021
0.00879617
0.00874521
0.00867077
0.00856456
0.00841649
0.00821488
0.00794674
0.0075984
0.00715608
0.00660646
0.00593671
0.00513351
0.00417961
0.00304546
0.00167431
0.000194539
0.008866
0.00885232
0.00883025
0.00879621
0.00874524
0.0086708
0.00856458
0.00841651
0.00821489
0.00794675
0.00759841
0.00715609
0.00660646
0.00593671
0.00513351
0.00417962
0.00304546
0.00167431
0.000194539
0.00886602
0.00885234
0.00883027
0.00879623
0.00874526
0.00867082
0.0085646
0.00841653
0.0082149
0.00794676
0.00759841
0.00715609
0.00660646
0.00593671
0.00513351
0.00417962
0.00304546
0.00167431
0.000194539
0.00886604
0.00885236
0.00883028
0.00879624
0.00874527
0.00867083
0.00856461
0.00841653
0.00821491
0.00794676
0.00759842
0.00715609
0.00660646
0.00593672
0.00513351
0.00417962
0.00304546
0.00167431
0.000194539
0.00886605
0.00885237
0.00883029
0.00879625
0.00874528
0.00867083
0.00856461
0.00841654
0.00821491
0.00794677
0.00759842
0.00715609
0.00660647
0.00593672
0.00513351
0.00417962
0.00304546
0.00167431
0.000194539
0.00886606
0.00885238
0.0088303
0.00879625
0.00874528
0.00867084
0.00856461
0.00841654
0.00821491
0.00794677
0.00759842
0.00715609
0.00660647
0.00593672
0.00513351
0.00417962
0.00304546
0.00167431
0.000194539
0.00886606
0.00885238
0.0088303
0.00879626
0.00874529
0.00867084
0.00856462
0.00841654
0.00821491
0.00794677
0.00759842
0.0071561
0.00660647
0.00593672
0.00513351
0.00417962
0.00304546
0.00167431
0.000194539
0.00886607
0.00885239
0.00883031
0.00879626
0.00874529
0.00867084
0.00856462
0.00841654
0.00821492
0.00794677
0.00759842
0.0071561
0.00660647
0.00593672
0.00513351
0.00417962
0.00304546
0.00167431
0.000194539
0.00886608
0.00885239
0.00883031
0.00879627
0.00874529
0.00867084
0.00856462
0.00841655
0.00821492
0.00794677
0.00759842
0.0071561
0.00660647
0.00593672
0.00513351
0.00417962
0.00304546
0.00167431
0.000194539
0.00886608
0.0088524
0.00883032
0.00879627
0.0087453
0.00867085
0.00856462
0.00841655
0.00821492
0.00794677
0.00759842
0.0071561
0.00660647
0.00593672
0.00513351
0.00417962
0.00304546
0.00167431
0.000194539
0.00886609
0.0088524
0.00883032
0.00879627
0.0087453
0.00867085
0.00856462
0.00841655
0.00821492
0.00794677
0.00759842
0.0071561
0.00660647
0.00593672
0.00513351
0.00417962
0.00304546
0.00167431
0.000194539
0.00886609
0.00885241
0.00883033
0.00879627
0.0087453
0.00867085
0.00856462
0.00841655
0.00821492
0.00794677
0.00759842
0.0071561
0.00660647
0.00593672
0.00513351
0.00417962
0.00304546
0.00167431
0.000194539
0.0088661
0.00885241
0.00883033
0.00879628
0.0087453
0.00867085
0.00856463
0.00841655
0.00821492
0.00794677
0.00759842
0.0071561
0.00660647
0.00593672
0.00513351
0.00417962
0.00304546
0.00167431
0.000194539
)
;

boundaryField
{
    leftWall
    {
        type            nutkWallFunction;
        blending        stepwise;
        value           nonuniform List<scalar> 
50
(
1.92386e-06
6.54343e-06
9.00474e-06
1.06901e-05
1.19254e-05
1.28748e-05
1.36274e-05
1.42364e-05
1.5014e-05
1.57276e-05
1.62161e-05
1.65517e-05
1.67812e-05
1.69364e-05
1.704e-05
1.71081e-05
1.71522e-05
1.71802e-05
1.71978e-05
1.72086e-05
1.72152e-05
1.72192e-05
1.72216e-05
1.7223e-05
1.72238e-05
1.72243e-05
1.72246e-05
1.72247e-05
1.72248e-05
1.72249e-05
1.72249e-05
1.72249e-05
1.72249e-05
1.72249e-05
1.72249e-05
1.72249e-05
1.72249e-05
1.72249e-05
1.72249e-05
1.72249e-05
1.72249e-05
1.72249e-05
1.72249e-05
1.72249e-05
1.72249e-05
1.72249e-05
1.72249e-05
1.72249e-05
1.72249e-05
1.72249e-05
)
;
    }
    rightWall
    {
        type            nutkWallFunction;
        blending        stepwise;
        value           nonuniform List<scalar> 
50
(
4.03354e-06
9.12397e-06
1.17463e-05
1.35533e-05
1.4884e-05
1.59099e-05
1.67249e-05
1.73854e-05
1.82295e-05
1.90042e-05
1.9534e-05
1.98977e-05
2.01462e-05
2.03142e-05
2.04262e-05
2.04999e-05
2.05475e-05
2.05779e-05
2.0597e-05
2.06088e-05
2.06161e-05
2.06205e-05
2.06231e-05
2.06247e-05
2.06256e-05
2.06261e-05
2.06264e-05
2.06266e-05
2.06267e-05
2.06268e-05
2.06268e-05
2.06268e-05
2.06268e-05
2.06268e-05
2.06268e-05
2.06268e-05
2.06268e-05
2.06268e-05
2.06268e-05
2.06268e-05
2.06268e-05
2.06268e-05
2.06268e-05
2.06268e-05
2.06268e-05
2.06268e-05
2.06268e-05
2.06268e-05
2.06268e-05
2.06268e-05
)
;
    }
    lowerWall
    {
        type            nutkWallFunction;
        blending        stepwise;
        value           nonuniform List<scalar> 
62
(
0
0
0
0
0
3.1415e-07
5.77047e-07
7.59758e-07
8.85417e-07
9.69618e-07
1.02294e-06
1.05216e-06
1.06069e-06
1.04871e-06
1.01271e-06
9.44642e-07
8.29963e-07
6.43858e-07
3.43286e-07
0
0
0
0
0
6.81366e-06
9.71387e-06
1.17855e-05
1.35072e-05
1.52337e-05
1.76039e-05
2.23594e-05
2.42955e-05
2.1585e-05
2.15628e-05
2.41891e-05
0
9.35443e-06
1.24876e-05
1.47369e-05
1.66272e-05
1.85657e-05
2.12675e-05
2.64615e-05
0
0
0
4.39186e-08
4.91553e-07
7.49958e-07
8.97687e-07
9.75435e-07
1.00431e-06
9.93661e-07
9.44458e-07
8.5058e-07
6.98639e-07
4.66126e-07
1.16379e-07
0
0
0
0
)
;
    }
    atmosphere
    {
        type            calculated;
        value           nonuniform List<scalar> 
46
(
0.000172297
0.00152094
0.00280197
0.00387333
0.00478555
0.00556681
0.00623304
0.00679532
0.00726324
0.00764633
0.00795446
0.00819772
0.00838615
0.00852933
0.00863606
0.00871412
0.00877014
0.00880955
0.0088367
0.00885489
0.00886657
0.00887342
0.0088765
0.00887636
0.00887554
0.00887397
0.00887159
0.0088661
0.00885241
0.00883033
0.00879628
0.0087453
0.00867085
0.00856463
0.00841655
0.00821492
0.00794677
0.00759842
0.0071561
0.00660647
0.00593672
0.00513351
0.00417962
0.00304546
0.00167431
0.000194539
)
;
    }
    defaultFaces
    {
        type            empty;
    }
}


// ************************************************************************* //
