/*--------------------------------*- C++ -*----------------------------------*\
| =========                 |                                                 |
| \\      /  F ield         | OpenFOAM: The Open Source CFD Toolbox           |
|  \\    /   O peration     | Version:  2406                                  |
|   \\  /    A nd           | Website:  www.openfoam.com                      |
|    \\/     M anipulation  |                                                 |
\*---------------------------------------------------------------------------*/
FoamFile
{
    version     2.0;
    format      ascii;
    arch        "LSB;label=32;scalar=64";
    class       volScalarField;
    location    "0.4";
    object      nut;
}
// * * * * * * * * * * * * * * * * * * * * * * * * * * * * * * * * * * * * * //

dimensions      [0 2 -1 0 0 0 0];

internalField   nonuniform List<scalar> 
2268
(
0.000289337
0.000213038
0.000213038
0.000213038
0.000213038
0.000213038
0.000213038
0.000213038
0.000213038
0.000213038
0.000213038
0.000213038
0.000213038
5.91372e-05
4.84214e-05
5.4736e-05
5.81567e-05
5.97733e-05
5.99389e-05
5.85589e-05
5.50647e-05
4.78136e-05
2.97728e-05
0.000450785
0.000254306
0.000232321
0.000225511
0.000222385
0.000220634
0.000219545
0.000218827
0.000218345
0.000218025
0.00021783
0.000217737
0.000217737
8.50159e-05
0.000324647
0.000441884
0.000493862
0.000517945
0.000521628
0.000504197
0.000457897
0.000358278
9.83388e-05
0.000450785
0.000288167
0.000251962
0.000238672
0.000232268
0.000228639
0.000226375
0.000224885
0.000223885
0.000223224
0.000222819
0.000222627
0.000222627
0.000116707
0.000496317
0.000741838
0.000861738
0.000918958
0.000929539
0.000892249
0.000791195
0.000579136
0.000114646
0.000450785
0.000314823
0.000270613
0.00025196
0.00024245
0.000236938
0.000233468
0.000231177
0.000229635
0.000228616
0.000227993
0.000227696
0.000227696
0.000144058
0.000610309
0.000953137
0.00113576
0.00122646
0.00124589
0.00119205
0.00104241
0.000734047
0.000126474
0.000450785
0.000335499
0.000287639
0.000264953
0.00025271
0.000245414
0.000240758
0.00023766
0.00023557
0.000234185
0.000233336
0.000232932
0.000232932
0.000167847
0.000697064
0.00111613
0.00135521
0.00147903
0.00150963
0.00144383
0.00125302
0.000860529
0.0001366
0.000450785
0.000351572
0.000302834
0.000277373
0.000262866
0.000253958
0.000248177
0.000244294
0.000241659
0.000239908
0.000238833
0.000238321
0.000238321
0.00018908
0.000769193
0.00125277
0.00154425
0.00170156
0.00174635
0.00167399
0.00144956
0.000979563
0.000147254
0.000450785
0.000364209
0.000316232
0.000289058
0.00027278
0.000262475
0.000255663
0.000251036
0.000247874
0.000245763
0.000244464
0.000243845
0.000243845
0.000208528
0.00083328
0.00137611
0.00171844
0.00191059
0.00197331
0.00190091
0.00165232
0.00110947
0.000162555
0.000450785
0.00037429
0.00032798
0.000299934
0.000282353
0.000270887
0.000263158
0.000257844
0.000254183
0.000251727
0.000250211
0.000249487
0.000249487
0.000226787
0.000893769
0.00149542
0.00188931
0.00211862
0.00220373
0.00213923
0.00188149
0.00128301
0.000193421
3.09294e-05
5.01849e-05
5.8109e-05
6.2379e-05
6.48763e-05
6.6378e-05
6.72651e-05
6.77424e-05
6.79216e-05
6.78539e-05
6.75435e-05
6.69545e-05
6.60123e-05
6.45997e-05
6.25396e-05
5.95423e-05
5.50451e-05
4.76147e-05
4.95308e-05
0.000114057
0.000392333
0.00050181
0.000559693
0.000593629
0.000614235
0.000626526
0.000633166
0.000635612
0.00063453
0.00062996
0.000621407
0.000607874
0.000587845
0.000559108
0.000518088
0.000457526
0.000356289
0.000111898
0.000132904
0.000650268
0.000890501
0.00102166
0.00109997
0.00114814
0.0011771
0.00119277
0.00119845
0.00119564
0.00118444
0.00116371
0.00113121
0.00108371
0.00101672
0.000923355
0.00078966
0.000575292
0.000127383
0.000146902
0.000837571
0.0011956
0.00139607
0.00151724
0.0015924
0.00163779
0.00166231
0.00167098
0.00166609
0.00164774
0.00161416
0.00156196
0.00148638
0.00138113
0.00123691
0.00103522
0.000723828
0.000138266
0.000159149
0.0009939
0.00145882
0.00172226
0.00188247
0.00198241
0.00204296
0.00207558
0.00208672
0.00207931
0.00205342
0.00200664
0.00193455
0.00183105
0.00168845
0.00149572
0.00123136
0.000835888
0.0001465
0.000172251
0.00114208
0.00170798
0.00202766
0.0022223
0.00234424
0.00241833
0.00245806
0.002471
0.00246053
0.00242659
0.00236615
0.00227384
0.00214244
0.00196309
0.0017235
0.00139996
0.000928144
0.000153121
0.000190861
0.00130189
0.00196426
0.00233156
0.00255516
0.00269593
0.00278168
0.00282737
0.00284132
0.00282713
0.00278451
0.00270983
0.00259682
0.00243734
0.00222153
0.00193593
0.00155482
0.00100994
0.000158711
0.000226103
0.00150787
0.00224804
0.00264916
0.00289513
0.00305114
0.00314645
0.0031968
0.00321086
0.00319221
0.0031402
0.00305061
0.0029164
0.00272856
0.00247634
0.00214496
0.00170625
0.00108762
0.00016361
0.000450785
0.000387195
0.000344345
0.000315956
0.00029696
0.000284002
0.000275004
0.000268693
0.00026429
0.000261312
0.000259464
0.000258579
0.000258579
0.000254364
0.00098865
0.0016876
0.00216733
0.00246101
0.00258991
0.00255264
0.00232073
0.00182896
0.0010245
0.000450785
0.000399213
0.000361271
0.000333994
0.000314484
0.000300479
0.00029038
0.000283101
0.000277923
0.000274374
0.000272154
0.000271085
0.000271085
0.000285565
0.00108129
0.00187542
0.00245055
0.00282721
0.00302737
0.0030587
0.00291705
0.00259297
0.00210141
0.000450785
0.00040801
0.000374623
0.000349177
0.000330022
0.000315684
0.000304997
0.0002971
0.000291377
0.000287402
0.000284893
0.000283679
0.000283679
0.000312371
0.00114999
0.00201365
0.00266711
0.00312106
0.00339718
0.00350998
0.00347114
0.00329793
0.00303094
0.000450785
0.000414732
0.000385376
0.000362021
0.000343728
0.000329559
0.000318699
0.000310492
0.000304443
0.000300188
0.00029748
0.000296163
0.000296163
0.000336073
0.0012038
0.00212084
0.00283928
0.00336271
0.00371192
0.00390474
0.0039597
0.00390165
0.00376852
0.000450785
0.000420036
0.000394196
0.000372955
0.000355793
0.000342128
0.000331402
0.000323139
0.000316954
0.000312554
0.000309732
0.000308353
0.000308353
0.000357325
0.00124696
0.0022056
0.00297764
0.00356124
0.00397584
0.00423992
0.00437336
0.00440042
0.00435077
0.000450785
0.000424322
0.000401533
0.000382319
0.000366407
0.000353448
0.000343073
0.000334948
0.000328783
0.000324354
0.000321491
0.000320087
0.000320087
0.000376466
0.00128185
0.00227275
0.00308821
0.00372206
0.00419205
0.00451584
0.00471209
0.00480199
0.00480826
0.000450785
0.000427844
0.000407702
0.000390373
0.000375736
0.000363593
0.000353711
0.00034586
0.000339836
0.000335469
0.000332629
0.00033123
0.00033123
0.000393696
0.00131007
0.00232552
0.00317534
0.00384968
0.00436455
0.0047361
0.00498095
0.005117
0.005162
0.000450785
0.000430773
0.000412924
0.000397317
0.000383922
0.000372639
0.000363331
0.000355848
0.000350049
0.000345811
0.000343041
0.000341672
0.000341672
0.000409156
0.00133287
0.00236654
0.00324283
0.00394875
0.00449859
0.00490688
0.00518814
0.00535746
0.00542919
0.000450785
0.000433225
0.000417363
0.000403307
0.000391085
0.00038066
0.000371962
0.000364899
0.000359379
0.00035532
0.000352653
0.000351331
0.000351331
0.000422969
0.00135131
0.00239819
0.00329439
0.00402422
0.00460039
0.00503595
0.00534361
0.00553626
0.00562598
0.000450785
0.000435287
0.000421138
0.000408465
0.000397325
0.000387725
0.000379639
0.000373018
0.000367807
0.000363953
0.000361411
0.000360148
0.000360149
0.000435259
0.00136636
0.00242267
0.00333364
0.00408117
0.00467661
0.00513175
0.00545789
0.00566637
0.00576775
0.000450785
0.00043702
0.000424344
0.000412887
0.000402727
0.000393897
0.000386401
0.00038022
0.000375327
0.000371691
0.000369284
0.000368086
0.000368087
0.000446163
0.00137893
0.00244212
0.00336407
0.00412459
0.00473382
0.00520257
0.00554115
0.00575986
0.00586838
0.000450785
0.000438472
0.000427051
0.000416652
0.000407363
0.000399234
0.000392287
0.000386527
0.000381944
0.000378525
0.000376256
0.000375124
0.000375125
0.000455853
0.00138996
0.00245863
0.00338911
0.00415928
0.00477822
0.00525607
0.00560252
0.00582732
0.00593971
0.000450785
0.000439679
0.000429316
0.000419824
0.000411295
0.000403787
0.000397338
0.000391965
0.000387672
0.00038446
0.000382322
0.000381255
0.000381255
0.000464569
0.00140053
0.00247448
0.0034123
0.00418997
0.00481567
0.00529913
0.00564987
0.00587753
0.00599128
0.000450785
0.000440669
0.000431185
0.000422455
0.000414573
0.000407603
0.00040159
0.00039656
0.00039253
0.000389505
0.000387488
0.00038648
0.000386481
0.00047271
0.00141212
0.00249248
0.0034377
0.00422166
0.00485182
0.00533796
0.00568991
0.00591762
0.00603051
0.000450785
0.000441465
0.000432693
0.000424588
0.000417241
0.000410721
0.000405077
0.000400341
0.000396537
0.000393675
0.000391765
0.000390809
0.000390809
0.000481011
0.00142705
0.00251672
0.00347062
0.00426018
0.0048926
0.00537839
0.00572837
0.00595327
0.00606306
0.000450785
0.000442082
0.000433868
0.000426255
0.000419334
0.000413175
0.000407829
0.000403333
0.000399713
0.000396987
0.000395164
0.000394252
0.000394252
0.000490997
0.00144964
0.00255407
0.00351894
0.00431306
0.00494459
0.0054261
0.00577025
0.00598904
0.00609316
0.000450785
0.000442535
0.000434731
0.000427483
0.00042088
0.000414991
0.00040987
0.000405556
0.000402078
0.000399455
0.0003977
0.000396821
0.000396821
0.000506265
0.00148931
0.00261769
0.00359534
0.00439044
0.00501532
0.00548663
0.0058198
0.00602841
0.00612389
0.000450785
0.000442832
0.000435299
0.000428292
0.000421899
0.000416191
0.00041122
0.000407029
0.000403646
0.000401093
0.000399384
0.000398527
0.000398528
0.000537287
0.00157112
0.00273507
0.00372044
0.00450549
0.00511276
0.00556489
0.00588029
0.00607383
0.00615724
0.000450785
0.000442979
0.00043558
0.000428693
0.000422405
0.000416787
0.000411892
0.000407762
0.000404427
0.000401909
0.000400223
0.000399378
0.000399379
0.000629992
0.00177543
0.00296315
0.0039238
0.00467206
0.00524329
0.00566393
0.00595338
0.00612641
0.00619419
0.000450785
0.000442979
0.00043558
0.000428693
0.000422406
0.000416787
0.000411892
0.000407762
0.000404427
0.00040191
0.000400224
0.000399379
0.000486032
0.00127925
0.00236874
0.00338578
0.00422801
0.00489531
0.00540727
0.00578303
0.00603835
0.00618577
0.00623469
0.000197769
0.000311717
0.000377074
0.000418273
0.000445043
0.00046266
0.000474603
0.000483688
0.000492929
0.000507026
0.000537313
0.0006305
0.0012798
0.00216009
0.00306795
0.00389308
0.004592
0.00515724
0.00559537
0.0059168
0.00613202
0.00625007
0.00627778
0.000136388
0.000641987
0.000891022
0.00104851
0.00115938
0.00124133
0.00130436
0.00135615
0.00140486
0.00146288
0.00155768
0.00177108
0.00236699
0.00306736
0.00376921
0.00441493
0.00497389
0.00543397
0.00579378
0.00605712
0.00622958
0.00631653
0.00632197
0.000142031
0.000927323
0.00139983
0.00170525
0.00192477
0.00209161
0.00222343
0.00233305
0.00243353
0.00254294
0.00269271
0.00294243
0.00337663
0.0038903
0.00441513
0.0049079
0.0053423
0.00570449
0.00598907
0.0061956
0.00632592
0.00638214
0.00636557
0.000150019
0.00109289
0.00174825
0.00219518
0.00252564
0.00278185
0.00298694
0.00315745
0.00330937
0.00346198
0.00364151
0.00388198
0.00420952
0.00458753
0.00497678
0.00534686
0.00567675
0.00595362
0.00617074
0.00632538
0.00641672
0.00644433
0.00640716
0.0001557
0.00119723
0.00198444
0.00254713
0.00297567
0.00331448
0.00358859
0.00381591
0.004013
0.00419781
0.00439058
0.00461139
0.00487074
0.00515554
0.00544524
0.00572055
0.00596642
0.00617245
0.00633222
0.00644194
0.00649912
0.00650139
0.00644584
0.00015967
0.00126782
0.00214897
0.00280077
0.00330961
0.00371893
0.00405318
0.00432973
0.00456422
0.00477258
0.00497089
0.00517302
0.00538604
0.00560619
0.00582375
0.00602767
0.00620819
0.00635772
0.00647079
0.00654336
0.00657191
0.00655272
0.00648145
0.000162448
0.00131693
0.0022652
0.00298371
0.00355543
0.00402183
0.0044057
0.00472286
0.00498739
0.00521326
0.00541407
0.00560128
0.00578179
0.00595657
0.00612226
0.00627349
0.00640462
0.00651059
0.00658705
0.00663006
0.00663553
0.00659884
0.00651462
0.000164384
0.00135134
0.00234746
0.00311511
0.00373468
0.00424568
0.00466895
0.0050185
0.00530669
0.00554591
0.00574833
0.00592459
0.0060823
0.00622528
0.00635411
0.00646724
0.00656203
0.00663542
0.00668411
0.00670438
0.00669188
0.00664138
0.00654682
0.000165731
0.00137551
0.00240578
0.00320938
0.00386485
0.00440999
0.00486386
0.00523872
0.00554541
0.00579508
0.00599909
0.0061679
0.00630993
0.00643094
0.00653402
0.00662018
0.00668891
0.00673862
0.00676684
0.00677013
0.00674404
0.00668296
0.00658038
0.000166684
0.00139282
0.00244793
0.00327821
0.0039608
0.00453213
0.00500969
0.00540429
0.00572551
0.00598361
0.00618947
0.00635363
0.00648525
0.0065914
0.00667687
0.00674437
0.00679484
0.00682777
0.00684129
0.00683226
0.00679614
0.00672717
0.00661854
0.000167408
0.00140611
0.00248046
0.00333167
0.00403571
0.00462778
0.00512415
0.00553444
0.0058673
0.00613239
0.00634037
0.00650196
0.00662693
0.00672329
0.00679697
0.00685182
0.00688979
0.00691108
0.00691432
0.00689654
0.00685325
0.00677857
0.00666557
0.000168055
0.001418
0.0025095
0.00337919
0.00410184
0.00471162
0.00522374
0.00564699
0.00598943
0.00626042
0.00647059
0.00663096
0.00675178
0.00684178
0.00690768
0.0069541
0.00698365
0.00699705
0.00699326
0.00696947
0.00692124
0.00684266
0.00672674
0.000168792
0.00143134
0.00254151
0.00343048
0.00417166
0.00479815
0.00532443
0.00575882
0.00610919
0.00638497
0.00659702
0.00675673
0.00687483
0.00696058
0.00702128
0.00706207
0.00708601
0.00709417
0.00708573
0.00705802
0.00700667
0.00692577
0.00680837
0.000169839
0.00144976
0.00258437
0.00349694
0.00425905
0.00490287
0.00544252
0.00588643
0.00624289
0.00652186
0.00673476
0.00689348
0.00700925
0.00709177
0.00714872
0.0071856
0.00720577
0.00721051
0.00719918
0.00716922
0.00711634
0.00703471
0.00691745
0.000171531
0.00147835
0.00264867
0.00359311
0.00438082
0.00504334
0.00559532
0.00604633
0.00640598
0.00668541
0.00689698
0.00705329
0.00716607
0.00724535
0.00729908
0.00733293
0.00735043
0.00735301
0.00734014
0.00730939
0.00725658
0.007176
0.00706095
0.000174399
0.00152453
0.00274913
0.00373822
0.00455778
0.00523982
0.00580131
0.00625475
0.00661245
0.00688765
0.00709411
0.00724527
0.00735328
0.0074284
0.00747861
0.00750965
0.00752506
0.00752634
0.00751303
0.00748288
0.00743187
0.00735454
0.00724443
0.000179275
0.00159848
0.0029055
0.00395712
0.00481519
0.0055148
0.0060789
0.00652602
0.00687319
0.00713676
0.00733229
0.00747404
0.00757442
0.00764358
0.00768935
0.00771727
0.00773076
0.00773131
0.00771855
0.0076904
0.00764316
0.00757174
0.00747007
0.000187369
0.00171262
0.00314301
0.00428092
0.00518206
0.00589096
0.0064437
0.00686971
0.00719322
0.00743463
0.00761134
0.00773806
0.00782699
0.00788777
0.00792767
0.00795181
0.00796329
0.0079635
0.00795215
0.00792743
0.00788608
0.00782357
0.00773449
0.000200348
0.00188156
0.00349644
0.00475016
0.0056906
0.0063878
0.00690415
0.00728654
0.00756855
0.00777458
0.00792309
0.00802839
0.00810163
0.00815134
0.00818379
0.0082033
0.00821253
0.00821264
0.00820343
0.00818344
0.00815
0.00809938
0.0080271
0.000221366
0.00213208
0.0040329
0.00542863
0.00637753
0.00701691
0.0074561
0.00776447
0.00798387
0.00814039
0.00825143
0.00832931
0.00838306
0.00841934
0.00844292
0.00845707
0.00846376
0.00846389
0.00845732
0.00844301
0.00841903
0.00838265
0.00833056
0.000264681
0.0025571
0.00493295
0.00643533
0.00728214
0.00777233
0.00807598
0.00827594
0.00841288
0.00850839
0.00857521
0.00862168
0.00865358
0.00867503
0.00868895
0.00869731
0.0087013
0.00870144
0.0086977
0.00868946
0.00867559
0.00865449
0.00862417
0.000417057
0.00368623
0.00679269
0.00797479
0.00841073
0.00860627
0.00871269
0.00877869
0.00882268
0.00885297
0.00887404
0.00888864
0.00889866
0.00890539
0.00890977
0.00891241
0.00891368
0.00891377
0.00891265
0.00891015
0.00890592
0.00889943
0.00888997
0.000208265
0.000192036
0.000192826
0.000211004
0.00167451
0.00160044
0.00161126
0.00170482
0.00283558
0.00277351
0.00279532
0.0028959
0.00365896
0.00362222
0.00365236
0.00374261
0.00428514
0.00426572
0.00430243
0.00438813
0.0047704
0.00476295
0.00480497
0.00488933
0.00514287
0.00514379
0.00519003
0.00527452
0.00542252
0.00542908
0.0054786
0.00556399
0.00562724
0.00563744
0.00568943
0.00577605
0.00577377
0.00578617
0.00583993
0.00592779
0.00587702
0.00589063
0.00594556
0.00603445
0.00594946
0.00596357
0.00601912
0.00610868
0.00600099
0.00601501
0.00607067
0.00616046
0.00603912
0.00605248
0.00610772
0.00619728
0.00606943
0.00608151
0.00613579
0.00622462
0.00609596
0.00610607
0.00615876
0.00624635
0.00612159
0.0061289
0.00617934
0.00626513
0.00614814
0.00615179
0.00619928
0.00628271
0.00617658
0.00617569
0.00621956
0.00630011
0.00620705
0.00620086
0.00624054
0.00631776
0.00623904
0.00622703
0.00626211
0.00633571
0.00627163
0.00625356
0.00628388
0.00635373
0.00630377
0.00627973
0.00630536
0.00637152
0.0063346
0.00630494
0.00632616
0.00638885
0.00636361
0.00632891
0.00634616
0.00640573
0.00639089
0.00635182
0.00636564
0.0064225
0.00641713
0.00637442
0.00638537
0.00643995
0.00644375
0.0063981
0.00640671
0.00645945
0.00647295
0.00642499
0.00643176
0.00648303
0.00650784
0.00645812
0.00646347
0.00651359
0.00655254
0.00650155
0.00650582
0.00655502
0.0066123
0.00656049
0.00656395
0.00661238
0.0066935
0.00664137
0.00664423
0.00669188
0.00680343
0.00675154
0.00675398
0.00680066
0.00694952
0.00689868
0.0069008
0.00694608
0.00713801
0.00708933
0.00709122
0.00713435
0.00737192
0.00732687
0.00732856
0.0073684
0.00764852
0.00760891
0.0076104
0.00764546
0.00795742
0.00792517
0.00792643
0.00795507
0.00828057
0.0082573
0.00825825
0.00827906
0.00859541
0.00858193
0.00858253
0.00859475
0.00888116
0.00887716
0.0088774
0.00888133
0.00113038
0.00210991
0.00277571
0.00319518
0.00346547
0.00364014
0.00374741
0.00380308
0.00381573
0.00378857
0.00372023
0.00360551
0.00343628
0.00320232
0.00289129
0.0024857
0.00195213
0.00120943
0.000170397
0.00224728
0.00294047
0.00347729
0.00386119
0.00412762
0.00430627
0.00441696
0.00447207
0.00447827
0.00443726
0.00434628
0.00419881
0.00398557
0.00369537
0.00331479
0.00282461
0.00218805
0.00132099
0.00017675
0.00321892
0.00370783
0.00412766
0.00445572
0.00469728
0.00486439
0.00496799
0.00501572
0.00501135
0.00495444
0.00484054
0.00466179
0.004408
0.00406755
0.00362694
0.0030669
0.00235043
0.00139472
0.000181017
0.00399732
0.00437179
0.00470447
0.00497701
0.00518503
0.00533135
0.00542046
0.0054557
0.00543776
0.00536389
0.00522782
0.00502043
0.00473084
0.00434734
0.00385694
0.0032412
0.00246416
0.00144507
0.000183914
0.00461607
0.00492579
0.00519675
0.00542127
0.00559469
0.00571633
0.00578699
0.00580679
0.00577374
0.00568292
0.00552636
0.0052938
0.00497381
0.00455483
0.0040246
0.00336582
0.00254386
0.00147973
0.000185882
0.00510445
0.00537542
0.00560299
0.00578859
0.00593038
0.00602732
0.0060785
0.00608198
0.00603371
0.00592692
0.00575221
0.00549831
0.00515341
0.00470615
0.00414505
0.00345391
0.00259926
0.00150346
0.000187209
0.00548342
0.00573057
0.00592783
0.0060832
0.0061982
0.00627277
0.00630556
0.00629346
0.00623098
0.00610994
0.00591975
0.00564836
0.00528367
0.00481455
0.00423017
0.00351524
0.00263727
0.00151951
0.000188092
0.00577063
0.00600336
0.00617984
0.00631261
0.00640617
0.00646188
0.00647862
0.00645272
0.00637776
0.00624455
0.00604163
0.00575635
0.00537638
0.00489079
0.00428926
0.00355725
0.00266293
0.00153018
0.00018867
0.00598276
0.00620721
0.00636984
0.00648631
0.00656349
0.00660417
0.00660771
0.00657027
0.00648491
0.00634175
0.00612869
0.00583266
0.00544118
0.00494346
0.00432959
0.00358553
0.00267995
0.00153717
0.000189042
0.00613571
0.00635571
0.00650937
0.00661446
0.00667963
0.00670885
0.00670205
0.00665543
0.00656176
0.00641073
0.00618983
0.00588568
0.00548571
0.00497925
0.00435665
0.00360425
0.00269106
0.00154165
0.000189277
0.00624381
0.00646156
0.00660953
0.00670687
0.00676349
0.00678429
0.00676969
0.00671604
0.00661596
0.00645891
0.00623209
0.00592195
0.00551585
0.00500319
0.00437454
0.00361645
0.00269819
0.00154449
0.000189424
0.0063192
0.00653574
0.00668007
0.0067722
0.00682288
0.00683765
0.00681735
0.00675848
0.00665362
0.00649208
0.0062609
0.00594642
0.00553597
0.00501899
0.00438619
0.00362429
0.0027027
0.00154625
0.000189513
0.00637155
0.00658721
0.00672911
0.0068177
0.00686426
0.0068748
0.00685043
0.00678778
0.00667943
0.00651462
0.0062803
0.00596273
0.00554922
0.00502928
0.00439368
0.00362926
0.00270552
0.00154734
0.000189568
0.00640825
0.00662293
0.00676298
0.00684906
0.00689276
0.00690034
0.00687309
0.00680775
0.0066969
0.00652975
0.0062932
0.00597347
0.00555786
0.0050359
0.00439844
0.00363238
0.00270725
0.00154799
0.000189601
0.00643471
0.00664807
0.00678646
0.00687064
0.00691226
0.00691773
0.00688846
0.00682122
0.00670861
0.00653981
0.00630169
0.00598047
0.00556342
0.00504012
0.00440143
0.00363431
0.00270831
0.00154839
0.00018962
0.0064548
0.00666633
0.00680305
0.00688559
0.00692561
0.00692955
0.00689883
0.00683024
0.00671639
0.00654644
0.00630724
0.00598499
0.00556698
0.00504279
0.0044033
0.00363549
0.00270895
0.00154862
0.000189631
0.00647116
0.0066803
0.00681517
0.00689618
0.00693487
0.00693761
0.00690581
0.00683626
0.00672153
0.00655078
0.00631084
0.00598789
0.00556924
0.00504446
0.00440445
0.00363621
0.00270934
0.00154876
0.000189638
0.00648557
0.00669174
0.00682451
0.00690397
0.00694145
0.0069432
0.00691058
0.0068403
0.00672495
0.00655363
0.00631318
0.00598976
0.00557068
0.0050455
0.00440517
0.00363665
0.00270956
0.00154884
0.000189642
0.0064991
0.00670175
0.00683218
0.00691001
0.00694633
0.00694721
0.00691391
0.00684308
0.00672726
0.00655553
0.00631472
0.00599097
0.0055716
0.00504617
0.00440561
0.00363692
0.0027097
0.00154889
0.000189644
0.00651231
0.00671102
0.00683887
0.00691501
0.00695018
0.00695025
0.00691636
0.00684507
0.00672889
0.00655686
0.00631578
0.0059918
0.00557222
0.00504661
0.0044059
0.0036371
0.00270979
0.00154892
0.000189645
0.00652544
0.0067199
0.00684504
0.00691943
0.00695345
0.00695276
0.00691832
0.00684665
0.00673016
0.00655788
0.00631659
0.00599243
0.00557268
0.00504694
0.00440612
0.00363722
0.00270985
0.00154894
0.000189646
0.00653849
0.00672859
0.00685097
0.0069236
0.0069565
0.00695506
0.00692012
0.00684809
0.00673132
0.00655882
0.00631734
0.00599302
0.00557312
0.00504725
0.00440632
0.00363734
0.00270991
0.00154896
0.000189647
0.00655139
0.00673721
0.00685688
0.0069278
0.0069596
0.00695745
0.00692203
0.00684965
0.00673263
0.0065599
0.00631823
0.00599372
0.00557365
0.00504763
0.00440657
0.00363748
0.00270998
0.00154898
0.000189648
0.00656412
0.00674591
0.00686302
0.00693233
0.00696309
0.00696027
0.00692438
0.00685166
0.00673435
0.00656138
0.00631947
0.00599472
0.00557443
0.00504819
0.00440694
0.00363771
0.00271009
0.00154902
0.000189649
0.00657685
0.00675498
0.00686977
0.0069376
0.00696741
0.00696394
0.00692759
0.00685451
0.00673688
0.00656361
0.00632138
0.00599631
0.00557568
0.00504912
0.00440758
0.00363809
0.00271028
0.00154908
0.000189652
0.00659001
0.00676495
0.00687771
0.00694423
0.00697317
0.00696909
0.00693228
0.00685881
0.00674079
0.00656711
0.00632444
0.00599889
0.00557776
0.00505068
0.00440866
0.00363876
0.00271063
0.0015492
0.000189658
0.00660443
0.00677668
0.00688771
0.0069531
0.00698127
0.00697663
0.00693935
0.00686542
0.00674693
0.0065727
0.0063294
0.00600314
0.00558123
0.00505334
0.00441054
0.00363994
0.00271124
0.00154941
0.000189667
0.00662144
0.0067915
0.00690112
0.00696557
0.00699306
0.00698788
0.0069501
0.00687564
0.00675654
0.00658158
0.00633739
0.00601008
0.00558699
0.00505784
0.00441378
0.00364202
0.00271235
0.0015498
0.000189685
0.00664303
0.00681133
0.00691982
0.0069835
0.00701041
0.00700472
0.00696642
0.00689135
0.00677148
0.00659555
0.00635014
0.00602133
0.00559649
0.00506541
0.00441934
0.00364567
0.00271434
0.00155052
0.000189719
0.00667197
0.00683887
0.00694646
0.00700951
0.00703592
0.00702975
0.00699089
0.00691513
0.00679435
0.00661719
0.00637017
0.00603931
0.00561197
0.005078
0.00442881
0.00365204
0.0027179
0.00155183
0.000189781
0.006712
0.00687768
0.00698451
0.00704704
0.00707301
0.00706639
0.007027
0.00695052
0.00682872
0.00665012
0.00640111
0.00606758
0.00563682
0.00509871
0.00444482
0.00366311
0.00272428
0.00155425
0.000189898
0.00676793
0.00693234
0.00703839
0.0071004
0.00712598
0.00711898
0.00707914
0.00700202
0.00687926
0.00669919
0.00644796
0.00611124
0.0056761
0.00513232
0.00447158
0.00368223
0.00273565
0.00155869
0.000190116
0.00684561
0.0070083
0.00711331
0.00717466
0.00719984
0.00719259
0.00715252
0.00707508
0.00695171
0.00677049
0.00651725
0.00617722
0.00573701
0.00518603
0.00451581
0.00371499
0.00275588
0.00156687
0.000190526
0.00695165
0.00711157
0.00721485
0.00727519
0.0072999
0.00729256
0.00725269
0.00717558
0.00705248
0.00687116
0.00661696
0.00627444
0.00582937
0.00527023
0.00458779
0.00377054
0.00279167
0.00158194
0.000191304
0.00709261
0.00724785
0.00734817
0.0074068
0.00743082
0.00742365
0.00738466
0.00730903
0.00718783
0.00700851
0.00675584
0.00641342
0.00596561
0.00539904
0.00470254
0.00386319
0.00285429
0.00160962
0.000192788
0.00727367
0.00742123
0.00751659
0.00757238
0.00759532
0.00758859
0.00755145
0.00747902
0.00736232
0.00718858
0.006942
0.00660501
0.00615988
0.0055901
0.00488046
0.00401391
0.0029615
0.00165965
0.000195612
0.00749663
0.00763228
0.00771991
0.00777123
0.00779244
0.00778643
0.00775236
0.00768544
0.00757685
0.00741392
0.00718052
0.00685792
0.00642574
0.00586269
0.00514621
0.00425021
0.00313811
0.00174658
0.000200895
0.00775771
0.00787624
0.00795274
0.00799757
0.00801621
0.00801113
0.00798146
0.00792271
0.00782665
0.00768121
0.00747058
0.00717532
0.00677229
0.00623375
0.00552534
0.00460338
0.00341294
0.00188674
0.000210292
0.00804611
0.00814206
0.0082039
0.00824014
0.00825527
0.00825124
0.00822722
0.00817933
0.00810042
0.00797986
0.00780316
0.0075514
0.00719957
0.00671285
0.00604005
0.00510634
0.00381637
0.00209116
0.00022566
0.00834448
0.00841344
0.00845779
0.00848374
0.00849456
0.00849161
0.00847421
0.00843936
0.0083816
0.00829262
0.0081607
0.00796949
0.00769487
0.00729755
0.00670798
0.00580345
0.00440212
0.00237645
0.00024986
0.0086325
0.00867241
0.00869803
0.00871296
0.00871912
0.00871729
0.00870699
0.00868639
0.00865214
0.00859906
0.00851968
0.0084029
0.00823054
0.00796802
0.00754041
0.00677747
0.00533267
0.00284288
0.00029927
0.00889286
0.00890501
0.0089128
0.00891731
0.00891914
0.0089185
0.00891523
0.00890874
0.00889796
0.00888124
0.00885616
0.00881903
0.00876336
0.00867493
0.00851491
0.00815507
0.00712093
0.00405951
0.00046588
)
;

boundaryField
{
    leftWall
    {
        type            nutkWallFunction;
        blending        stepwise;
        value           nonuniform List<scalar> 
50
(
0
0
0
0
0
0
0
0
0
0
0
0
0
0
0
0
0
0
0
0
0
0
0
0
0
0
0
5.36008e-05
2.01164e-05
1.23754e-05
1.33363e-05
1.44702e-05
1.52483e-05
1.57728e-05
1.61251e-05
1.636e-05
1.65158e-05
1.66203e-05
1.66953e-05
1.6759e-05
1.68298e-05
1.69316e-05
1.71009e-05
1.73989e-05
1.79292e-05
1.88592e-05
2.04473e-05
2.31775e-05
2.90177e-05
4.92425e-05
)
;
    }
    rightWall
    {
        type            nutkWallFunction;
        blending        stepwise;
        value           nonuniform List<scalar> 
50
(
3.95014e-06
8.884e-06
1.13493e-05
1.30293e-05
1.42721e-05
1.52506e-05
1.60594e-05
1.67553e-05
1.77069e-05
1.85596e-05
1.9107e-05
1.94631e-05
1.96949e-05
1.98448e-05
1.99406e-05
2.00008e-05
2.00382e-05
2.0061e-05
2.00748e-05
2.0083e-05
2.00878e-05
2.00906e-05
2.00922e-05
2.00931e-05
2.00936e-05
2.00939e-05
2.00941e-05
2.00942e-05
2.00943e-05
2.00943e-05
2.00944e-05
2.00945e-05
2.00947e-05
2.00951e-05
2.00958e-05
2.00972e-05
2.00997e-05
2.01046e-05
2.01137e-05
2.01313e-05
2.0165e-05
2.02306e-05
2.03594e-05
2.06142e-05
2.11173e-05
2.20877e-05
2.38667e-05
2.70243e-05
3.37648e-05
5.55419e-05
)
;
    }
    lowerWall
    {
        type            nutkWallFunction;
        blending        stepwise;
        value           nonuniform List<scalar> 
62
(
0
0
0
0
0
0
0
0
0
0
0
0
2.16739e-05
0
0
0
0
0
0
0
0
0
0
0
6.40154e-06
9.04188e-06
1.08918e-05
1.24385e-05
1.40375e-05
1.63199e-05
2.09364e-05
2.29508e-05
2.0403e-05
2.04819e-05
2.32188e-05
0
9.05695e-06
1.20073e-05
1.41096e-05
1.5902e-05
1.77932e-05
2.04832e-05
2.56146e-05
0
0
0
0
6.82669e-09
2.52639e-07
3.92615e-07
4.65999e-07
4.94293e-07
4.87394e-07
4.46338e-07
3.6445e-07
2.27386e-07
1.19759e-08
0
0
0
0
0
)
;
    }
    atmosphere
    {
        type            calculated;
        value           uniform 0.009;
    }
    defaultFaces
    {
        type            empty;
    }
}


// ************************************************************************* //
