/*--------------------------------*- C++ -*----------------------------------*\
| =========                 |                                                 |
| \\      /  F ield         | OpenFOAM: The Open Source CFD Toolbox           |
|  \\    /   O peration     | Version:  2406                                  |
|   \\  /    A nd           | Website:  www.openfoam.com                      |
|    \\/     M anipulation  |                                                 |
\*---------------------------------------------------------------------------*/
FoamFile
{
    version     2.0;
    format      ascii;
    arch        "LSB;label=32;scalar=64";
    class       surfaceScalarField;
    location    "0.4";
    object      phi;
}
// * * * * * * * * * * * * * * * * * * * * * * * * * * * * * * * * * * * * * //

dimensions      [0 3 -1 0 0 0 0];

oriented        oriented;

internalField   nonuniform List<scalar> 
4432
(
-1.80491e-304
-9.19294e-305
-3.65857e-304
-4.3643e-304
-5.74079e-304
-6.02752e-304
-8.15763e-304
-6.39528e-304
-1.1013e-303
-5.1039e-304
-1.43608e-303
-1.25071e-304
-1.81716e-303
6.67768e-304
-2.22475e-303
2.10874e-303
-2.59769e-303
4.58018e-303
-2.72755e-303
8.72746e-303
-1.7055e-303
1.57493e-302
5.14111e-303
2.79184e-302
6.93715e-303
5.00814e-302
-4.00887e-303
1.53939e-302
-4.33902e-303
1.59478e-303
-2.3062e-303
-1.16171e-303
-1.1839e-303
-1.13945e-303
-6.10656e-304
-7.05955e-304
-3.16406e-304
-3.47922e-304
-1.60581e-304
-1.28711e-304
-7.48845e-305
-1.51855e-305
-2.54042e-305
2.95795e-305
2.44864e-305
-5.63795e-304
-1.67774e-304
-1.13215e-303
-7.8438e-304
-1.7629e-303
-1.09669e-303
-2.49355e-303
-1.1469e-303
-3.35239e-303
-8.56848e-304
-4.35314e-303
-5.00102e-305
-5.48406e-303
1.56901e-303
-6.68386e-303
4.46184e-303
-7.78307e-303
9.35243e-303
-8.33837e-303
1.74136e-302
-6.94703e-303
3.07084e-302
-4.0694e-303
5.34335e-302
2.63291e-303
8.9271e-302
-7.49576e-303
2.3836e-302
-6.01936e-303
2.99847e-303
-3.47006e-303
-6.3032e-304
-1.93544e-303
-9.83349e-304
-1.06839e-303
-6.73024e-304
-5.87441e-304
-3.38594e-304
-3.17562e-304
-1.12296e-304
-1.61764e-304
1.37005e-305
-6.43803e-305
6.82829e-305
5.95909e-305
-9.61427e-304
-2.56455e-304
-1.93903e-303
-1.11911e-303
-3.02288e-303
-1.56801e-303
-4.27735e-303
-1.62035e-303
-5.75256e-303
-1.15295e-303
-7.47665e-303
9.59662e-305
-9.44024e-303
2.55659e-303
-1.15646e-302
6.89672e-303
-1.36345e-302
1.41447e-302
-1.51542e-302
2.5932e-302
-1.47433e-302
4.50113e-302
-1.65978e-302
7.66044e-302
-3.19513e-303
1.23182e-301
-1.05025e-302
3.00567e-302
-7.28025e-303
4.39685e-303
-4.36356e-303
-1.86387e-305
-2.54992e-303
-7.25314e-304
-1.46965e-303
-5.67653e-304
-8.40502e-304
-2.87945e-304
-4.73406e-304
-7.54867e-305
-2.54432e-304
5.20686e-305
-1.1123e-304
1.13731e-304
1.05551e-304
-1.39402e-303
-3.51024e-304
-2.82175e-303
-1.45957e-303
-4.40325e-303
-2.04266e-303
-6.23115e-303
-2.08915e-303
-8.3808e-303
-1.42759e-303
-1.09009e-302
2.85603e-304
-1.37956e-302
3.60862e-303
-1.69911e-302
9.39545e-303
-2.02743e-302
1.89451e-302
-2.319e-302
3.42711e-302
-2.45108e-302
5.86421e-302
-3.14074e-302
9.77048e-302
-1.02073e-302
1.52151e-301
-1.36404e-302
3.56558e-302
-8.67734e-303
5.83032e-303
-5.29228e-303
5.8668e-304
-3.18596e-303
-4.47352e-304
-1.89677e-303
-4.39598e-304
-1.12076e-303
-2.22112e-304
-6.54315e-304
-3.06686e-305
-3.68608e-304
9.46243e-305
-1.74256e-304
1.64225e-304
1.64055e-304
-1.88079e-303
-4.53344e-304
-3.81511e-303
-1.82447e-303
-5.95388e-303
-2.54824e-303
-8.41962e-303
-2.58544e-303
-1.13161e-302
-1.71551e-303
-1.4718e-302
4.8561e-304
-1.86528e-302
4.69435e-303
-2.30689e-302
1.19338e-302
-2.7784e-302
2.37348e-302
-3.24157e-302
4.24229e-302
-3.58497e-302
7.16337e-302
-4.78199e-302
1.17164e-301
-1.81849e-302
1.7824e-301
-1.71317e-302
4.10823e-302
-1.03293e-302
7.27074e-303
-6.35043e-303
1.1703e-303
-3.90289e-303
-1.73708e-304
-2.38419e-303
-3.0749e-304
-1.44883e-303
-1.52903e-304
-8.73604e-304
1.43675e-305
-5.14036e-304
1.34773e-304
-2.60779e-304
2.12575e-304
2.2889e-304
-2.44043e-303
-5.68038e-304
-4.95438e-303
-2.23106e-303
-7.72585e-303
-3.11122e-303
-1.09089e-302
-3.14244e-303
-1.46382e-302
-2.05279e-303
-1.90192e-302
6.59285e-304
-2.41101e-302
5.78114e-303
-2.98933e-302
1.44847e-302
-3.62329e-302
2.84968e-302
-4.28233e-302
5.03843e-302
-4.8592e-302
8.40373e-302
-6.55953e-302
1.35367e-301
-2.70782e-302
2.03039e-301
-2.10567e-302
4.64809e-302
-1.22689e-302
8.72311e-303
-7.58154e-303
1.74345e-303
-4.73479e-303
9.45002e-305
-2.9546e-303
-1.76729e-304
-1.83943e-303
-8.59655e-305
-1.1414e-303
5.38913e-305
-6.99311e-304
1.64914e-304
-3.80487e-304
2.45878e-304
2.7617e-304
-3.09183e-303
-7.03018e-304
-6.27594e-303
-2.69621e-303
-9.77221e-303
-3.76e-303
-1.37672e-302
-3.79671e-303
-1.8429e-302
-2.48136e-303
-2.38969e-302
7.64328e-304
-3.02648e-302
6.82956e-303
-3.75571e-302
1.70176e-302
-4.56929e-302
3.32143e-302
-5.44432e-302
5.8164e-302
-6.27447e-302
9.5918e-302
-8.47977e-302
1.52522e-301
-3.69653e-302
2.26957e-301
-2.544e-302
5.17869e-302
-1.45074e-302
1.02057e-302
-9.01353e-303
2.3297e-303
-5.70781e-303
3.66711e-304
-3.62748e-303
-4.63171e-305
-2.30583e-303
-2.38627e-305
-1.46642e-303
8.33768e-305
-9.31356e-304
1.76999e-304
-5.4662e-304
2.43599e-304
2.40826e-304
-3.85419e-303
-8.66773e-304
-7.8178e-303
-3.23013e-303
-1.21485e-302
-4.5154e-303
-1.70661e-302
-4.58056e-303
-2.27737e-302
-3.04427e-303
-2.94462e-302
7.47702e-304
-3.72167e-302
7.77737e-303
-4.61557e-302
1.94629e-302
-5.62423e-302
3.78128e-302
-6.733e-302
6.56918e-302
-7.8277e-302
1.0722e-301
-1.058e-301
1.68406e-301
-4.75238e-302
2.47886e-301
-3.02539e-302
5.67691e-302
-1.70264e-302
1.1736e-302
-1.06497e-302
2.96173e-303
-6.83134e-303
6.62476e-304
-4.41131e-303
9.35172e-305
-2.85332e-303
3.75724e-305
-1.84973e-303
1.03564e-304
-1.20626e-303
1.68697e-304
-7.73891e-304
1.98693e-304
1.35368e-304
-6.12917e-309
-3.63543e-308
-7.5558e-309
-2.07041e-307
-4.34289e-309
-1.59775e-307
-4.60568e-309
-7.26668e-308
-4.32933e-309
-2.38275e-308
-3.08055e-309
-5.32309e-309
-1.78335e-309
-1.81678e-310
-8.91219e-310
6.44067e-310
-3.98847e-310
4.81486e-310
-1.63452e-310
2.5165e-310
-6.21607e-311
1.12671e-310
-2.20936e-311
4.60395e-311
-7.35303e-312
1.76497e-311
-2.2832e-312
6.41951e-312
-6.53923e-313
2.21365e-312
-1.68316e-313
7.1458e-313
-3.6625e-314
2.0962e-313
-5.57362e-315
5.12586e-314
5.89504e-315
-1.58358e-308
-1.29774e-307
-2.86149e-308
-4.95994e-307
-2.49673e-308
-3.41855e-307
-2.21303e-308
-1.48545e-307
-1.65564e-308
-4.71808e-308
-1.03941e-308
-9.71788e-309
-5.66964e-309
4.26211e-310
-2.77035e-309
1.82657e-309
-1.2387e-309
1.27875e-309
-5.13975e-310
6.67762e-310
-1.99654e-310
3.03222e-310
-7.29466e-311
1.2622e-310
-2.50899e-311
4.93438e-311
-8.09469e-312
1.83103e-311
-2.42499e-312
6.45512e-312
-6.59652e-313
2.14354e-312
-1.54489e-313
6.56221e-313
-2.60573e-314
1.73649e-313
2.45108e-314
-3.83061e-308
-3.91993e-307
-7.64553e-308
-1.04973e-306
-7.16009e-308
-6.41583e-307
-5.84338e-308
-2.61928e-307
-3.97872e-308
-7.95074e-308
-2.3409e-308
-1.49533e-308
-1.22936e-308
1.86744e-309
-5.89698e-309
3.81909e-309
-2.62355e-309
2.58277e-309
-1.09345e-309
1.35114e-309
-4.29583e-310
6.21199e-310
-1.5959e-310
2.62979e-310
-5.60697e-311
1.04796e-310
-1.85626e-311
3.97131e-311
-5.73703e-312
1.43369e-311
-1.62229e-312
4.90125e-312
-4.001e-313
1.56202e-312
-7.27749e-314
4.4176e-313
7.30489e-314
-1.02937e-307
-1.13423e-306
-1.92483e-307
-2.12375e-306
-1.77599e-307
-1.14642e-306
-1.34236e-307
-4.37322e-307
-8.53145e-308
-1.26498e-307
-4.78344e-308
-2.16962e-308
-2.43902e-308
4.53732e-309
-1.15229e-308
7.05353e-309
-5.10273e-309
4.67607e-309
-2.13347e-309
2.45658e-309
-8.45838e-310
1.14347e-309
-3.18607e-310
4.91989e-310
-1.13966e-310
1.99722e-310
-3.85691e-311
7.72497e-311
-1.22419e-311
2.85364e-311
-3.57757e-312
1.00266e-311
-9.21357e-313
3.31362e-312
-1.78378e-313
9.92101e-313
1.87086e-313
-2.97027e-307
-3.23908e-306
-4.68174e-307
-4.12455e-306
-4.09183e-307
-1.95978e-306
-2.86571e-307
-6.99258e-307
-1.71892e-307
-1.93582e-307
-9.2747e-308
-3.05942e-308
-4.62241e-308
8.84729e-309
-2.15966e-308
1.20032e-308
-9.54044e-309
7.88495e-309
-4.00518e-309
4.17179e-309
-1.60241e-309
1.9674e-309
-6.1159e-310
8.60265e-310
-2.22457e-310
3.55587e-310
-7.68239e-311
1.4027e-310
-2.49817e-311
5.29564e-311
-7.5201e-312
1.9085e-311
-2.01265e-312
6.51673e-312
-4.11734e-313
2.05061e-312
4.352e-313
-8.94833e-307
-9.05763e-306
-1.10997e-306
-7.61873e-306
-8.90777e-307
-3.18699e-306
-5.77853e-307
-1.07051e-306
-3.29394e-307
-2.8635e-307
-1.72252e-307
-4.25418e-308
-8.43781e-308
1.51547e-308
-3.91379e-308
1.91843e-308
-1.72903e-308
1.25952e-308
-7.29871e-309
6.7307e-309
-2.94864e-309
3.21939e-309
-1.14031e-309
1.43091e-309
-4.21537e-310
6.02039e-310
-1.48392e-310
2.42013e-310
-4.93573e-311
9.32464e-311
-1.52693e-311
3.43891e-311
-4.23311e-312
1.20826e-311
-9.11215e-313
3.96026e-312
9.28249e-313
-2.76134e-306
-2.56077e-305
-2.58468e-306
-1.3055e-305
-1.84917e-306
-4.86829e-306
-1.11077e-306
-1.56425e-306
-6.05447e-307
-4.10816e-307
-3.08809e-307
-5.94491e-308
-1.49446e-307
2.3262e-308
-6.90807e-308
2.8883e-308
-3.06023e-308
1.91163e-308
-1.30133e-308
1.035e-308
-5.31497e-309
5.02645e-309
-2.08404e-309
2.27086e-309
-7.83141e-310
9.71733e-310
-2.80955e-310
3.97453e-310
-9.55135e-311
1.55912e-310
-3.03231e-311
5.86236e-311
-8.68483e-312
2.10607e-311
-1.95883e-312
7.09655e-312
1.7816e-312
-8.27303e-306
-4.74519e-305
-5.8263e-306
-1.92453e-305
-3.60082e-306
-6.7856e-306
-2.01506e-306
-2.14007e-306
-1.05902e-306
-5.58553e-307
-5.30378e-307
-7.92787e-308
-2.54782e-307
3.38421e-308
-1.17737e-307
4.14286e-308
-5.24024e-308
2.7645e-308
-2.24715e-308
1.51481e-308
-9.28195e-309
7.45568e-309
-3.68933e-309
3.41529e-309
-1.40818e-309
1.48179e-309
-5.14136e-310
6.14349e-310
-1.78275e-310
2.44222e-310
-5.79091e-311
9.30546e-311
-1.70639e-311
3.38767e-311
-4.02188e-312
1.1546e-311
2.9494e-312
-1.10732e-302
-1.29379e-303
-2.24342e-302
-4.54398e-303
-3.47581e-302
-6.43622e-303
-4.86264e-302
-6.71076e-303
-6.45906e-302
-4.8619e-303
-8.31478e-302
-9.23691e-305
-1.04717e-301
8.74617e-303
-1.2961e-301
2.32456e-302
-1.57992e-301
4.55735e-302
-1.89845e-301
7.86672e-302
-2.20307e-301
1.2652e-301
-3.02892e-301
1.94452e-301
-1.36413e-301
2.78627e-301
-8.13571e-302
6.52175e-302
-4.51655e-302
1.47449e-302
-2.85236e-302
4.31466e-303
-1.85928e-302
1.32967e-303
-1.22323e-302
4.18546e-304
-8.06309e-303
1.76713e-304
-5.31744e-303
1.35726e-304
-3.51245e-303
1.26798e-304
-2.3135e-303
8.46177e-305
-2.64542e-305
-1.31508e-303
-1.51605e-302
-1.84271e-303
-3.06838e-302
-6.194e-303
-4.74371e-302
-8.95127e-303
-6.61732e-302
-9.73426e-303
-8.76243e-302
-7.92089e-303
-1.12478e-301
-2.59493e-303
-1.41359e-301
7.51018e-303
-1.74811e-301
2.40833e-302
-2.13278e-301
4.93302e-302
-2.57088e-301
8.60866e-302
-3.00201e-301
1.37968e-301
-4.11119e-301
2.09326e-301
-1.93304e-301
2.94531e-301
-1.05777e-301
7.04906e-302
-5.75735e-302
1.69713e-302
-3.63833e-302
5.41424e-303
-2.38943e-302
1.91357e-303
-1.58781e-302
7.19089e-304
-1.05631e-302
3.09196e-304
-6.99415e-303
1.6587e-304
-4.57553e-303
9.41311e-305
-2.89581e-303
2.09329e-305
-7.22754e-305
-1.63164e-303
-1.93928e-302
-2.59331e-303
-3.9187e-302
-8.45499e-303
-6.04776e-302
-1.24984e-302
-8.42019e-302
-1.42294e-302
-1.11284e-301
-1.29189e-302
-1.42607e-301
-7.54883e-303
-1.78998e-301
3.23244e-303
-2.21212e-301
2.11632e-302
-2.6992e-301
4.84209e-302
-3.25685e-301
8.76667e-302
-3.81541e-301
1.42081e-301
-5.18944e-301
2.15124e-301
-2.51186e-301
2.99985e-301
-1.31188e-301
7.31374e-302
-7.03652e-302
1.82907e-302
-4.42585e-302
6.11351e-303
-2.90668e-302
2.31179e-303
-1.93525e-302
9.38553e-304
-1.28938e-302
4.14589e-304
-8.52358e-303
1.99919e-304
-5.52933e-303
8.92505e-305
-3.43649e-303
7.40342e-306
-6.05888e-305
-1.92039e-303
-2.38012e-302
-3.64686e-303
-4.79838e-302
-1.16367e-302
-7.39105e-302
-1.75762e-302
-1.02713e-301
-2.08596e-302
-1.35514e-301
-2.06527e-302
-1.73391e-301
-1.58449e-302
-2.17363e-301
-5.01376e-303
-2.68367e-301
1.36084e-302
-3.27245e-301
4.21555e-302
-3.94718e-301
8.31195e-302
-4.62761e-301
1.39317e-301
-6.25806e-301
2.1355e-301
-3.08948e-301
2.98318e-301
-1.57462e-301
7.38555e-302
-8.36485e-302
1.88103e-302
-5.23105e-302
6.40665e-303
-3.4258e-302
2.49686e-303
-2.27761e-302
1.05356e-303
-1.51544e-302
4.79384e-304
-9.99246e-303
2.3173e-304
-6.45116e-303
1.05204e-304
-3.98354e-303
2.45533e-305
-2.86175e-305
-2.22494e-303
-2.84165e-302
-5.12354e-303
-5.7119e-302
-1.60979e-302
-8.77834e-302
-2.47661e-302
-1.21746e-301
-3.0402e-302
-1.60336e-301
-3.2061e-302
-2.04827e-301
-2.85369e-302
-2.56417e-301
-1.83356e-302
-3.16207e-301
3.46863e-304
-3.85178e-301
2.9622e-302
-4.64162e-301
7.18713e-302
-5.44032e-301
1.29677e-301
-7.32246e-301
2.0544e-301
-3.66941e-301
2.91271e-301
-1.8457e-301
7.30167e-302
-9.74471e-302
1.85976e-302
-6.06136e-302
6.29355e-303
-3.95535e-302
2.44962e-303
-2.62284e-302
1.04224e-303
-1.74122e-302
4.84296e-304
-1.14538e-302
2.44295e-304
-7.37493e-303
1.24289e-304
-4.54433e-303
5.21991e-305
7.52385e-306
-2.54216e-303
-3.32721e-302
-7.16741e-303
-6.6644e-302
-2.2266e-302
-1.02161e-301
-3.47609e-302
-1.4138e-301
-4.37865e-302
-1.85848e-301
-4.82708e-302
-2.37042e-301
-4.68999e-302
-2.96341e-301
-3.80924e-302
-3.64997e-301
-1.99854e-302
-4.44118e-301
9.55864e-303
-5.34633e-301
5.28975e-302
-6.26297e-301
1.1253e-301
-8.39648e-301
1.90691e-301
-4.26058e-301
2.79289e-301
-2.12617e-301
7.06292e-302
-1.11783e-301
1.76019e-302
-6.92053e-302
5.72535e-303
-4.49996e-302
2.12834e-303
-2.97555e-302
8.70012e-304
-1.97068e-302
4.00904e-304
-1.29364e-302
2.13719e-304
-8.31555e-303
1.25722e-304
-5.1201e-303
7.31846e-305
3.8288e-305
-2.8687e-303
-3.83984e-302
-9.95372e-303
-7.66039e-302
-3.06557e-302
-1.17105e-301
-4.83964e-302
-1.61702e-301
-6.21351e-302
-2.12185e-301
-7.06467e-302
-2.7025e-301
-7.2487e-302
-3.37463e-301
-6.5968e-302
-4.15235e-301
-4.91322e-302
-5.04793e-301
-1.97577e-302
-6.07164e-301
2.45931e-302
-7.10987e-301
8.64926e-302
-9.49906e-301
1.68227e-301
-4.87543e-301
2.61638e-301
-2.41825e-301
6.6326e-302
-1.26703e-301
1.56198e-302
-7.81131e-302
4.57634e-303
-5.0622e-302
1.45008e-303
-3.33818e-302
4.79542e-304
-2.20586e-302
1.88066e-304
-1.44541e-302
1.09534e-304
-9.27949e-303
8.67302e-305
-5.71131e-303
7.16225e-305
5.52867e-305
-3.20339e-303
-4.38085e-302
-1.36974e-302
-8.70069e-302
-4.18935e-302
-1.32628e-301
-6.66863e-302
-1.82752e-301
-8.68077e-302
-2.39448e-301
-1.0084e-301
-3.04658e-301
-1.07187e-301
-3.80157e-301
-1.04031e-301
-4.67518e-301
-8.92903e-302
-5.681e-301
-6.05955e-302
-6.83026e-301
-1.53247e-302
-7.9982e-301
4.93317e-302
-1.06524e-300
1.35931e-301
-5.52886e-301
2.36382e-301
-2.72508e-301
5.93312e-302
-1.42279e-301
1.227e-302
-8.73607e-302
2.62661e-303
-5.64329e-302
2.79709e-304
-3.71164e-302
-2.1516e-304
-2.44745e-302
-2.10442e-304
-1.6011e-302
-1.0583e-304
-1.0268e-302
-1.78525e-305
-6.31726e-303
3.15075e-305
4.99382e-305
-3.54547e-303
-4.94739e-302
-1.86654e-302
-9.7777e-302
-5.67468e-302
-1.48624e-301
-9.08677e-302
-2.04429e-301
-1.19452e-301
-2.67594e-301
-1.40842e-301
-3.40348e-301
-1.53269e-301
-4.24696e-301
-1.54783e-301
-5.22396e-301
-1.43157e-301
-6.34937e-301
-1.15826e-301
-7.63547e-301
-6.98809e-302
-8.94635e-301
-2.11238e-303
-1.18807e-300
9.05484e-302
-6.23726e-301
2.00251e-301
-3.05031e-301
4.83888e-302
-1.58587e-301
6.96237e-303
-9.6962e-302
-4.51941e-304
-6.24302e-302
-1.57634e-303
-4.09547e-302
-1.331e-303
-2.69505e-302
-8.66271e-304
-1.76037e-302
-4.76797e-304
-1.12778e-302
-2.15565e-304
-6.93535e-303
-6.36492e-305
1.34039e-305
-3.89344e-303
-5.52899e-302
-2.51937e-302
-1.08682e-301
-7.61684e-302
-1.64764e-301
-1.22459e-301
-2.26366e-301
-1.62066e-301
-2.96293e-301
-1.93038e-301
-3.77108e-301
-2.13432e-301
-4.71083e-301
-2.21186e-301
-5.80169e-301
-2.13951e-301
-7.06e-301
-1.88939e-301
-8.49907e-301
-1.42872e-301
-9.97183e-301
-7.19789e-302
-1.32075e-300
2.75801e-302
-7.01721e-301
1.48439e-301
-3.39763e-301
3.1658e-302
-1.7568e-301
-1.13555e-303
-1.06908e-301
-5.10482e-303
-6.85935e-302
-4.36998e-303
-4.48779e-302
-3.01288e-303
-2.9472e-302
-1.86342e-303
-1.92217e-302
-1.05239e-303
-1.23016e-302
-5.35048e-304
-7.56074e-303
-2.30219e-304
-6.2969e-305
-4.24462e-303
-6.1023e-302
-3.37161e-302
-1.19233e-301
-1.01362e-301
-1.80359e-301
-1.63349e-301
-2.47761e-301
-2.17084e-301
-3.24736e-301
-2.60271e-301
-4.14236e-301
-2.9083e-301
-5.18822e-301
-3.06673e-301
-6.40658e-301
-3.05394e-301
-7.81524e-301
-2.84015e-301
-9.42857e-301
-2.38836e-301
-1.10884e-300
-1.65389e-301
-1.46537e-300
-5.87928e-302
-7.88347e-301
7.43808e-302
-3.76984e-301
6.59955e-303
-1.9355e-301
-1.31216e-302
-1.1715e-301
-1.18885e-302
-7.4877e-302
-8.39814e-303
-4.88513e-302
-5.42143e-303
-3.20145e-302
-3.28941e-303
-2.08478e-302
-1.88073e-303
-1.33278e-302
-1.00296e-303
-8.18602e-303
-4.8288e-304
-1.86847e-304
-4.59479e-303
-6.62343e-302
-4.48151e-302
-1.28528e-301
-1.33891e-301
-1.94155e-301
-2.15924e-301
-2.67154e-301
-2.8749e-301
-3.51408e-301
-3.45914e-301
-4.50295e-301
-3.89103e-301
-5.66675e-301
-4.15115e-301
-7.02921e-301
-4.21649e-301
-8.60967e-301
-4.05629e-301
-1.04236e-300
-3.62948e-301
-1.2302e-300
-2.88348e-301
-1.62322e-300
-1.75681e-301
-8.84555e-301
-3.03602e-302
-4.16767e-301
-3.00958e-302
-2.12075e-301
-3.03343e-302
-1.27579e-301
-2.14258e-302
-8.12019e-302
-1.39633e-302
-5.28214e-302
-8.70517e-303
-3.4542e-302
-5.21789e-303
-2.2458e-302
-2.99908e-303
-1.43403e-302
-1.63875e-303
-8.80067e-303
-8.32029e-304
-3.63726e-304
-4.93782e-303
-7.01505e-302
-5.93208e-302
-1.35022e-301
-1.75869e-301
-2.0405e-301
-2.83279e-301
-2.82135e-301
-3.76977e-301
-3.73808e-301
-4.53958e-301
-4.82852e-301
-5.12377e-301
-6.12383e-301
-5.50766e-301
-7.64958e-301
-5.67202e-301
-9.42662e-301
-5.58695e-301
-1.14718e-300
-5.20812e-301
-1.36054e-300
-4.47514e-301
-1.79419e-300
-3.31259e-301
-9.90325e-301
-1.75981e-301
-4.58797e-301
-8.24317e-302
-2.3096e-301
-5.4212e-302
-1.38004e-301
-3.42842e-302
-8.74505e-302
-2.12903e-302
-5.67135e-302
-1.29503e-302
-3.7005e-302
-7.6808e-303
-2.40184e-302
-4.41941e-303
-1.53159e-302
-2.44744e-303
-9.38962e-303
-1.28033e-303
-5.9538e-304
-5.26474e-303
-7.1435e-302
-7.85206e-302
-1.36123e-301
-2.30285e-301
-2.06666e-301
-3.69538e-301
-2.88972e-301
-4.90169e-301
-3.88156e-301
-5.89091e-301
-5.08236e-301
-6.6524e-301
-6.52444e-301
-7.18149e-301
-8.23444e-301
-7.46692e-301
-1.02348e-300
-7.48224e-301
-1.2544e-300
-7.18157e-301
-1.49729e-300
-6.49784e-301
-1.97608e-300
-5.34272e-301
-1.10407e-300
-3.73905e-301
-5.02149e-301
-1.54695e-301
-2.49681e-301
-8.59141e-302
-1.48141e-301
-5.07252e-302
-9.34566e-302
-3.03833e-302
-6.04228e-302
-1.81062e-302
-3.9333e-302
-1.06319e-302
-2.54798e-302
-6.11105e-303
-1.62207e-302
-3.41153e-303
-9.93029e-303
-1.81891e-303
-8.78074e-304
-5.56203e-303
-6.77027e-302
-1.04625e-301
-1.27457e-301
-3.01597e-301
-1.96667e-301
-4.80333e-301
-2.82135e-301
-6.32868e-301
-3.89105e-301
-7.56748e-301
-5.21377e-301
-8.52639e-301
-6.81986e-301
-9.21881e-301
-8.73587e-301
-9.64673e-301
-1.09859e-300
-9.79044e-301
-1.35913e-300
-9.60436e-301
-1.63544e-300
-9.01717e-301
-2.1638e-300
-7.93179e-301
-1.22202e-300
-6.35695e-301
-5.4498e-301
-2.50322e-301
-2.67403e-301
-1.255e-301
-1.57572e-301
-7.02693e-302
-9.8978e-302
-4.08223e-302
-6.37901e-302
-2.38975e-302
-4.14144e-302
-1.39103e-302
-2.67637e-302
-7.98556e-303
-1.70007e-302
-4.48431e-303
-1.03878e-302
-2.42408e-303
-1.2008e-303
-5.80909e-303
-5.43611e-302
-1.41749e-301
-1.014e-301
-3.96744e-301
-1.6569e-301
-6.23444e-301
-2.53739e-301
-8.12255e-301
-3.69591e-301
-9.63009e-301
-5.15847e-301
-1.07966e-300
-6.94873e-301
-1.1664e-300
-9.09198e-301
-1.22535e-300
-1.16149e-300
-1.25548e-300
-1.45432e-300
-1.25241e-300
-1.76731e-300
-1.20883e-300
-2.34895e-300
-1.11497e-300
-1.33744e-300
-9.71282e-301
-5.83957e-301
-3.69042e-301
-2.8283e-301
-1.70362e-301
-1.65654e-301
-9.10743e-302
-1.03616e-301
-5.15503e-302
-6.65418e-302
-2.97595e-302
-4.30592e-302
-1.7222e-302
-2.77409e-302
-9.89106e-303
-1.75714e-302
-5.58725e-303
-1.07095e-302
-3.05551e-303
-1.54385e-303
-5.97599e-303
-2.13895e-302
-1.97635e-301
-4.40409e-302
-5.26578e-301
-1.00672e-301
-8.0929e-301
-1.93093e-301
-1.0367e-300
-3.2103e-301
-1.21417e-300
-4.84311e-301
-1.35107e-300
-6.84159e-301
-1.4556e-300
-9.23094e-301
-1.53227e-300
-1.20434e-300
-1.58111e-300
-1.53118e-300
-1.59781e-300
-1.88274e-300
-1.57493e-300
-2.51985e-300
-1.50368e-300
-1.4396e-300
-1.38635e-300
-6.12776e-301
-4.99426e-301
-2.93805e-301
-2.12674e-301
-1.71236e-301
-1.0934e-301
-1.06626e-301
-6.08041e-302
-6.81831e-302
-3.48631e-302
-4.39455e-302
-2.01635e-302
-2.82087e-302
-1.16233e-302
-1.78093e-302
-6.61372e-303
-1.08234e-302
-3.65678e-303
-1.87832e-303
-6.02376e-303
5.68053e-302
-2.57263e-301
7.11301e-302
-6.80877e-301
1.82858e-302
-1.02442e-300
-8.6902e-302
-1.28856e-300
-2.34362e-301
-1.48955e-300
-4.19596e-301
-1.64436e-300
-6.42945e-301
-1.76601e-300
-9.07791e-301
-1.86168e-300
-1.21873e-300
-1.93222e-300
-1.58008e-300
-1.97294e-300
-1.97022e-300
-1.97557e-300
-2.66281e-300
-1.92799e-300
-1.51151e-300
-1.87762e-300
-6.18512e-301
-5.9075e-301
-2.96461e-301
-2.35159e-301
-1.72052e-301
-1.19417e-301
-1.0661e-301
-6.64742e-302
-6.78806e-302
-3.83005e-302
-4.35917e-302
-2.22972e-302
-2.78945e-302
-1.29546e-302
-1.75627e-302
-7.43982e-303
-1.06472e-302
-4.15938e-303
-2.16741e-303
-5.91057e-303
2.54247e-301
-6.16977e-301
2.94049e-301
-1.16317e-300
2.17566e-301
-1.56504e-300
7.72133e-302
-1.86082e-300
-1.03449e-301
-2.08115e-300
-3.17091e-301
-2.25143e-300
-5.65774e-301
-2.38962e-300
-8.5626e-301
-2.50538e-300
-1.19639e-300
-2.60016e-300
-1.59216e-300
-2.66832e-300
-2.01509e-300
-2.7e-300
-2.76719e-300
-2.68956e-300
-1.53365e-300
-1.57799e-300
-5.79387e-301
-5.16554e-301
-2.81671e-301
-2.22259e-301
-1.63308e-301
-1.17836e-301
-1.01256e-301
-6.72641e-302
-6.45183e-302
-3.94246e-302
-4.14546e-302
-2.32628e-302
-2.65303e-302
-1.36766e-302
-1.66986e-302
-7.94365e-303
-1.01153e-302
-4.49245e-303
-2.37153e-303
-5.60581e-303
7.53036e-301
-7.47552e-302
6.69945e-301
-5.00906e-301
5.0027e-301
-7.80398e-301
2.90627e-301
-9.79439e-301
6.22475e-302
-1.12571e-300
-1.83096e-301
-1.23798e-300
-4.54724e-301
-1.32905e-300
-7.66871e-301
-1.40554e-300
-1.13379e-300
-1.46781e-300
-1.56496e-300
-1.50969e-300
-2.05865e-300
-1.51815e-300
-1.69007e-300
-1.48209e-300
-7.76767e-301
-7.49123e-301
-3.858e-301
-3.48552e-301
-2.23786e-301
-1.85179e-301
-1.38449e-301
-1.06425e-301
-8.85732e-302
-6.32676e-302
-5.74318e-302
-3.80434e-302
-3.72961e-302
-2.2874e-302
-2.40286e-302
-1.36545e-302
-1.51857e-302
-8.03635e-303
-9.21824e-303
-4.60037e-303
-2.45787e-303
-5.10798e-303
3.02494e-301
-2.69975e-301
2.08812e-301
-4.21295e-301
1.37957e-301
-4.95973e-301
6.56532e-302
-5.49963e-301
-9.46821e-303
-5.89981e-301
-9.10186e-302
-6.1953e-301
-1.83772e-301
-6.41279e-301
-2.92303e-301
-6.56475e-301
-4.17572e-301
-6.64281e-301
-5.48625e-301
-6.60643e-301
-6.33312e-301
-6.35735e-301
-5.42864e-301
-5.75343e-301
-3.59229e-301
-3.80051e-301
-2.38643e-301
-2.34815e-301
-1.59468e-301
-1.44255e-301
-1.06839e-301
-8.94338e-302
-7.16037e-302
-5.5618e-302
-4.78008e-302
-3.44783e-302
-3.16385e-302
-2.12047e-302
-2.06441e-302
-1.28866e-302
-1.31569e-302
-7.69788e-303
-8.02713e-303
-4.4632e-303
-2.41167e-303
-4.45461e-303
2.10237e-302
-1.54773e-301
1.28952e-302
-2.29427e-301
3.34097e-303
-2.62084e-301
-1.30727e-302
-2.86101e-301
-3.5485e-302
-3.03684e-301
-6.39334e-302
-3.15758e-301
-9.89087e-302
-3.23231e-301
-1.40283e-301
-3.26719e-301
-1.85501e-301
-3.26301e-301
-2.26853e-301
-3.2128e-301
-2.47092e-301
-3.09678e-301
-2.30645e-301
-2.85023e-301
-1.89887e-301
-2.23463e-301
-1.46479e-301
-1.58436e-301
-1.08141e-301
-1.07277e-301
-7.75267e-302
-7.09157e-302
-5.44226e-302
-4.60887e-302
-3.7524e-302
-2.94997e-302
-2.54095e-302
-1.85904e-302
-1.68501e-302
-1.15184e-302
-1.08607e-302
-6.98999e-303
-6.67396e-303
-4.10592e-303
-2.24205e-303
-3.7133e-303
-2.95044e-302
-7.66906e-302
-2.53654e-302
-1.29448e-301
-2.3786e-302
-1.54467e-301
-2.67472e-302
-1.70696e-301
-3.41447e-302
-1.81599e-301
-4.56865e-302
-1.88512e-301
-6.10898e-302
-1.92287e-301
-7.95895e-302
-1.9351e-301
-9.92283e-302
-1.92472e-301
-1.16189e-301
-1.88972e-301
-1.24844e-301
-1.81813e-301
-1.21732e-301
-1.67359e-301
-1.08847e-301
-1.39619e-301
-9.07238e-302
-1.06924e-301
-7.14954e-302
-7.73348e-302
-5.39994e-302
-5.38093e-302
-3.94648e-302
-3.63712e-302
-2.8057e-302
-2.39986e-302
-1.94432e-302
-1.54915e-302
-1.31183e-302
-9.78607e-303
-8.56221e-303
-6.03329e-303
-5.30514e-303
-3.58947e-303
-1.97872e-303
-2.96055e-303
-2.76062e-302
-3.80976e-302
-2.66737e-302
-7.34421e-302
-2.50805e-302
-9.28454e-302
-2.51423e-302
-1.05292e-301
-2.75899e-302
-1.13348e-301
-3.24654e-302
-1.18262e-301
-3.95547e-302
-1.20826e-301
-4.82815e-302
-1.2158e-301
-5.74996e-302
-1.20811e-301
-6.54061e-302
-1.18422e-301
-6.98791e-302
-1.13655e-301
-6.96131e-302
-1.04775e-301
-6.47265e-302
-9.00307e-302
-5.64125e-302
-7.20849e-302
-4.64563e-302
-5.45285e-302
-3.64983e-302
-3.94655e-302
-2.75748e-302
-2.75681e-302
-2.01413e-302
-1.86888e-302
-1.42617e-302
-1.2335e-302
-9.78523e-303
-7.936e-303
-6.46781e-303
-4.96677e-303
-4.04137e-303
-2.99054e-303
-1.66214e-303
-2.26152e-303
-1.90741e-302
-1.93832e-302
-2.01443e-302
-4.17109e-302
-1.97621e-302
-5.57517e-302
-1.9603e-302
-6.52157e-302
-2.04584e-302
-7.145e-302
-2.25525e-302
-7.52933e-302
-2.58366e-302
-7.73512e-302
-3.00047e-302
-7.80522e-302
-3.44632e-302
-7.76275e-302
-3.8363e-302
-7.60329e-302
-4.07845e-302
-7.28414e-302
-4.10731e-302
-6.72611e-302
-3.90389e-302
-5.8758e-302
-3.50083e-302
-4.83656e-302
-2.97351e-302
-3.77411e-302
-2.40695e-302
-2.81427e-302
-1.86794e-302
-2.01904e-302
-1.39618e-302
-1.4007e-302
-1.00772e-302
-9.42831e-303
-7.02173e-303
-6.16708e-303
-4.69674e-303
-3.913e-303
-2.95825e-303
-2.38166e-303
-1.33267e-303
-1.65882e-303
-1.19417e-302
-1.00555e-302
-1.34795e-302
-2.3668e-302
-1.37912e-302
-3.32483e-302
-1.38634e-302
-4.01414e-302
-1.42557e-302
-4.48831e-302
-1.51966e-302
-4.79183e-302
-1.67267e-302
-4.96331e-302
-1.8722e-302
-5.03241e-302
-2.09033e-302
-5.01594e-302
-2.28709e-302
-4.91303e-302
-2.41879e-302
-4.70226e-302
-2.44937e-302
-4.34924e-302
-2.36026e-302
-3.83868e-302
-2.15821e-302
-3.21742e-302
-1.87478e-302
-2.56625e-302
-1.55271e-302
-1.95713e-302
-1.23126e-302
-1.43427e-302
-9.38199e-303
-1.01428e-302
-6.88457e-303
-6.94311e-303
-4.86338e-303
-4.60774e-303
-3.28825e-303
-2.95925e-303
-2.08601e-303
-1.81822e-303
-1.02266e-303
-1.17098e-303
-7.08733e-303
-5.27551e-303
-8.42809e-303
-1.3386e-302
-8.94682e-303
-1.96444e-302
-9.17367e-303
-2.44472e-302
-9.4378e-303
-2.79224e-302
-9.90428e-303
-3.02524e-302
-1.06348e-302
-3.1646e-302
-1.15971e-302
-3.22849e-302
-1.26724e-302
-3.22806e-302
-1.36751e-302
-3.16435e-302
-1.43878e-302
-3.02787e-302
-1.46086e-302
-2.80481e-302
-1.42052e-302
-2.49247e-302
-1.31706e-302
-2.11485e-302
-1.16342e-302
-1.71345e-302
-9.80824e-303
-1.32909e-302
-7.91355e-303
-9.90445e-303
-6.12693e-303
-7.11456e-303
-4.55966e-303
-4.93934e-303
-3.25959e-303
-3.31873e-303
-2.22485e-303
-2.15376e-303
-1.42015e-303
-1.3339e-303
-7.52952e-304
-7.97178e-304
-4.04773e-303
-2.78041e-303
-5.02198e-303
-7.5262e-303
-5.50365e-303
-1.14784e-302
-5.76334e-303
-1.4695e-302
-5.97506e-303
-1.71413e-302
-6.23876e-303
-1.88593e-302
-6.60603e-303
-1.99422e-302
-7.08012e-303
-2.04881e-302
-7.61687e-303
-2.05648e-302
-8.13211e-303
-2.01883e-302
-8.51643e-303
-1.93241e-302
-8.65742e-303
-1.79249e-302
-8.47082e-303
-1.60038e-302
-7.93411e-303
-1.36951e-302
-7.09847e-303
-1.12221e-302
-6.06825e-303
-8.81654e-303
-4.96472e-303
-6.65653e-303
-3.89467e-303
-4.84208e-303
-2.93287e-303
-3.40096e-303
-2.11806e-303
-2.30889e-303
-1.45752e-303
-1.51162e-303
-9.35149e-304
-9.4233e-304
-5.33031e-304
-5.24314e-304
-2.23842e-303
-1.46463e-303
-2.87697e-303
-4.19529e-303
-3.24144e-303
-6.62088e-303
-3.46483e-303
-8.70095e-303
-3.6326e-303
-1.03575e-302
-3.7985e-303
-1.15723e-302
-3.99685e-303
-1.2374e-302
-4.2395e-303
-1.28085e-302
-4.51334e-303
-1.2913e-302
-4.78151e-303
-1.27019e-302
-4.98914e-303
-1.21676e-302
-5.07466e-303
-1.13005e-302
-4.98751e-303
-1.01231e-302
-4.70737e-303
-8.71494e-303
-4.25328e-303
-7.20022e-303
-3.6762e-303
-5.71137e-303
-3.04166e-303
-4.35608e-303
-2.41196e-303
-3.20064e-303
-1.83431e-303
-2.26942e-303
-1.33612e-303
-1.55391e-303
-9.25804e-304
-1.02473e-303
-5.96455e-304
-6.42131e-304
-3.6347e-304
-3.33651e-304
-1.20235e-303
-7.67886e-304
-1.59186e-303
-2.31244e-303
-1.8375e-303
-3.76315e-303
-2.00263e-303
-5.06597e-303
-2.12684e-303
-6.14763e-303
-2.2364e-303
-6.97236e-303
-2.35115e-303
-7.53906e-303
-2.48159e-303
-7.86418e-303
-2.62572e-303
-7.9659e-303
-2.76797e-303
-7.85462e-303
-2.8811e-303
-7.53269e-303
-2.93201e-303
-7.00398e-303
-2.89155e-303
-6.28952e-303
-2.74535e-303
-5.43791e-303
-2.49978e-303
-4.51984e-303
-2.17963e-303
-3.61121e-303
-1.81986e-303
-2.77595e-303
-1.45591e-303
-2.05588e-303
-1.11631e-303
-1.46886e-303
-8.18983e-304
-1.01276e-303
-5.70753e-304
-6.71799e-304
-3.68884e-304
-4.22641e-304
-2.3909e-304
-2.05661e-304
-6.28597e-304
-3.99211e-304
-8.53177e-304
-1.25727e-303
-1.00593e-303
-2.10375e-303
-1.11631e-303
-2.89557e-303
-1.20173e-303
-3.57794e-303
-1.274e-303
-4.11671e-303
-1.34338e-303
-4.50021e-303
-1.41683e-303
-4.73076e-303
-1.49535e-303
-4.81567e-303
-1.57254e-303
-4.76138e-303
-1.635e-303
-4.57257e-303
-1.66524e-303
-4.2564e-303
-1.64699e-303
-3.82926e-303
-1.57116e-303
-3.32107e-303
-1.43947e-303
-2.77257e-303
-1.26398e-303
-2.22723e-303
-1.06314e-303
-1.72242e-303
-8.56686e-304
-1.28359e-303
-6.61297e-304
-9.22662e-304
-4.88053e-304
-6.39714e-304
-3.41741e-304
-4.26322e-304
-2.21385e-304
-2.68978e-304
-1.51902e-304
-1.22895e-304
-3.20449e-304
-2.05141e-304
-4.43973e-304
-6.72759e-304
-5.33192e-304
-1.15472e-303
-6.01564e-304
-1.62218e-303
-6.56465e-304
-2.03866e-303
-7.02728e-304
-2.37796e-303
-7.45223e-304
-2.62713e-303
-7.87856e-304
-2.78298e-303
-8.31877e-304
-2.8473e-303
-8.74661e-304
-2.82358e-303
-9.09627e-304
-2.71599e-303
-9.27661e-304
-2.53105e-303
-9.19922e-304
-2.28037e-303
-8.81048e-304
-1.98225e-303
-8.11266e-304
-1.66024e-303
-7.1643e-304
-1.33911e-303
-6.06201e-304
-1.04038e-303
-4.91365e-304
-7.79075e-304
-3.81393e-304