/*--------------------------------*- C++ -*----------------------------------*\
| =========                 |                                                 |
| \\      /  F ield         | OpenFOAM: The Open Source CFD Toolbox           |
|  \\    /   O peration     | Version:  2406                                  |
|   \\  /    A nd           | Website:  www.openfoam.com                      |
|    \\/     M anipulation  |                                                 |
\*---------------------------------------------------------------------------*/
FoamFile
{
    version     2.0;
    format      ascii;
    arch        "LSB;label=32;scalar=64";
    class       volVectorField;
    location    "0.4";
    object      U;
}
// * * * * * * * * * * * * * * * * * * * * * * * * * * * * * * * * * * * * * //

dimensions      [0 1 -1 0 0 0 0];

internalField   nonuniform List<vector> 
2268
(
(-1.05508e-300 -3.18199e-301 0)
(-3.0658e-300 -1.38658e-300 0)
(-5.28729e-300 -1.87266e-300 0)
(-7.81982e-300 -2.01961e-300 0)
(-1.08053e-299 -1.73408e-300 0)
(-1.4339e-299 -7.6932e-301 0)
(-1.8449e-299 1.29927e-300 0)
(-2.30396e-299 5.14365e-300 0)
(-2.77549e-299 1.18699e-299 0)
(-3.15543e-299 2.34299e-299 0)
(-3.07199e-299 4.37702e-299 0)
(-8.91957e-300 7.85324e-299 0)
(1.47916e-298 1.58363e-298 0)
(-2.72635e-299 5.55657e-299 0)
(-6.42653e-299 4.72193e-300 0)
(-3.48011e-299 -7.49887e-300 0)
(-1.78529e-299 -6.34764e-300 0)
(-9.17731e-300 -3.75147e-300 0)
(-4.76492e-300 -1.82213e-300 0)
(-2.45912e-300 -7.00752e-301 0)
(-1.20719e-300 -1.44112e-301 0)
(-5.02537e-301 6.32686e-302 0)
(-7.748e-302 4.8911e-302 0)
(-3.31173e-300 -6.73721e-301 0)
(-9.56059e-300 -3.3225e-300 0)
(-1.6288e-299 -4.63104e-300 0)
(-2.39618e-299 -4.88091e-300 0)
(-3.29698e-299 -3.77304e-300 0)
(-4.35705e-299 -5.80194e-301 0)
(-5.58185e-299 5.90596e-300 0)
(-6.93911e-299 1.76097e-299 0)
(-8.32118e-299 3.75503e-299 0)
(-9.44878e-299 7.07395e-299 0)
(-9.589e-299 1.26165e-298 0)
(-6.57224e-299 2.22707e-298 0)
(3.8562e-299 3.82016e-298 0)
(-8.44699e-299 1.10535e-298 0)
(-8.66699e-299 1.24858e-299 0)
(-5.07615e-299 -5.03604e-300 0)
(-2.84653e-299 -5.947e-300 0)
(-1.57238e-299 -3.86579e-300 0)
(-8.66913e-300 -1.93195e-300 0)
(-4.74305e-300 -6.88044e-301 0)
(-2.50738e-300 -1.97391e-302 0)
(-1.18594e-300 2.55895e-301 0)
(-2.83963e-301 2.15298e-301 0)
(-5.59856e-300 -1.13657e-300 0)
(-1.63523e-299 -5.14098e-300 0)
(-2.79187e-299 -7.20229e-300 0)
(-4.10984e-299 -7.49418e-300 0)
(-5.65602e-299 -5.47237e-300 0)
(-7.47797e-299 4.05829e-302 0)
(-9.59237e-299 1.10237e-299 0)
(-1.19611e-298 3.05336e-299 0)
(-1.44426e-298 6.33626e-299 0)
(-1.66871e-298 1.17154e-298 0)
(-1.79122e-298 2.05179e-298 0)
(-1.62492e-298 3.53841e-298 0)
(-1.06878e-298 5.81219e-298 0)
(-1.36298e-298 1.46655e-298 0)
(-1.0349e-298 1.98677e-299 0)
(-6.27292e-299 -1.76512e-300 0)
(-3.68976e-299 -4.66334e-300 0)
(-2.13211e-299 -3.39615e-300 0)
(-1.22332e-299 -1.72148e-300 0)
(-6.95671e-300 -5.23629e-301 0)
(-3.85187e-300 1.67567e-301 0)
(-1.95721e-300 4.80879e-301 0)
(-5.82345e-301 4.27688e-301 0)
(-8.06133e-300 -1.63059e-300 0)
(-2.37663e-299 -6.93423e-300 0)
(-4.06586e-299 -9.71661e-300 0)
(-5.98743e-299 -9.98947e-300 0)
(-8.23924e-299 -6.96794e-300 0)
(-1.08954e-298 9.94894e-301 0)
(-1.3993e-298 1.6562e-299 0)
(-1.75045e-298 4.38821e-299 0)
(-2.12889e-298 8.92594e-299 0)
(-2.50004e-298 1.62653e-298 0)
(-2.7946e-298 2.80494e-298 0)
(-2.87162e-298 4.72722e-298 0)
(-2.765e-298 7.47919e-298 0)
(-1.88596e-298 1.77657e-298 0)
(-1.22835e-298 2.75744e-299 0)
(-7.52826e-299 1.56401e-300 0)
(-4.55482e-299 -3.1628e-300 0)
(-2.71921e-299 -2.72884e-300 0)
(-1.61139e-299 -1.38545e-300 0)
(-9.47481e-300 -2.90874e-301 0)
(-5.46421e-300 3.94254e-301 0)
(-2.95168e-300 7.46275e-301 0)
(-1.02687e-300 7.11205e-301 0)
(-1.08276e-299 -2.15697e-300 0)
(-3.21137e-299 -8.81455e-300 0)
(-5.49911e-299 -1.23237e-299 0)
(-8.09451e-299 -1.25525e-299 0)
(-1.11288e-298 -8.43575e-300 0)
(-1.47076e-298 2.08676e-300 0)
(-1.88959e-298 2.23751e-299 0)
(-2.36914e-298 5.7495e-299 0)
(-2.89785e-298 1.15159e-298 0)
(-3.44567e-298 2.07134e-298 0)
(-3.95534e-298 3.52256e-298 0)
(-4.31972e-298 5.81514e-298 0)
(-4.62579e-298 8.93792e-298 0)
(-2.45023e-298 2.0707e-298 0)
(-1.4612e-298 3.53349e-299 0)
(-8.97145e-299 4.76628e-300 0)
(-5.52756e-299 -1.66414e-300 0)
(-3.38334e-299 -2.01443e-300 0)
(-2.06013e-299 -1.01114e-300 0)
(-1.24778e-299 -4.0041e-302 0)
(-7.46794e-300 6.26744e-301 0)
(-4.26829e-300 1.02571e-300 0)
(-1.68569e-300 1.05895e-300 0)
(-1.40147e-299 -2.73462e-300 0)
(-4.17042e-299 -1.08716e-299 0)
(-7.1412e-299 -1.51718e-299 0)
(-1.04981e-298 -1.53445e-299 0)
(-1.44085e-298 -1.00747e-299 0)
(-1.90128e-298 3.15298e-300 0)
(-2.4411e-298 2.8277e-299 0)
(-3.0636e-298 7.12711e-299 0)
(-3.76149e-298 1.40939e-298 0)
(-4.51104e-298 2.5061e-298 0)
(-5.26617e-298 4.20673e-298 0)
(-5.93818e-298 6.82688e-298 0)
(-6.6274e-298 1.02942e-297 0)
(-3.07196e-298 2.36209e-298 0)
(-1.73561e-298 4.31166e-299 0)
(-1.06556e-298 7.86127e-300 0)
(-6.65426e-299 -2.10176e-301 0)
(-4.15599e-299 -1.30339e-300 0)
(-2.58981e-299 -6.38685e-301 0)
(-1.6099e-299 1.95067e-301 0)
(-9.96085e-300 8.27457e-301 0)
(-6.0055e-300 1.26797e-300 0)
(-2.6816e-300 1.41077e-300 0)
(-1.77357e-299 -3.39453e-300 0)
(-5.28555e-299 -1.32016e-299 0)
(-9.04339e-299 -1.83983e-299 0)
(-1.32681e-298 -1.85625e-299 0)
(-1.81645e-298 -1.2075e-299 0)
(-2.39118e-298 3.96071e-300 0)
(-3.06485e-298 3.41015e-299 0)
(-3.84508e-298 8.50186e-299 0)
(-4.7298e-298 1.66541e-298 0)
(-5.70261e-298 2.93038e-298 0)
(-6.72761e-298 4.86091e-298 0)
(-7.72803e-298 7.77925e-298 0)
(-8.78343e-298 1.16137e-297 0)
(-3.75717e-298 2.6532e-298 0)
(-2.05117e-298 5.10059e-299 0)
(-1.26109e-298 1.09506e-299 0)
(-7.9684e-299 1.22983e-300 0)
(-5.06341e-299 -6.03519e-301 0)
(-3.2187e-299 -2.88884e-301 0)
(-2.04587e-299 3.86421e-301 0)
(-1.30218e-299 9.51968e-301 0)
(-8.24246e-300 1.38506e-300 0)
(-4.23772e-300 1.56911e-300 0)
(-2.21005e-299 -4.19105e-300 0)
(-6.58967e-299 -1.58906e-299 0)
(-1.12596e-298 -2.21722e-299 0)
(-1.64773e-298 -2.24041e-299 0)
(-2.24873e-298 -1.46989e-299 0)
(-2.95085e-298 4.2864e-300 0)
(-3.77218e-298 3.95896e-299 0)
(-4.72498e-298 9.86019e-299 0)
(-5.81307e-298 1.91842e-298 0)
(-7.02791e-298 3.34552e-298 0)
(-8.34457e-298 5.48866e-298 0)
(-9.70472e-298 8.67785e-298 0)
(-1.11361e-297 1.28751e-297 0)
(-4.5035e-298 2.93462e-298 0)
(-2.40392e-298 5.91137e-299 0)
(-1.48347e-298 1.41869e-299 0)
(-9.48026e-299 2.72698e-300 0)
(-6.11675e-299 1.03756e-301 0)
(-3.95494e-299 3.14053e-302 0)
(-2.55963e-299 5.13216e-301 0)
(-1.66358e-299 9.57858e-301 0)
(-1.09049e-299 1.24338e-300 0)
(-6.76426e-300 1.0294e-300 0)
(-1.67252e-305 -5.42183e-305 0)
(-1.23213e-304 -5.06782e-304 0)
(-4.92975e-305 -4.28866e-304 0)
(-4.98574e-305 -1.99497e-304 0)
(-5.52973e-305 -6.63444e-305 0)
(-4.35481e-305 -1.57623e-305 0)
(-2.67856e-305 -1.5705e-306 0)
(-1.39311e-305 9.93973e-307 0)
(-6.4168e-306 8.60508e-307 0)
(-2.6895e-306 4.52442e-307 0)
(-1.04235e-306 1.98746e-307 0)
(-3.76877e-307 7.9295e-308 0)
(-1.27554e-307 2.97351e-308 0)
(-4.03271e-308 1.06105e-308 0)
(-1.1802e-308 3.58893e-309 0)
(-3.1281e-309 1.12731e-309 0)
(-7.1481e-310 3.14709e-310 0)
(-1.21395e-310 6.86265e-311 0)
(-5.85902e-312 5.49986e-312 0)
(2.32814e-307 -2.98844e-304 0)
(-3.61788e-304 -1.50394e-303 0)
(-2.91534e-304 -1.12282e-303 0)
(-2.78508e-304 -5.06221e-304 0)
(-2.26761e-304 -1.65061e-304 0)
(-1.51247e-304 -3.5934e-305 0)
(-8.60661e-305 -1.93899e-307 0)
(-4.33806e-305 5.26101e-306 0)
(-1.98708e-305 3.81554e-306 0)
(-8.41063e-306 1.99151e-306 0)
(-3.32421e-306 8.95485e-307 0)
(-1.23419e-306 3.67826e-307 0)
(-4.31298e-307 1.41674e-307 0)
(-1.41544e-307 5.17338e-308 0)
(-4.327e-308 1.79094e-308 0)
(-1.20962e-308 5.81247e-309 0)
(-2.96471e-309 1.72106e-309 0)
(-5.62521e-310 4.29182e-310 0)
(-3.24063e-311 5.1751e-311 0)
(8.33786e-306 -9.61484e-304 0)
(-8.82925e-304 -3.313e-303 0)
(-8.62667e-304 -2.19717e-303 0)
(-7.72093e-304 -9.36402e-304 0)
(-5.6204e-304 -2.93145e-304 0)
(-3.46362e-304 -5.84432e-305 0)
(-1.88101e-304 4.33313e-306 0)
(-9.25803e-305 1.2478e-305 0)
(-4.20569e-305 8.60325e-306 0)
(-1.78428e-305 4.4936e-306 0)
(-7.12222e-306 2.04931e-306 0)
(-2.68582e-306 8.57984e-307 0)
(-9.57874e-307 3.37538e-307 0)
(-3.22283e-307 1.2609e-307 0)
(-1.01529e-307 4.47808e-308 0)
(-2.94564e-308 1.50049e-308 0)
(-7.58303e-309 4.65196e-309 0)
(-1.55187e-309 1.25725e-309 0)
(-1.0969e-310 1.86291e-310 0)
(-1.76858e-304 -2.84543e-303 0)
(-2.17336e-303 -6.8817e-303 0)
(-2.22132e-303 -4.03369e-303 0)
(-1.83354e-303 -1.60736e-303 0)
(-1.23128e-303 -4.79007e-304 0)
(-7.16585e-304 -8.6779e-305 0)
(-3.75549e-304 1.38029e-305 0)
(-1.81318e-304 2.46118e-305 0)
(-8.17669e-305 1.64799e-305 0)
(-3.47364e-305 8.62823e-306 0)
(-1.3974e-305 3.98359e-306 0)
(-5.33777e-306 1.69599e-306 0)
(-1.93652e-306 6.80212e-307 0)
(-6.65495e-307 2.59591e-307 0)
(-2.15097e-307 9.44551e-308 0)
(-6.44052e-308 3.25945e-308 0)
(-1.72763e-308 1.05179e-308 0)
(-3.75967e-309 3.03299e-309 0)
(-3.12982e-310 5.23138e-310 0)
(-1.41392e-303 -8.16986e-303 0)
(-5.36767e-303 -1.37435e-302 0)
(-5.32147e-303 -7.09997e-303 0)
(-4.02082e-303 -2.63977e-303 0)
(-2.52204e-303 -7.49504e-304 0)
(-1.40251e-303 -1.23928e-304 0)
(-7.15047e-304 3.02621e-305 0)
(-3.40321e-304 4.38899e-305 0)
(-1.52762e-304 2.89328e-305 0)
(-6.50614e-305 1.52293e-305 0)
(-2.63831e-305 7.12141e-306 0)
(-1.02025e-305 3.08205e-306 0)
(-3.76107e-306 1.25942e-306 0)
(-1.31796e-306 4.90634e-307 0)
(-4.36048e-307 1.82682e-307 0)
(-1.34323e-307 6.47804e-308 0)
(-3.7372e-308 2.16629e-308 0)
(-8.57991e-309 6.60199e-309 0)
(-8.20619e-310 1.29379e-309 0)
(-7.12978e-303 -2.32871e-302 0)
(-1.33006e-302 -2.63129e-302 0)
(-1.20417e-302 -1.19328e-302 0)
(-8.29606e-303 -4.15121e-303 0)
(-4.8972e-303 -1.1305e-303 0)
(-2.62337e-303 -1.73193e-304 0)
(-1.30941e-303 5.566e-305 0)
(-6.17076e-304 7.26819e-305 0)
(-2.76502e-304 4.76435e-305 0)
(-1.18261e-304 2.52858e-305 0)
(-4.83794e-305 1.19854e-305 0)
(-1.89425e-305 5.27258e-306 0)
(-7.09248e-306 2.19393e-306 0)
(-2.53186e-306 8.71628e-307 0)
(-8.56163e-307 3.31615e-307 0)
(-2.7074e-307 1.20568e-307 0)
(-7.78808e-308 4.16256e-308 0)
(-1.87677e-308 1.33129e-308 0)
(-2.03679e-309 2.93274e-309 0)
(-2.99883e-302 -6.46778e-302 0)
(-3.30574e-302 -4.76779e-302 0)
(-2.59549e-302 -1.90183e-302 0)
(-1.62645e-302 -6.24522e-303 0)
(-9.09605e-303 -1.65044e-303 0)
(-4.72725e-303 -2.3996e-304 0)
(-2.32334e-303 9.15179e-305 0)
(-1.08876e-303 1.1363e-304 0)
(-4.88463e-304 7.4677e-305 0)
(-2.10234e-304 4.00807e-305 0)
(-8.68796e-305 1.92804e-305 0)
(-3.44693e-305 8.62401e-306 0)
(-1.31125e-305 3.65289e-306 0)
(-4.76783e-306 1.47872e-306 0)
(-1.64682e-306 5.73966e-307 0)
(-5.33903e-307 2.13409e-307 0)
(-1.5842e-307 7.57168e-308 0)
(-3.98683e-308 2.51479e-308 0)
(-4.85482e-309 6.08213e-309 0)
(-1.08101e-301 -1.84016e-301 0)
(-8.07849e-302 -7.91079e-302 0)
(-5.22385e-302 -2.8261e-302 0)
(-2.99737e-302 -8.94631e-303 0)
(-1.60331e-302 -2.33929e-303 0)
(-8.14587e-303 -3.37392e-304 0)
(-3.96347e-303 1.34395e-304 0)
(-1.8536e-303 1.66873e-304 0)
(-8.34526e-304 1.10975e-304 0)
(-3.61901e-304 6.04349e-305 0)
(-1.51158e-304 2.9535e-305 0)
(-6.07636e-305 1.34298e-305 0)
(-2.34695e-305 5.78428e-306 0)
(-8.68151e-306 2.38122e-306 0)
(-3.05701e-306 9.40203e-307 0)
(-1.01327e-306 3.55925e-307 0)
(-3.08879e-307 1.28819e-307 0)
(-8.07169e-308 4.37716e-308 0)
(-1.11089e-308 1.12202e-308 0)
(-2.98395e-299 -5.70829e-300 0)
(-8.90205e-299 -2.06937e-299 0)
(-1.51788e-298 -2.90156e-299 0)
(-2.21305e-298 -2.96215e-299 0)
(-3.0065e-298 -2.00929e-299 0)
(-3.92664e-298 3.4967e-300 0)
(-4.99842e-298 4.69988e-299 0)
(-6.24192e-298 1.18617e-298 0)
(-7.67042e-298 2.29862e-298 0)
(-9.28843e-298 3.96642e-298 0)
(-1.10895e-297 6.41378e-298 0)
(-1.30524e-297 9.95267e-298 0)
(-1.51742e-297 1.44336e-297 0)
(-5.74216e-298 3.33513e-298 0)
(-2.9907e-298 7.22535e-299 0)
(-1.85735e-298 1.97896e-299 0)
(-1.20436e-298 5.37584e-300 0)
(-7.91387e-299 1.35698e-300 0)
(-5.21626e-299 5.6706e-301 0)
(-3.43865e-299 6.55529e-301 0)
(-2.26908e-299 8.08581e-301 0)
(-1.50118e-299 7.07316e-301 0)
(-9.8212e-300 9.41354e-302 0)
(-4.08541e-299 -8.25175e-300 0)
(-1.21879e-298 -2.83359e-299 0)
(-2.07481e-298 -4.04313e-299 0)
(-3.01708e-298 -4.27877e-299 0)
(-4.08593e-298 -3.23671e-299 0)
(-5.31964e-298 -4.49336e-300 0)
(-6.75372e-298 4.73726e-299 0)
(-8.41972e-298 1.32203e-298 0)
(-1.03444e-297 2.61877e-298 0)
(-1.25488e-297 4.52179e-298 0)
(-1.5047e-297 7.23773e-298 0)
(-1.78492e-297 1.10287e-297 0)
(-2.09262e-297 1.56303e-297 0)
(-7.53773e-298 3.70185e-298 0)
(-3.81632e-298 8.68443e-299 0)
(-2.36361e-298 2.67657e-299 0)
(-1.54176e-298 8.97133e-300 0)
(-1.02304e-298 3.15914e-300 0)
(-6.81313e-299 1.33968e-300 0)
(-4.52524e-299 8.08954e-301 0)
(-2.98227e-299 5.59569e-301 0)
(-1.9291e-299 2.05711e-301 0)
(-1.17926e-299 -3.79576e-301 0)
(-5.23449e-299 -1.16311e-299 0)
(-1.55817e-298 -3.84975e-299 0)
(-2.64815e-298 -5.6153e-299 0)
(-3.84351e-298 -6.22451e-299 0)
(-5.19471e-298 -5.30994e-299 0)
(-6.75047e-298 -2.3506e-299 0)
(-8.5569e-298 3.36624e-299 0)
(-1.06567e-297 1.27656e-298 0)
(-1.30882e-297 2.70397e-298 0)
(-1.5885e-297 4.76697e-298 0)
(-1.90741e-297 7.64907e-298 0)
(-2.26811e-297 1.15576e-297 0)
(-2.66505e-297 1.61496e-297 0)
(-9.4052e-298 3.9041e-298 0)
(-4.67652e-298 9.62762e-299 0)
(-2.87646e-298 3.16541e-299 0)
(-1.87424e-298 1.16761e-299 0)
(-1.24579e-298 4.59984e-300 0)
(-8.31511e-299 1.99656e-300 0)
(-5.5251e-299 9.80787e-301 0)
(-3.62409e-299 4.56107e-301 0)
(-2.31108e-299 2.0156e-302 0)
(-1.37764e-299 -4.00277e-301 0)
(-6.44339e-299 -1.63508e-299 0)
(-1.91048e-298 -5.2732e-299 0)
(-3.24009e-298 -7.87044e-299 0)
(-4.69345e-298 -9.12909e-299 0)
(-6.33175e-298 -8.6296e-299 0)
(-8.21428e-298 -5.79461e-299 0)
(-1.03975e-297 1.21564e-300 0)
(-1.29342e-297 1.00694e-298 0)
(-1.58723e-297 2.52065e-298 0)
(-1.92542e-297 4.69228e-298 0)
(-2.31147e-297 7.68152e-298 0)
(-2.74864e-297 1.16543e-297 0)
(-3.2298e-297 1.62188e-297 0)
(-1.13277e-297 3.98744e-298 0)
(-5.57425e-298 1.01081e-298 0)
(-3.40456e-298 3.43108e-299 0)
(-2.21044e-298 1.32682e-299 0)
(-1.46681e-298 5.52716e-300 0)
(-9.7798e-299 2.47687e-300 0)
(-6.48689e-299 1.17634e-300 0)
(-4.23899e-299 5.06908e-301 0)
(-2.68567e-299 5.9727e-302 0)
(-1.59026e-299 -2.53478e-301 0)
(-7.72334e-299 -2.2999e-299 0)
(-2.27788e-298 -7.2828e-299 0)
(-3.85325e-298 -1.10943e-298 0)
(-5.5694e-298 -1.33785e-298 0)
(-7.49882e-298 -1.36547e-298 0)
(-9.71163e-298 -1.13021e-298 0)
(-1.22745e-297 -5.53142e-299 0)
(-1.52493e-297 4.61401e-299 0)
(-1.86923e-297 2.02793e-298 0)
(-2.26526e-297 4.27633e-298 0)
(-2.71704e-297 7.35084e-298 0)
(-3.22822e-297 1.13879e-297 0)
(-3.79099e-297 1.59698e-297 0)
(-1.3303e-297 3.98159e-298 0)
(-6.50869e-298 1.01883e-298 0)
(-3.95126e-298 3.48171e-299 0)
(-2.555e-298 1.3673e-299 0)
(-1.69066e-298 5.84073e-300 0)
(-1.12469e-298 2.6957e-300 0)
(-7.44329e-299 1.32403e-300 0)
(-4.85124e-299 6.2824e-301 0)
(-3.065e-299 2.05204e-301 0)
(-1.81287e-299 -5.53054e-302 0)
(-9.08664e-299 -3.22841e-299 0)
(-2.66275e-298 -1.00869e-298 0)
(-4.4908e-298 -1.56284e-298 0)
(-6.47517e-298 -1.94253e-298 0)
(-8.70052e-298 -2.09392e-298 0)
(-1.12484e-297 -1.94893e-298 0)
(-1.41957e-297 -1.42527e-298 0)
(-1.76135e-297 -4.23975e-299 0)
(-2.15653e-297 1.16829e-298 0)
(-2.61063e-297 3.4786e-298 0)
(-3.12811e-297 6.64135e-298 0)
(-3.71297e-297 1.07791e-297 0)
(-4.35732e-297 1.54584e-297 0)
(-1.53417e-297 3.89693e-298 0)
(-7.48055e-298 9.87858e-299 0)
(-4.51817e-298 3.30904e-299 0)
(-2.91031e-298 1.27584e-299 0)
(-1.91993e-298 5.40503e-300 0)
(-1.27401e-298 2.52986e-300 0)
(-8.41307e-299 1.31191e-300 0)
(-5.47282e-299 7.12843e-301 0)
(-3.45308e-299 3.58025e-301 0)
(-2.04283e-299 1.36488e-301 0)
(-1.05455e-298 -4.50524e-299 0)
(-3.06713e-298 -1.39381e-298 0)
(-5.15552e-298 -2.18787e-298 0)
(-7.41455e-298 -2.78204e-298 0)
(-9.94253e-298 -3.1145e-298 0)
(-1.28334e-297 -3.11157e-298 0)
(-1.61752e-297 -2.68491e-298 0)
(-2.0048e-297 -1.73246e-298 0)
(-2.45232e-297 -1.36906e-299 0)
(-2.96612e-297 2.22905e-298 0)
(-3.55117e-297 5.5007e-298 0)
(-4.21176e-297 9.79642e-298 0)
(-4.94026e-297 1.46769e-297 0)
(-1.74641e-297 3.72398e-298 0)
(-8.49338e-298 9.11386e-299 0)
(-5.1069e-298 2.86862e-299 0)
(-3.27775e-298 1.02064e-299 0)
(-2.15601e-298 3.98241e-300 0)
(-1.42719e-298 1.7959e-300 0)
(-9.40574e-299 9.94125e-301 0)
(-6.10923e-299 6.43701e-301 0)
(-3.85135e-299 4.31637e-301 0)
(-2.27916e-299 2.7664e-301 0)
(-1.21084e-298 -6.23484e-299 0)
(-3.49156e-298 -1.91394e-298 0)
(-5.84775e-298 -3.03411e-298 0)
(-8.38856e-298 -3.92235e-298 0)
(-1.1228e-297 -4.50829e-298 0)
(-1.44743e-297 -4.70979e-298 0)
(-1.82276e-297 -4.43305e-298 0)
(-2.25783e-297 -3.56892e-298 0)
(-2.7605e-297 -1.99495e-298 0)
(-3.33747e-297 4.24548e-299 0)
(-3.99412e-297 3.83187e-298 0)
(-4.73513e-297 8.35527e-298 0)
(-5.55317e-297 1.35539e-297 0)
(-1.96979e-297 3.43261e-298 0)
(-9.553e-298 7.73994e-299 0)
(-5.7192e-298 2.06926e-299 0)
(-3.65808e-298 5.43999e-300 0)
(-2.39941e-298 1.19186e-300 0)
(-1.58466e-298 2.33334e-301 0)
(-1.04244e-298 1.87752e-301 0)
(-6.76185e-299 2.92119e-301 0)
(-4.25975e-299 3.41171e-301 0)
(-2.52118e-299 3.19904e-301 0)
(-1.37741e-298 -8.54471e-299 0)
(-3.93311e-298 -2.60637e-298 0)
(-6.56226e-298 -4.16135e-298 0)
(-9.39098e-298 -5.44422e-298 0)
(-1.25524e-297 -6.37235e-298 0)
(-1.61711e-297 -6.85567e-298 0)
(-2.03617e-297 -6.79187e-298 0)
(-2.52251e-297 -6.06552e-298 0)
(-3.08488e-297 -4.54332e-298 0)
(-3.73053e-297 -2.07808e-298 0)
(-4.46537e-297 1.49103e-298 0)
(-5.2944e-297 6.31166e-298 0)
(-6.21049e-297 1.19518e-297 0)
(-2.20759e-297 2.96924e-298 0)
(-1.06661e-297 5.49938e-299 0)
(-6.35653e-298 7.64863e-300 0)
(-4.05135e-298 -2.42193e-300 0)
(-2.6499e-298 -3.51344e-300 0)
(-1.74617e-298 -2.504e-300 0)
(-1.14669e-298 -1.32966e-300 0)
(-7.42889e-299 -4.84748e-301 0)
(-4.67665e-299 -1.20439e-303 0)
(-2.76775e-299 2.1893e-301 0)
(-1.55227e-298 -1.15953e-298 0)
(-4.38254e-298 -3.51661e-298 0)
(-7.28339e-298 -5.6433e-298 0)
(-1.04024e-297 -7.44462e-298 0)
(-1.38957e-297 -8.82451e-298 0)
(-1.79083e-297 -9.68209e-298 0)
(-2.25704e-297 -9.9092e-298 0)
(-2.79955e-297 -9.38111e-298 0)
(-3.42797e-297 -7.95434e-298 0)
(-4.15022e-297 -5.46208e-298 0)
(-4.97266e-297 -1.71895e-298 0)
(-5.90065e-297 3.45853e-298 0)
(-6.92672e-297 9.65536e-298 0)
(-2.46316e-297 2.25192e-298 0)
(-1.18384e-297 2.01303e-299 0)
(-7.01903e-298 -1.25251e-299 0)
(-4.45647e-298 -1.45868e-299 0)
(-2.90635e-298 -1.08481e-299 0)
(-1.91084e-298 -6.84308e-300 0)
(-1.25268e-298 -3.81499e-300 0)
(-8.10566e-299 -1.84121e-300 0)
(-5.09883e-299 -6.85571e-301 0)
(-3.01686e-299 -7.43013e-302 0)
(-1.73032e-298 -1.55887e-298 0)
(-4.81989e-298 -4.70197e-298 0)
(-7.97852e-298 -7.57007e-298 0)
(-1.13812e-297 -1.00423e-297 0)
(-1.52135e-297 -1.20043e-297 0)
(-1.96437e-297 -1.33472e-297 0)
(-2.48204e-297 -1.39569e-297 0)
(-3.08699e-297 -1.37042e-297 0)
(-3.78982e-297 -1.24322e-297 0)
(-4.59904e-297 -9.95387e-298 0)
(-5.52156e-297 -6.04758e-298 0)
(-6.56304e-297 -4.82638e-299 0)
(-7.7149e-297 6.36121e-298 0)
(-2.73939e-297 1.16398e-298 0)
(-1.30715e-297 -3.23829e-299 0)
(-7.70419e-298 -4.2556e-299 0)
(-4.8707e-298 -3.25654e-299 0)
(-3.16658e-298 -2.16609e-299 0)
(-2.0771e-298 -1.32633e-299 0)
(-1.35933e-298 -7.54035e-300 0)
(-8.78473e-299 -3.93197e-300 0)
(-5.52136e-299 -1.7985e-300 0)
(-3.2655e-299 -6.05136e-301 0)
(-1.90137e-298 -2.07911e-298 0)
(-5.20821e-298 -6.23497e-298 0)
(-8.58794e-298 -1.00553e-297 0)
(-1.22526e-297 -1.33811e-297 0)
(-1.64236e-297 -1.6079e-297 0)
(-2.12965e-297 -1.80334e-297 0)
(-2.70381e-297 -1.91333e-297 0)
(-3.37887e-297 -1.92478e-297 0)
(-4.16627e-297 -1.8213e-297 0)
(-5.07533e-297 -1.58166e-297 0)
(-6.11338e-297 -1.17979e-297 0)
(-7.28666e-297 -5.86112e-298 0)
(-8.58383e-297 1.66449e-298 0)
(-3.03769e-297 -4.51891e-299 0)
(-1.43588e-297 -1.09199e-298 0)
(-8.40525e-298 -8.57213e-299 0)
(-5.28901e-298 -5.80507e-299 0)
(-3.42718e-298 -3.68364e-299 0)
(-2.24265e-298 -2.22295e-299 0)
(-1.46507e-298 -1.27527e-299 0)
(-9.45558e-299 -6.88999e-300 0)
(-5.93725e-299 -3.41179e-300 0)
(-3.50936e-299 -1.41095e-300 0)
(-2.04723e-298 -2.75645e-298 0)
(-5.48272e-298 -8.21192e-298 0)
(-9.01054e-298 -1.32429e-297 0)
(-1.28922e-297 -1.76392e-297 0)
(-1.73922e-297 -2.12452e-297 0)
(-2.27323e-297 -2.3951e-297 0)
(-2.90969e-297 -2.56577e-297 0)
(-3.66362e-297 -2.62482e-297 0)
(-4.54742e-297 -2.55544e-297 0)
(-5.57109e-297 -2.33455e-297 0)
(-6.74272e-297 -1.93149e-297 0)
(-8.06927e-297 -1.30948e-297 0)
(-9.53472e-297 -4.94035e-298 0)
(-3.35656e-297 -2.79545e-298 0)
(-1.56815e-297 -2.18108e-298 0)
(-9.1097e-298 -1.45463e-298 0)
(-5.70364e-298 -9.26133e-299 0)
(-3.68328e-298 -5.70925e-299 0)
(-2.40434e-298 -3.40715e-299 0)
(-1.56778e-298 -1.96074e-299 0)
(-1.01035e-298 -1.07922e-299 0)
(-6.3366e-299 -5.56581e-300 0)
(-3.74219e-299 -2.51367e-300 0)
(-2.13569e-298 -3.64428e-298 0)
(-5.53213e-298 -1.07643e-297 0)
(-9.07933e-298 -1.7323e-297 0)
(-1.31041e-297 -2.30368e-297 0)
(-1.79141e-297 -2.77369e-297 0)
(-2.37504e-297 -3.13346e-297 0)
(-3.08036e-297 -3.377e-297 0)
(-3.92297e-297 -3.4953e-297 0)
(-4.91587e-297 -3.47289e-297 0)
(-6.0701e-297 -3.28501e-297 0)
(-7.39466e-297 -2.8972e-297 0)
(-8.89799e-297 -2.2648e-297 0)
(-1.05566e-296 -1.4048e-297 0)
(-3.68978e-297 -6.09894e-298 0)
(-1.70028e-297 -3.6684e-298 0)
(-9.79786e-298 -2.24464e-298 0)
(-6.10351e-298 -1.3711e-298 0)
(-3.92811e-298 -8.26415e-299 0)
(-2.55767e-298 -4.88044e-299 0)
(-1.66433e-298 -2.80781e-299 0)
(-1.07067e-298 -1.56157e-299 0)
(-6.70456e-299 -8.24895e-300 0)
(-3.9546e-299 -3.9105e-300 0)
(-2.10721e-298 -4.8281e-298 0)
(-5.15998e-298 -1.40834e-297 0)
(-8.52123e-298 -2.25502e-297 0)
(-1.2589e-297 -2.98526e-297 0)
(-1.76954e-297 -3.58261e-297 0)
(-2.40711e-297 -4.04449e-297 0)
(-3.18933e-297 -4.37184e-297 0)
(-4.13109e-297 -4.56151e-297 0)
(-5.24597e-297 -4.60047e-297 0)
(-6.54622e-297 -4.46392e-297 0)
(-8.0426e-297 -4.11398e-297 0)
(-9.74574e-297 -3.5e-297 0)
(-1.16221e-296 -2.62963e-297 0)
(-4.02361e-297 -1.05927e-297 0)
(-1.8262e-297 -5.60174e-298 0)
(-1.0441e-297 -3.22862e-298 0)
(-6.47272e-298 -1.90727e-298 0)
(-4.15156e-298 -1.12725e-298 0)
(-2.69565e-298 -6.59139e-299 0)
(-1.74976e-298 -3.78603e-299 0)
(-1.12305e-298 -2.11947e-299 0)
(-7.01801e-299 -1.13771e-299 0)
(-4.13222e-299 -5.56394e-300 0)
(-1.83415e-298 -6.46097e-298 0)
(-4.00096e-298 -1.84589e-297 0)
(-6.88331e-298 -2.92778e-297 0)
(-1.09018e-297 -3.8434e-297 0)
(-1.63345e-297 -4.58271e-297 0)
(-2.33372e-297 -5.1555e-297 0)
(-3.20336e-297 -5.57527e-297 0)
(-4.2554e-297 -5.84733e-297 0)
(-5.50392e-297 -5.96343e-297 0)
(-6.96346e-297 -5.8992e-297 0)
(-8.64717e-297 -5.61556e-297 0)
(-1.05694e-296 -5.05841e-297 0)
(-1.26841e-296 -4.22953e-297 0)
(-4.33185e-297 -1.64171e-297 0)
(-1.93633e-297 -7.93978e-298 0)
(-1.09955e-297 -4.35345e-298 0)
(-6.78571e-298 -2.49746e-298 0)
(-4.33638e-298 -1.4513e-298 0)
(-2.80621e-298 -8.41781e-299 0)
(-1.81575e-298 -4.83041e-299 0)
(-1.16195e-298 -2.71911e-299 0)
(-7.24157e-299 -1.47787e-299 0)
(-4.25399e-299 -7.39269e-300 0)
(-9.7354e-299 -8.83377e-298 0)
(-1.3224e-298 -2.43498e-297 0)
(-3.40493e-298 -3.79919e-297 0)
(-7.40121e-298 -4.92085e-297 0)
(-1.33253e-297 -5.80817e-297 0)
(-2.1134e-297 -6.49403e-297 0)
(-3.08519e-297 -7.01018e-297 0)
(-4.25855e-297 -7.37424e-297 0)
(-5.64992e-297 -7.58326e-297 0)
(-7.27749e-297 -7.61434e-297 0)
(-9.15813e-297 -7.42774e-297 0)
(-1.13102e-296 -6.97208e-297 0)
(-1.36759e-296 -6.25063e-297 0)
(-4.5624e-297 -2.34026e-297 0)
(-2.01512e-297 -1.04423e-297 0)
(-1.13858e-297 -5.47348e-298 0)
(-6.99468e-298 -3.06482e-298 0)
(-4.45052e-298 -1.75975e-298 0)
(-2.86824e-298 -1.01648e-298 0)
(-1.84886e-298 -5.84206e-299 0)
(-1.17906e-298 -3.30955e-299 0)
(-7.32578e-299 -1.81902e-299 0)
(-4.292e-299 -9.26552e-300 0)
(1.65016e-298 -1.24911e-297 0)
(4.4473e-298 -3.24681e-297 0)
(3.18779e-298 -4.93306e-297 0)
(-1.225e-298 -6.26513e-297 0)
(-8.10305e-298 -7.29274e-297 0)
(-1.70533e-297 -8.08407e-297 0)
(-2.79861e-297 -8.69573e-297 0)
(-4.10276e-297 -9.15903e-297 0)
(-5.64146e-297 -9.47697e-297 0)
(-7.4404e-297 -9.62603e-297 0)
(-9.52016e-297 -9.56579e-297 0)
(-1.19001e-296 -9.25267e-297 0)
(-1.4518e-296 -8.70815e-297 0)
(-4.60308e-297 -3.04856e-297 0)
(-2.03602e-297 -1.25053e-297 0)
(-1.14619e-297 -6.32433e-298 0)
(-7.00607e-298 -3.49595e-298 0)
(-4.43747e-298 -2.00199e-298 0)
(-2.84882e-298 -1.15916e-298 0)
(-1.8303e-298 -6.69946e-299 0)
(-1.16388e-298 -3.82667e-299 0)
(-7.21291e-299 -2.12664e-299 0)
(-4.21573e-299 -1.10016e-299 0)
(1.05401e-297 -1.7514e-297 0)
(1.67507e-297 -4.38897e-297 0)
(1.48124e-297 -6.40953e-297 0)
(8.54103e-298 -7.92754e-297 0)
(-2.52967e-299 -9.06863e-297 0)
(-1.08512e-297 -9.94766e-297 0)
(-2.31852e-297 -1.06487e-296 0)
(-3.75449e-297 -1.12176e-296 0)
(-5.43659e-297 -1.16608e-296 0)
(-7.40539e-297 -1.19511e-296 0)
(-9.68481e-297 -1.20399e-296 0)
(-1.22772e-296 -1.18881e-296 0)
(-1.51115e-296 -1.15514e-296 0)
(-4.28339e-297 -3.32565e-297 0)
(-1.93574e-297 -1.28684e-297 0)
(-1.08772e-297 -6.56083e-298 0)
(-6.65225e-298 -3.67662e-298 0)
(-4.21654e-298 -2.13065e-298 0)
(-2.70884e-298 -1.24671e-298 0)
(-1.74089e-298 -7.27857e-299 0)
(-1.10686e-298 -4.20091e-299 0)
(-6.85556e-299 -2.36133e-299 0)
(-4.00221e-299 -1.23849e-299 0)
(4.10818e-297 -2.6453e-297 0)
(3.97489e-297 -5.83668e-297 0)
(3.21628e-297 -8.15233e-297 0)
(2.15361e-297 -9.82573e-297 0)
(9.65974e-298 -1.10621e-296 0)
(-2.97811e-298 -1.20203e-296 0)
(-1.66754e-297 -1.28104e-296 0)
(-3.21346e-297 -1.34905e-296 0)
(-5.01812e-297 -1.40699e-296 0)
(-7.15197e-297 -1.45152e-296 0)
(-9.64623e-297 -1.47675e-296 0)
(-1.24513e-296 -1.47572e-296 0)
(-5.68988e-297 -5.47516e-297 0)
(-2.64792e-297 -2.24798e-297 0)
(-1.49325e-297 -1.11133e-297 0)
(-9.08871e-298 -6.15367e-298 0)
(-5.77234e-298 -3.58118e-298 0)
(-3.73509e-298 -2.12327e-298 0)
(-2.42963e-298 -1.26335e-298 0)
(-1.57373e-298 -7.47852e-299 0)
(-1.0055e-298 -4.3703e-299 0)
(-6.24539e-299 -2.48602e-299 0)
(-3.64945e-299 -1.3204e-299 0)
(1.93817e-297 -1.79738e-297 0)
(1.3088e-297 -2.96161e-297 0)
(9.32591e-298 -3.56495e-297 0)
(5.48236e-298 -3.98776e-297 0)
(1.56484e-298 -4.29851e-297 0)
(-2.58116e-298 -4.53173e-297 0)
(-7.18876e-298 -4.7109e-297 0)
(-1.25373e-297 -4.84606e-297 0)
(-1.88385e-297 -4.92875e-297 0)
(-2.59837e-297 -4.9213e-297 0)
(-3.29057e-297 -4.73124e-297 0)
(-3.5074e-297 -4.24859e-297 0)
(-2.3197e-297 -2.60789e-297 0)
(-1.53626e-297 -1.5129e-297 0)
(-1.02533e-297 -8.86756e-298 0)
(-6.86394e-298 -5.32957e-298 0)
(-4.60417e-298 -3.2454e-298 0)
(-3.08175e-298 -1.98161e-298 0)
(-2.04918e-298 -1.20476e-298 0)
(-1.34689e-298 -7.25474e-299 0)
(-8.69049e-299 -4.30094e-299 0)
(-5.43209e-299 -2.47778e-299 0)
(-3.18422e-299 -1.33165e-299 0)
(1.40923e-298 -1.11565e-297 0)
(8.47451e-299 -1.58417e-297 0)
(5.36714e-299 -1.78661e-297 0)
(-1.78094e-299 -1.94635e-297 0)
(-1.22513e-298 -2.0674e-297 0)
(-2.58382e-298 -2.15302e-297 0)
(-4.27878e-298 -2.20852e-297 0)
(-6.33806e-298 -2.23732e-297 0)
(-8.71983e-298 -2.23885e-297 0)
(-1.11918e-297 -2.20705e-297 0)
(-1.31585e-297 -2.12835e-297 0)
(-1.33643e-297 -1.95937e-297 0)
(-1.13931e-297 -1.49287e-297 0)
(-8.98929e-298 -1.02076e-297 0)
(-6.73369e-298 -6.69754e-298 0)
(-4.8741e-298 -4.32035e-298 0)
(-3.4476e-298 -2.75579e-298 0)
(-2.39411e-298 -1.7386e-298 0)
(-1.63371e-298 -1.08322e-298 0)
(-1.09374e-298 -6.6499e-299 0)
(-7.14944e-299 -4.00508e-299 0)
(-4.5084e-299 -2.33801e-299 0)
(-2.65542e-299 -1.27054e-299 0)
(-1.7035e-298 -5.54345e-298 0)
(-1.46349e-298 -8.91353e-298 0)
(-1.25923e-298 -1.04128e-297 0)
(-1.29395e-298 -1.14068e-297 0)
(-1.57709e-298 -1.20935e-297 0)
(-2.088e-298 -1.25401e-297 0)
(-2.81598e-298 -1.27916e-297 0)
(-3.74139e-298 -1.28798e-297 0)
(-4.80173e-298 -1.28195e-297 0)
(-5.84941e-298 -1.25957e-297 0)
(-6.62228e-298 -1.21308e-297 0)
(-6.77847e-298 -1.11604e-297 0)
(-6.28818e-298 -9.18295e-298 0)
(-5.39539e-298 -6.88767e-298 0)
(-4.34288e-298 -4.87771e-298 0)
(-3.33142e-298 -3.33147e-298 0)
(-2.46487e-298 -2.21719e-298 0)
(-1.77128e-298 -1.44443e-298 0)
(-1.24036e-298 -9.22689e-299 0)
(-8.46677e-299 -5.77844e-299 0)
(-5.61438e-299 -3.53713e-299 0)
(-3.57628e-299 -2.09228e-299 0)
(-2.11825e-299 -1.14863e-299 0)
(-1.47539e-298 -2.73148e-298 0)
(-1.48785e-298 -5.05395e-298 0)
(-1.3753e-298 -6.25424e-298 0)
(-1.31684e-298 -7.0113e-298 0)
(-1.38193e-298 -7.50099e-298 0)
(-1.57957e-298 -7.80038e-298 0)
(-1.90526e-298 -7.95621e-298 0)
(-2.34054e-298 -7.99997e-298 0)
(-2.84199e-298 -7.94831e-298 0)
(-3.33e-298 -7.79441e-298 0)
(-3.69068e-298 -7.48692e-298 0)
(-3.81013e-298 -6.89765e-298 0)
(-3.66212e-298 -5.88193e-298 0)
(-3.2856e-298 -4.64946e-298 0)
(-2.7697e-298 -3.46673e-298 0)
(-2.21691e-298 -2.47457e-298 0)
(-1.70081e-298 -1.70727e-298 0)
(-1.25907e-298 -1.14502e-298 0)
(-9.02899e-299 -7.48848e-299 0)
(-6.27946e-299 -4.78074e-299 0)
(-4.22398e-299 -2.9728e-299 0)
(-2.71856e-299 -1.78076e-299 0)
(-1.61944e-299 -9.86411e-300 0)
(-9.61104e-299 -1.37926e-298 0)
(-1.0863e-298 -2.87046e-298 0)
(-1.07598e-298 -3.76379e-298 0)
(-1.04528e-298 -4.34971e-298 0)
(-1.0589e-298 -4.72931e-298 0)
(-1.1371e-298 -4.9601e-298 0)
(-1.28368e-298 -5.08095e-298 0)
(-1.48961e-298 -5.11858e-298 0)
(-1.73109e-298 -5.08723e-298 0)
(-1.96818e-298 -4.98329e-298 0)
(-2.1497e-298 -4.77651e-298 0)
(-2.22809e-298 -4.40763e-298 0)
(-2.18068e-298 -3.83239e-298 0)
(-2.00975e-298 -3.12851e-298 0)
(-1.74804e-298 -2.41691e-298 0)
(-1.44373e-298 -1.78377e-298 0)
(-1.13989e-298 -1.26733e-298 0)
(-8.65147e-299 -8.71511e-299 0)
(-6.33516e-299 -5.82104e-299 0)
(-4.48166e-299 -3.78222e-299 0)
(-3.05545e-299 -2.38635e-299 0)
(-1.98602e-299 -1.44604e-299 0)
(-1.18936e-299 -8.07042e-300 0)
(-5.75227e-299 -7.12181e-299 0)
(-7.06588e-299 -1.63015e-298 0)
(-7.40294e-299 -2.25184e-298 0)
(-7.40055e-299 -2.68708e-298 0)
(-7.48042e-299 -2.98015e-298 0)
(-7.82161e-299 -3.16406e-298 0)
(-8.49042e-299 -3.26526e-298 0)
(-9.46396e-299 -3.30326e-298 0)
(-1.06322e-298 -3.28879e-298 0)
(-1.18053e-298 -3.22067e-298 0)
(-1.27443e-298 -3.08309e-298 0)
(-1.32189e-298 -2.84986e-298 0)
(-1.30726e-298 -2.50761e-298 0)
(-1.22624e-298 -2.09014e-298 0)
(-1.09039e-298 -1.65536e-298 0)
(-9.21995e-299 -1.25282e-298 0)