/*--------------------------------*- C++ -*----------------------------------*\
| =========                 |                                                 |
| \\      /  F ield         | OpenFOAM: The Open Source CFD Toolbox           |
|  \\    /   O peration     | Version:  2406                                  |
|   \\  /    A nd           | Website:  www.openfoam.com                      |
|    \\/     M anipulation  |                                                 |
\*---------------------------------------------------------------------------*/
FoamFile
{
    version     2.0;
    format      ascii;
    arch        "LSB;label=32;scalar=64";
    class       surfaceScalarField;
    location    "8";
    object      alphaPhi0.grout;
}
// * * * * * * * * * * * * * * * * * * * * * * * * * * * * * * * * * * * * * //

dimensions      [0 3 -1 0 0 0 0];

oriented        oriented;

internalField   nonuniform List<scalar> 
19800
(
3.05105e-14
-6.28715e-14
-2.5203e-14
-1.11202e-13
-5.07911e-14
-1.01116e-13
-5.55634e-14
-9.06465e-14
-7.65992e-14
-8.4417e-14
-9.61854e-14
-7.12869e-14
-1.01235e-13
-5.66756e-14
-1.07751e-13
-5.51225e-14
-1.32646e-13
-5.99522e-14
-1.53578e-13
-5.64573e-14
-1.62782e-13
-5.00602e-14
-1.64188e-13
-5.27634e-14
-1.6412e-13
-6.5602e-14
-1.61959e-13
-8.07088e-14
-1.54241e-13
-9.28444e-14
-1.44174e-13
-1.03802e-13
-1.39112e-13
-1.16455e-13
-1.42786e-13
-1.30047e-13
-1.55255e-13
-1.39469e-13
-1.68149e-13
-1.40501e-13
-1.72936e-13
-1.34814e-13
-1.70634e-13
-1.25665e-13
-1.62645e-13
-1.14206e-13
-1.49244e-13
-1.02836e-13
-1.35862e-13
-9.4628e-14
-1.2884e-13
-8.87415e-14
-1.27718e-13
-8.17201e-14
-1.27619e-13
-7.27111e-14
-1.26119e-13
-6.40497e-14
-1.24033e-13
-5.77386e-14
-1.22243e-13
-5.38256e-14
-1.20808e-13
-5.18094e-14
-1.20067e-13
-5.1832e-14
-1.21111e-13
-5.40952e-14
-1.25288e-13
-5.76982e-14
-1.33449e-13
-6.05764e-14
-1.4557e-13
-6.08571e-14
-1.61037e-13
-5.83472e-14
-1.79093e-13
-5.46295e-14
-1.98822e-13
-5.17547e-14
-2.18881e-13
-5.0868e-14
-2.37607e-13
-5.18081e-14
-2.53458e-13
-5.35905e-14
-2.65352e-13
-5.51661e-14
-2.72736e-13
-5.6e-14
-2.75565e-13
-5.62474e-14
-2.74214e-13
-5.64821e-14
-2.69234e-13
-5.71906e-14
-2.60986e-13
-5.84e-14
-2.49423e-13
-5.96579e-14
-2.34152e-13
-6.02598e-14
-2.14669e-13
-5.94853e-14
-1.90549e-13
-5.67247e-14
-1.61498e-13
-5.15525e-14
-1.27365e-13
-4.38329e-14
-8.82349e-14
-3.38389e-14
-4.4599e-14
-2.2279e-14
2.53325e-15
-1.01434e-14
5.17131e-14
1.61821e-15
1.01342e-13
1.24645e-14
1.5003e-13
2.24962e-14
1.96825e-13
3.24097e-14
2.41189e-13
4.31398e-14
2.82798e-13
5.53239e-14
3.21374e-13
6.88325e-14
3.56722e-13
8.26111e-14
3.88938e-13
9.49102e-14
4.18531e-13
1.03779e-13
4.46181e-13
1.07539e-13
4.72101e-13
1.05039e-13
4.9533e-13
9.56344e-14
5.13505e-13
7.91265e-14
5.23415e-13
5.58017e-14
5.22161e-13
2.66616e-14
5.08309e-13
-6.41267e-15
4.82358e-13
-4.07603e-14
4.4636e-13
-7.34482e-14
4.03063e-13
-1.01888e-13
3.55256e-13
-1.24311e-13
3.05655e-13
-1.39792e-13
2.57084e-13
-1.48063e-13
2.12354e-13
-1.49296e-13
1.73435e-13
-1.44247e-13
1.40294e-13
-1.34471e-13
1.10362e-13
-1.22427e-13
7.95638e-14
-1.10917e-13
4.48547e-14
-1.02206e-13
6.9169e-15
-9.72248e-14
-2.90524e-14
-9.55667e-14
-5.54737e-14
-9.61756e-14
-6.68816e-14
-9.84244e-14
-6.4504e-14
-1.02467e-13
-5.66417e-14
-1.08647e-13
-5.04739e-14
-1.18461e-13
-4.51497e-14
-1.34313e-13
-4.78366e-14
-1.44399e-13
-4.67112e-14
-1.34199e-13
-1.27511e-14
-1.33634e-13
-2.52593e-14
-1.18649e-13
-4.29187e-14
2.58956e-14
-5.61856e-14
-2.27839e-14
-1.32432e-13
-8.04291e-14
-1.5116e-13
-9.99299e-14
-1.53819e-13
-1.29937e-13
-1.50625e-13
-1.63524e-13
-1.55191e-13
-1.90973e-13
-1.64472e-13
-2.13766e-13
-1.69741e-13
-2.49866e-13
-1.72044e-13
-2.87407e-13
-1.68049e-13
-3.17451e-13
-1.60277e-13
-3.33149e-13
-1.54678e-13
-3.35525e-13
-1.53481e-13
-3.27797e-13
-1.56363e-13
-3.1306e-13
-1.63189e-13
-2.97831e-13
-1.74958e-13
-2.90799e-13
-1.90624e-13
-2.94359e-13
-2.05882e-13
-3.08591e-13
-2.16234e-13
-3.25338e-13
-2.19175e-13
-3.31611e-13
-2.15388e-13
-3.25371e-13
-2.08967e-13
-3.10362e-13
-2.0394e-13
-2.88927e-13
-2.0218e-13
-2.66542e-13
-2.03646e-13
-2.5139e-13
-2.06249e-13
-2.45933e-13
-2.06608e-13
-2.45339e-13
-2.02147e-13
-2.44507e-13
-1.92501e-13
-2.422e-13
-1.79264e-13
-2.3935e-13
-1.64996e-13
-2.36972e-13
-1.52226e-13
-2.35835e-13
-1.42559e-13
-2.36724e-13
-1.36135e-13
-2.40891e-13
-1.31822e-13
-2.50329e-13
-1.28e-13
-2.67183e-13
-1.2344e-13
-2.9258e-13
-1.17907e-13
-3.25751e-13
-1.12179e-13
-3.6395e-13
-1.07376e-13
-4.03148e-13
-1.0399e-13
-4.39234e-13
-1.01361e-13
-4.69123e-13
-9.80147e-14
-4.91176e-13
-9.2594e-14
-5.04931e-13
-8.4725e-14
-5.10588e-13
-7.52929e-14
-5.08609e-13
-6.60663e-14
-4.99431e-13
-5.8983e-14
-4.83216e-13
-5.549e-14
-4.59714e-13
-5.61552e-14
-4.28346e-13
-6.05545e-14
-3.88459e-13
-6.73598e-14
-3.39564e-13
-7.46003e-14
-2.81462e-13
-8.01103e-14
-2.14294e-13
-8.21136e-14
-1.38633e-13
-7.97672e-14
-5.56334e-14
-7.34208e-14
3.29324e-14
-6.4422e-14
1.24857e-13
-5.45017e-14
2.17884e-13
-4.49964e-14
3.10068e-13
-3.6272e-14
3.9985e-13
-2.7646e-14
4.85815e-13
-1.78576e-14
5.66397e-13
-5.85878e-15
6.3991e-13
8.49139e-15
7.05061e-13
2.4185e-14
7.61645e-13
3.93818e-14
8.10803e-13
5.20426e-14
8.54355e-13
6.04841e-14
8.93359e-13
6.35381e-14
9.26723e-13
6.03592e-14
9.50871e-13
5.01711e-14
9.60872e-13
3.23284e-14
9.52496e-13
6.72206e-15
9.23976e-13
-2.57137e-14
8.76503e-13
-6.28753e-14
8.13401e-13
-1.01873e-13
7.38834e-13
-1.39803e-13
6.57053e-13
-1.7435e-13
5.72457e-13
-2.04008e-13
4.89795e-13
-2.2782e-13
4.13516e-13
-2.45151e-13
3.46052e-13
-2.5565e-13
2.86025e-13
-2.59623e-13
2.28136e-13
-2.58239e-13
1.65655e-13
-2.53379e-13
9.48915e-14
-2.46918e-13
1.90564e-14
-2.4016e-13
-5.13504e-14
-2.33498e-13
-1.03005e-13
-2.2659e-13
-1.26989e-13
-2.19484e-13
-1.25739e-13
-2.14675e-13
-1.14619e-13
-2.16376e-13
-1.08178e-13
-2.26067e-13
-9.30325e-14
-2.431e-13
-7.171e-14
-2.63196e-13
-8.31987e-14
-2.67444e-13
-2.94719e-14
-2.59566e-13
-8.19576e-15
-2.55315e-13
-1.16068e-13
8.26823e-15
-1.11047e-13
-3.34894e-14
-2.14312e-13
-1.02655e-13
-2.26797e-13
-1.24511e-13
-2.25791e-13
-1.66638e-13
-2.24339e-13
-2.0844e-13
-2.23516e-13
-2.34478e-13
-2.31509e-13
-2.57737e-13
-2.45836e-13
-2.92682e-13
-2.5878e-13
-3.31746e-13
-2.60811e-13
-3.66765e-13
-2.53707e-13
-3.87449e-13
-2.46418e-13
-3.93887e-13
-2.46057e-13
-3.89907e-13
-2.53326e-13
-3.7951e-13
-2.65346e-13
-3.6759e-13
-2.79824e-13
-3.60934e-13
-2.95305e-13
-3.62764e-13
-3.07722e-13
-3.74597e-13
-3.12303e-13
-3.89429e-13
-3.0862e-13
-3.95734e-13
-2.9913e-13
-3.90829e-13
-2.8694e-13
-3.76645e-13
-2.75951e-13
-3.54196e-13
-2.7041e-13
-3.28109e-13
-2.71785e-13
-3.06584e-13
-2.77013e-13
-2.93109e-13
-2.81267e-13
-2.84264e-13
-2.81699e-13
-2.76257e-13
-2.78227e-13
-2.68875e-13
-2.72171e-13
-2.6344e-13
-2.64988e-13
-2.60434e-13
-2.57808e-13
-2.5947e-13
-2.51295e-13
-2.60346e-13
-2.45538e-13
-2.64077e-13
-2.4001e-13
-2.7323e-13
-2.3381e-13
-2.90999e-13
-2.26226e-13
-3.19405e-13
-2.17287e-13
-3.57766e-13
-2.07816e-13
-4.02364e-13
-1.98876e-13
-4.47614e-13
-1.90967e-13
-4.88162e-13
-1.83548e-13
-5.20648e-13
-1.75243e-13
-5.44122e-13
-1.64661e-13
-5.59221e-13
-1.51343e-13
-5.67015e-13
-1.36239e-13
-5.68227e-13
-1.21425e-13
-5.62926e-13
-1.09253e-13
-5.50445e-13
-1.01426e-13
-5.29464e-13
-9.84048e-14
-4.98301e-13
-9.92808e-14
-4.55409e-13
-1.02038e-13
-3.99859e-13
-1.04095e-13
-3.31625e-13
-1.0301e-13
-2.51609e-13
-9.72025e-14
-1.61487e-13
-8.64305e-14
-6.34562e-14
-7.18304e-14
4.01002e-14
-5.5431e-14
1.4697e-13
-3.93212e-14
2.5537e-13
-2.48267e-14
3.6392e-13
-1.20773e-14
4.71244e-13
-1.8017e-16
5.75423e-13
1.20757e-14
6.73742e-13
2.53417e-14
7.63124e-13
3.9114e-14
8.41186e-13
5.17347e-14
9.0733e-13
6.09575e-14
9.62967e-13
6.47269e-14
1.01046e-12
6.17043e-14
1.05118e-12
5.13076e-14
1.08393e-12
3.33794e-14
1.10474e-12
7.8962e-15
1.10855e-12
-2.49737e-14
1.09149e-12
-6.44414e-14
1.05266e-12
-1.08687e-13
9.94216e-13
-1.54837e-13
9.20118e-13
-1.99527e-13
8.34785e-13
-2.39763e-13
7.42573e-13
-2.73695e-13
6.48166e-13
-3.00888e-13
5.56819e-13
-3.22103e-13
4.73363e-13
-3.38685e-13
3.99997e-13
-3.51987e-13
3.34342e-13
-3.62914e-13
2.69712e-13
-3.71872e-13
1.98408e-13
-3.78821e-13
1.16706e-13
-3.83503e-13
2.90451e-14
-3.85637e-13
-5.18852e-14
-3.8524e-13
-1.10932e-13
-3.82436e-13
-1.39831e-13
-3.77619e-13
-1.42865e-13
-3.73256e-13
-1.35706e-13
-3.74313e-13
-1.35468e-13
-3.80349e-13
-1.27514e-13
-3.8438e-13
-9.99215e-14
-3.92187e-13
-1.05653e-13
-3.94879e-13
-7.64616e-14
-3.68191e-13
1.86963e-14
-3.46179e-13
-1.97998e-13
-7.30248e-16
-1.43996e-13
-2.78448e-14
-2.99779e-13
-1.11339e-13
-3.40157e-13
-1.3936e-13
-3.43425e-13
-1.83098e-13
-3.43366e-13
-2.34393e-13
-3.43195e-13
-2.65307e-13
-3.45173e-13
-2.87569e-13
-3.49942e-13
-3.14218e-13
-3.52086e-13
-3.46116e-13
-3.42901e-13
-3.80818e-13
-3.25796e-13
-4.07437e-13
-3.09388e-13
-4.21318e-13
-3.01347e-13
-4.22874e-13
-3.03265e-13
-4.15714e-13
-3.11957e-13
-4.05131e-13
-3.23188e-13
-3.95793e-13
-3.35052e-13
-3.90831e-13
-3.45546e-13
-3.9583e-13
-3.50661e-13
-4.05779e-13
-3.49304e-13
-4.09456e-13
-3.44491e-13
-4.05e-13
-3.39692e-13
-3.94431e-13
-3.37168e-13
-3.76049e-13
-3.39331e-13
-3.50688e-13
-3.47543e-13
-3.2535e-13
-3.59593e-13
-3.05299e-13
-3.70973e-13
-2.89498e-13
-3.78427e-13
-2.75621e-13
-3.81526e-13
-2.63981e-13
-3.81799e-13
-2.55866e-13
-3.81179e-13
-2.51424e-13
-3.80678e-13
-2.49776e-13
-3.79794e-13
-2.50186e-13
-3.77023e-13
-2.53327e-13
-3.70975e-13
-2.6187e-13
-3.60976e-13
-2.79552e-13
-3.46875e-13
-3.08963e-13
-3.28705e-13
-3.49466e-13
-3.06749e-13
-3.9664e-13
-2.81799e-13
-4.43763e-13
-2.55149e-13
-4.84594e-13
-2.282e-13
-5.15754e-13
-2.02039e-13
-5.37271e-13
-1.77376e-13
-5.51286e-13
-1.54859e-13
-5.60134e-13
-1.35413e-13
-5.64993e-13
-1.20201e-13
-5.65446e-13
-1.10146e-13
-5.59659e-13
-1.05304e-13
-5.44881e-13
-1.045e-13
-5.18147e-13
-1.05426e-13
-4.77089e-13
-1.05177e-13
-4.20637e-13
-1.01007e-13
-3.49329e-13
-9.10885e-14
-2.65122e-13
-7.50448e-14
-1.70814e-13
-5.40999e-14
-6.93122e-14
-3.07568e-14
3.70035e-14
-8.05661e-15
1.46613e-13
1.1361e-14
2.58744e-13
2.60518e-14
3.72779e-13
3.60851e-14
4.87396e-13
4.27322e-14
5.99869e-13
4.76599e-14
7.06106e-13
5.20157e-14
8.01647e-13
5.58597e-14
8.83279e-13
5.8201e-14
9.50347e-13
5.75437e-14
1.00479e-12
5.25442e-14
1.04961e-12
4.23635e-14
1.08659e-12
2.65576e-14
1.11468e-12
4.74462e-15
1.1301e-12
-2.35557e-14
1.1283e-12
-5.86386e-14
1.10633e-12
-1.00044e-13
1.06425e-12
-1.46102e-13
1.00475e-12
-1.94024e-13
9.31606e-13
-2.40559e-13
8.48348e-13
-2.82958e-13
7.58175e-13
-3.19685e-13
6.64806e-13
-3.50649e-13
5.73042e-13
-3.76828e-13
4.87829e-13
-3.99648e-13
4.11834e-13
-4.20273e-13
3.43178e-13
-4.3916e-13
2.75507e-13
-4.55868e-13
2.0125e-13
-4.69379e-13
1.16702e-13
-4.78523e-13
2.62689e-14
-4.82504e-13
-5.67524e-14
-4.81462e-13
-1.1617e-13
-4.77338e-13
-1.44266e-13
-4.73994e-13
-1.48114e-13
-4.77044e-13
-1.41095e-13
-4.9278e-13
-1.38728e-13
-5.19098e-13
-1.44053e-13
-5.3518e-13
-1.2953e-13
-5.3762e-13
-1.22553e-13
-5.30025e-13
-1.30273e-13
-4.8265e-13
-1.3267e-16
-4.22241e-13
-2.58545e-13
-2.36933e-14
-1.8955e-13
-3.42915e-14
-3.82026e-13
-1.16748e-13
-4.38352e-13
-1.46324e-13
-4.50046e-13
-1.89304e-13
-4.54177e-13
-2.41573e-13
-4.57311e-13
-2.75705e-13
-4.55512e-13
-2.96716e-13
-4.52908e-13
-3.14971e-13
-4.48101e-13
-3.41825e-13
-4.33425e-13
-3.78727e-13
-4.11222e-13
-4.14378e-13
-3.89075e-13
-4.38862e-13
-3.74688e-13
-4.47923e-13
-3.69738e-13
-4.43524e-13
-3.71328e-13
-4.32823e-13
-3.75234e-13
-4.20676e-13
-3.79599e-13
-4.08703e-13
-3.84149e-13
-4.05453e-13
-3.87337e-13
-4.09634e-13
-3.88175e-13
-4.10484e-13
-3.88063e-13
-4.05306e-13
-3.89174e-13
-3.96371e-13
-3.92661e-13
-3.80944e-13
-3.99961e-13
-3.56725e-13
-4.12467e-13
-3.28874e-13
-4.29046e-13
-3.03887e-13
-4.46168e-13
-2.83269e-13
-4.60798e-13
-2.6649e-13
-4.72145e-13
-2.54229e-13
-4.8114e-13
-2.46842e-13
-4.89096e-13
-2.42974e-13
-4.96517e-13
-2.40761e-13
-5.02389e-13
-2.39501e-13
-5.04551e-13
-2.40409e-13
-5.00997e-13
-2.46511e-13
-4.90858e-13
-2.61628e-13
-4.74152e-13
-2.8854e-13
-4.5089e-13
-3.27045e-13
-4.20808e-13
-3.73119e-13
-3.84093e-13
-4.20063e-13
-3.42281e-13
-4.61299e-13
-2.98372e-13
-4.93125e-13
-2.55982e-13
-5.1562e-13
-2.182e-13
-5.31355e-13
-1.86924e-13
-5.43091e-13
-1.62834e-13
-5.5198e-13
-1.45687e-13
-5.56958e-13
-1.34511e-13
-5.55144e-13
-1.27629e-13
-5.42773e-13
-1.22697e-13
-5.16314e-13
-1.1696e-13
-4.7351e-13
-1.07755e-13
-4.14068e-13
-9.31258e-14
-3.3974e-13
-7.23425e-14
-2.53763e-13
-4.61827e-14
-1.5984e-13
-1.68593e-14
-6.10491e-14
1.24279e-14
4.09134e-14
3.82485e-14
1.45865e-13
5.78109e-14
2.54532e-13
6.96517e-14
3.67357e-13
7.38721e-14
4.83189e-13
7.18062e-14
5.98536e-13
6.52755e-14
7.07956e-13
5.57968e-14
8.05672e-13
4.41373e-14
8.87694e-13
3.03918e-14
9.5328e-13
1.44164e-14
1.00472e-12
-3.76799e-15
1.0454e-12
-2.39372e-14
1.07734e-12
-4.5996e-14
1.09962e-12
-7.0368e-14
1.10892e-12
-9.80286e-14
1.1016e-12
-1.3004e-13
1.07597e-12
-1.66811e-13
1.03317e-12
-2.07569e-13
9.7628e-13
-2.50374e-13
9.08507e-13
-2.92744e-13
8.32093e-13
-3.32526e-13
7.48693e-13
-3.68659e-13
6.60739e-13
-4.01443e-13
5.7234e-13
-4.32285e-13
4.88418e-13
-4.62949e-13
4.12186e-13
-4.94665e-13
3.42579e-13
-5.27236e-13
2.73931e-13
-5.58679e-13
1.99016e-13
-5.85696e-13
1.14076e-13
-6.04974e-13
2.30244e-14
-6.14178e-13
-6.17787e-14
-6.12693e-13
-1.2433e-13
-6.03014e-13
-1.56426e-13
-5.92218e-13
-1.65627e-13
-5.89675e-13
-1.61923e-13
-6.03281e-13
-1.48106e-13
-6.3739e-13
-1.49654e-13
-6.74611e-13
-1.4995e-13
-6.95256e-13
-1.28287e-13
-6.86743e-13
-1.64315e-13
-6.32259e-13
-5.30499e-14
-5.29544e-13
-3.0996e-13
-4.66967e-14
-2.36423e-13
-4.2403e-14
-4.59471e-13
-1.21446e-13
-5.2608e-13
-1.49948e-13
-5.38668e-13
-1.90747e-13
-5.45828e-13
-2.38248e-13
-5.52388e-13
-2.72337e-13
-5.49856e-13
-2.9366e-13
-5.40883e-13
-3.062e-13
-5.29237e-13
-3.30114e-13
-5.12284e-13
-3.70484e-13
-4.90497e-13
-4.16005e-13
-4.67088e-13
-4.51119e-13
-4.47463e-13
-4.67327e-13
-4.33376e-13
-4.64942e-13
-4.23471e-13
-4.53035e-13
-4.15672e-13
-4.38207e-13
-4.10219e-13
-4.2134e-13
-4.0823e-13
-4.11758e-13
-4.09224e-13
-4.10529e-13
-4.1207e-13
-4.07867e-13
-4.16803e-13
-4.00495e-13
-4.24076e-13
-3.91196e-13
-4.33925e-13
-3.77438e-13
-4.47161e-13
-3.54944e-13
-4.65406e-13
-3.26974e-13
-4.88425e-13
-3.00469e-13
-5.13286e-13
-2.78801e-13
-5.36494e-13
-2.62804e-13
-5.55966e-13
-2.53232e-13
-5.713e-13
-2.49318e-13
-5.83211e-13
-2.47942e-13
-5.92624e-13
-2.4594e-13
-5.99508e-13
-2.42608e-13
-6.02421e-13
-2.40075e-13
-5.99431e-13
-2.42047e-13
-5.89395e-13
-2.52279e-13
-5.72127e-13
-2.73335e-13
-5.47483e-13
-3.05529e-13
-5.14786e-13
-3.46181e-13
-4.73528e-13
-3.89985e-13
-4.2477e-13
-4.30941e-13
-3.71816e-13
-4.64875e-13
-3.19413e-13
-4.90796e-13
-2.72003e-13
-5.10224e-13
-2.3221e-13
-5.25181e-13
-2.00374e-13
-5.36308e-13
-1.75062e-13
-5.42095e-13
-1.5398e-13
-5.39272e-13
-1.34714e-13
-5.23939e-13
-1.15144e-13
-4.92883e-13
-9.36065e-14
-4.44697e-13
-6.90004e-14
-3.80333e-13
-4.08992e-14
-3.02921e-13
-9.68605e-15
-2.16851e-13
2.33605e-14
-1.26414e-13
5.61149e-14
-3.44834e-14
8.5866e-14
5.82695e-14
1.09803e-13
1.53257e-13
1.25622e-13
2.52885e-13
1.32043e-13
3.58809e-13
1.29009e-13
4.70251e-13
1.17475e-13
5.83234e-13
9.89006e-14
6.91348e-13
7.47418e-14
7.87879e-13
4.62363e-14
8.68332e-13
1.45439e-14
9.31898e-13
-1.89645e-14
9.80972e-13
-5.26277e-14
1.01891e-12
-8.48264e-14
1.04749e-12
-1.146e-13
1.06563e-12
-1.42132e-13
1.0703e-12
-1.68709e-13
1.05879e-12
-1.9609e-13
1.03071e-12
-2.25603e-13
9.88338e-13
-2.57495e-13
9.35169e-13
-2.90899e-13
8.73877e-13
-3.24419e-13
8.05364e-13
-3.57012e-13
7.29571e-13
-3.88687e-13
6.47437e-13
-4.20703e-13
5.62235e-13
-4.55092e-13
4.78995e-13
-4.93763e-13
4.01968e-13
-5.37469e-13
3.31695e-13
-5.85103e-13
2.63861e-13
-6.33475e-13
1.91597e-13
-6.78003e-13
1.1067e-13
-7.14042e-13
2.39437e-14
-7.38013e-13
-5.82378e-14
-7.47599e-13
-1.22567e-13
-7.43404e-13
-1.60631e-13
-7.3248e-13
-1.77614e-13
-7.26535e-13
-1.85412e-13
-7.31318e-13
-1.71985e-13
-7.52171e-13
-1.67118e-13
-7.91926e-13
-1.63138e-13
-8.31316e-13
-1.30014e-13
-8.30878e-13
-1.71489e-13
-7.74146e-13
-9.52529e-14
-6.37656e-13
-3.51434e-13
-5.98801e-14
-2.86342e-13
-4.46549e-14
-5.38307e-13
-1.19518e-13
-6.19517e-13
-1.51056e-13
-6.35239e-13
-1.9268e-13
-6.43904e-13
-2.32662e-13
-6.50165e-13
-2.6255e-13
-6.46703e-13
-2.83757e-13
-6.35848e-13
-2.94768e-13
-6.21428e-13
-3.18273e-13
-6.04702e-13
-3.60872e-13
-5.85274e-13
-4.12786e-13
-5.62348e-13
-4.54769e-13
-5.38869e-13
-4.75464e-13
-5.17188e-13
-4.74418e-13
-4.98005e-13
-4.62636e-13
-4.81059e-13
-4.4774e-13
-4.68228e-13
-4.29618e-13
-4.61584e-13
-4.17258e-13
-4.60593e-13
-4.12848e-13
-4.63067e-13
-4.07478e-13
-4.68081e-13
-3.97794e-13
-4.76128e-13
-3.87699e-13
-4.87349e-13
-3.75711e-13
-5.02421e-13
-3.56248e-13
-5.229e-13
-3.3039e-13
-5.48791e-13
-3.04503e-13
-5.77298e-13
-2.82942e-13
-6.04596e-13
-2.67734e-13
-6.27848e-13
-2.603e-13
-6.45753e-13
-2.59627e-13
-6.58546e-13
-2.61279e-13
-6.67703e-13
-2.60467e-13
-6.74622e-13
-2.55818e-13
-6.79101e-13
-2.50004e-13
-6.79292e-13
-2.47452e-13
-6.73129e-13
-2.51879e-13
-6.59434e-13
-2.65412e-13
-6.37671e-13
-2.88674e-13
-6.07179e-13
-3.20598e-13
-5.67313e-13
-3.58083e-13
-5.18646e-13
-3.96536e-13
-4.63995e-13
-4.31537e-13
-4.0803e-13
-4.60444e-13
-3.55521e-13
-4.82709e-13
-3.09395e-13
-4.98816e-13
-2.69842e-13
-5.0879e-13
-2.34825e-13
-5.11281e-13
-2.01441e-13
-5.03625e-13
-1.67267e-13
-4.82706e-13
-1.31114e-13
-4.46162e-13
-9.30751e-14
-3.93462e-13
-5.41308e-14
-3.26442e-13
-1.5632e-14
-2.49035e-13
2.10628e-14
-1.66224e-13
5.47059e-14
-8.25065e-14
8.40951e-14
-4.22404e-16
1.07986e-13
8.02694e-14
1.25125e-13
1.62314e-13
1.3445e-13
2.49525e-13
1.3533e-13
3.44633e-13
1.27704e-13
4.47335e-13
1.11995e-13
5.53552e-13
8.88883e-14
6.56489e-13
5.91611e-14
7.49143e-13
2.37393e-14
8.26984e-13
-1.60436e-14
8.8931e-13
-5.82355e-14
9.38414e-13
-1.00398e-13
9.77134e-13
-1.40177e-13
1.0064e-12
-1.76084e-13
1.02443e-12
-2.08032e-13
1.0281e-12
-2.37274e-13
1.01538e-12
-2.65729e-13
9.87063e-13
-2.9505e-13
9.46496e-13
-3.25936e-13
8.97538e-13
-3.58043e-13
8.42285e-13
-3.90503e-13
7.80243e-13
-4.22764e-13
7.0971e-13
-4.5529e-13
6.30338e-13
-4.89739e-13
5.45027e-13
-5.28478e-13
4.5946e-13
-5.73532e-13
3.79395e-13
-6.25445e-13
3.07243e-13
-6.82526e-13
2.40179e-13
-7.40909e-13
1.71733e-13
-7.95317e-13
9.71597e-14
-8.40543e-13
1.8775e-14
-8.72665e-13
-5.47483e-14
-8.89129e-13
-1.14513e-13
-8.88928e-13
-1.54981e-13
-8.76918e-13
-1.74708e-13
-8.67128e-13
-1.89615e-13
-8.68464e-13
-1.91698e-13
-8.7522e-13
-1.96092e-13
-8.98165e-13
-1.76798e-13
-9.31635e-13
-1.2671e-13
-9.33521e-13
-1.56822e-13
-8.77672e-13
-1.13858e-13
-7.1721e-13
-3.77851e-13
-6.27864e-14
-3.21305e-13
-4.63933e-14
-5.99486e-13
-1.14182e-13
-6.93273e-13
-1.52315e-13
-7.12534e-13
-1.95353e-13
-7.21134e-13
-2.29624e-13
-7.21699e-13
-2.54688e-13
-7.10378e-13
-2.74092e-13
-6.94189e-13
-2.85004e-13
-6.77338e-13
-3.08755e-13
-6.62671e-13
-3.50862e-13
-6.47864e-13
-4.04492e-13
-6.27881e-13
-4.49353e-13
-6.02252e-13
-4.72641e-13
-5.74271e-13
-4.72992e-13
-5.48395e-13
-4.63303e-13
-5.27236e-13
-4.51355e-13
-5.13485e-13
-4.35012e-13
-5.08686e-13
-4.22004e-13
-5.11342e-13
-4.15716e-13
-5.17711e-13
-4.08759e-13
-5.25729e-13
-3.97971e-13
-5.35994e-13
-3.88202e-13
-5.49319e-13
-3.79053e-13
-5.66516e-13
-3.63812e-13
-5.8878e-13
-3.41225e-13
-6.15763e-13
-3.16623e-13
-6.44382e-13
-2.94942e-13
-6.70527e-13
-2.79315e-13
-6.91135e-13
-2.72327e-13
-7.0463e-13
-2.73753e-13
-7.11037e-13
-2.78649e-13
-7.12303e-13
-2.80364e-13
-7.114e-13
-2.75742e-13
-7.10126e-13
-2.67048e-13
-7.07762e-13
-2.5937e-13
-7.0194e-13
-2.56944e-13
-6.90467e-13
-2.61835e-13
-6.72133e-13
-2.74835e-13
-6.46227e-13
-2.96181e-13
-6.12061e-13
-3.24984e-13
-5.69466e-13
-3.5847e-13
-5.19778e-13
-3.92386e-13
-4.6607e-13
-4.22451e-13
-4.12056e-13
-4.45673e-13
-3.60384e-13
-4.60612e-13
-3.11541e-13
-4.66711e-13
-2.64062e-13
-4.63379e-13
-2.15797e-13
-4.49466e-13
-1.65375e-13
-4.23421e-13
-1.13065e-13
-3.84006e-13
-6.07565e-14
-3.31219e-13
-1.12132e-14
-2.6693e-13
3.28912e-14
-1.94842e-13
6.97257e-14
-1.19627e-13
9.85753e-14
-4.54494e-14
1.19651e-13
2.5563e-14
1.33651e-13
9.42278e-14
1.41332e-13
1.64025e-13
1.43268e-13
2.39522e-13
1.39786e-13
3.24012e-13
1.30994e-13
4.17443e-13
1.16801e-13
5.15747e-13
9.69512e-14
6.12132e-13
7.1186e-14
6.99795e-13
3.95615e-14
7.7461e-13
2.82568e-15
8.36189e-13
-3.74106e-14
8.86706e-13
-7.89285e-14
9.28261e-13
-1.19567e-13
9.60658e-13
-1.57997e-13
9.81111e-13
-1.94163e-13
9.86126e-13
-2.29135e-13
9.7412e-13
-2.64419e-13
9.46898e-13
-3.01118e-13
9.0879e-13
-3.39379e-13
8.64028e-13
-3.78434e-13
8.14147e-13
-4.17167e-13
7.57338e-13
-4.5493e-13
6.90302e-13
-4.9215e-13
6.11564e-13
-5.30432e-13
5.23899e-13
-5.72101e-13
4.3409e-13
-6.19332e-13
3.49793e-13
-6.73105e-13
2.75442e-13
-7.32476e-13
2.09646e-13
-7.94463e-13
1.46204e-13
-8.54539e-13
7.95639e-14
-9.07494e-13
1.1283e-14
-9.49054e-13
-5.03824e-14
-9.77187e-13
-1.00036e-13
-9.91586e-13
-1.39257e-13
-9.92729e-13
-1.62357e-13
-9.86713e-13
-1.74265e-13
-9.84076e-13
-1.89887e-13
-9.77018e-13
-2.14278e-13
-9.76417e-13
-1.85815e-13
-9.86362e-13
-1.19029e-13
-9.81641e-13
-1.25626e-13
-9.3016e-13
-1.10986e-13
-7.61621e-13
-3.89265e-13
-6.24802e-14
-3.38645e-13
-4.95764e-14
-6.37431e-13
-1.08039e-13
-7.4571e-13
-1.5395e-13
-7.74267e-13
-1.96161e-13
-7.87117e-13
-2.24214e-13
-7.88224e-13
-2.47007e-13
-7.741e-13
-2.65794e-13
-7.54836e-13
-2.78757e-13
-7.37337e-13
-3.0317e-13
-7.26059e-13
-3.41843e-13
-7.16499e-13
-3.91571e-13
-7.00441e-13
-4.35034e-13
-6.74401e-13
-4.60501e-13
-6.41692e-13
-4.64941e-13
-6.09498e-13
-4.61227e-13
-5.83255e-13
-4.55923e-13
-5.66611e-13
-4.44221e-13
-5.60662e-13
-4.31978e-13
-5.63433e-13
-4.24159e-13
-5.7069e-13
-4.15994e-13
-5.80157e-13
-4.04967e-13
-5.92815e-13
-3.96354e-13
-6.09799e-13
-3.9028e-13
-6.31303e-13
-3.78788e-13
-6.57207e-13
-3.58284e-13
-6.86042e-13
-3.33116e-13
-7.14192e-13
-3.08927e-13
-7.37688e-13
-2.9004e-13
-7.54129e-13
-2.80432e-13
-7.62495e-13
-2.81464e-13
-7.62702e-13
-2.88763e-13
-7.5642e-13
-2.94178e-13
-7.47279e-13
-2.91908e-13
-7.38905e-13
-2.82479e-13
-7.3244e-13
-2.70987e-13
-7.26123e-13
-2.625e-13
-7.1703e-13
-2.59576e-13
-7.02868e-13
-2.63133e-13
-6.82336e-13
-2.74024e-13
-6.54522e-13
-2.92872e-13
-6.18659e-13
-3.18615e-13
-5.74685e-13
-3.47723e-13
-5.23828e-13
-3.75089e-13
-4.68365e-13
-3.95901e-13
-4.10571e-13
-4.07127e-13
-3.51704e-13
-4.07836e-13
-2.91802e-13
-3.98461e-13
-2.30417e-13
-3.79706e-13
-1.67707e-13
-3.5181e-13
-1.05172e-13
-3.14552e-13
-4.55976e-14
-2.679e-13
7.69837e-15
-2.12841e-13
5.19173e-14
-1.51796e-13
8.5606e-14
-8.82222e-14
1.08935e-13
-2.54257e-14
1.23391e-13
3.49273e-14
1.31108e-13
9.38293e-14
1.34143e-13
1.54787e-13
1.33958e-13
2.22306e-13
1.31191e-13
2.99536e-13
1.25658e-13
3.86234e-13
1.1653e-13
4.7822e-13
1.02631e-13
5.68847e-13
8.28677e-14
6.51782e-13
5.67258e-14
7.2353e-13
2.46428e-14
7.84152e-13
-1.19612e-14
8.35718e-13
-5.11095e-14
8.79612e-13
-9.10073e-14
9.14575e-13
-1.30729e-13
9.36956e-13
-1.70472e-13
9.43015e-13
-2.11238e-13
9.31696e-13
-2.54126e-13
9.05764e-13
-2.99628e-13
8.70421e-13
-3.47315e-13
8.30124e-13
-3.9604e-13
7.85782e-13
-4.44523e-13
7.34254e-13
-4.91989e-13
6.70753e-13
-5.38513e-13
5.92696e-13
-5.84955e-13
5.02666e-13
-6.32629e-13
4.08323e-13
-6.82882e-13
3.19064e-13
-7.36621e-13
2.41235e-13
-7.93759e-13
1.75025e-13
-8.52866e-13
1.15095e-13
-9.10986e-13
5.54032e-14
-9.63496e-13
-4.13798e-15
-1.00479e-12
-5.61949e-14
-1.03108e-12
-9.44267e-14
-1.04351e-12
-1.23619e-13
-1.04692e-12
-1.4387e-13
-1.04602e-12
-1.44218e-13
-1.04734e-12
-1.63963e-13
-1.03956e-12
-2.06992e-13
-1.024e-12
-1.8379e-13
-1.00581e-12
-1.09743e-13
-9.86417e-13
-8.84655e-14
-9.38815e-13
-9.32646e-14
-7.76374e-13
-3.91258e-13
-6.61895e-14
-3.53084e-13
-5.95538e-14
-6.64887e-13
-1.0847e-13
-7.83543e-13
-1.60815e-13
-8.22323e-13
-2.01811e-13
-8.35687e-13
-2.21567e-13
-8.33487e-13
-2.41329e-13
-8.17951e-13
-2.60065e-13
-7.97547e-13
-2.7667e-13
-7.80214e-13
-3.01474e-13
-7.72397e-13
-3.34031e-13
-7.68753e-13
-3.74872e-13
-7.58893e-13
-4.12373e-13
-7.36749e-13
-4.38425e-13
-7.04847e-13
-4.48439e-13
-6.71346e-13
-4.53564e-13
-6.43132e-13
-4.57707e-13
-6.24389e-13
-4.53209e-13
-6.1616e-13
-4.43902e-13
-6.16889e-13
-4.36536e-13
-6.22894e-13
-4.29382e-13
-6.32411e-13
-4.20425e-13
-6.46884e-13
-4.14415e-13
-6.67417e-13
-4.11265e-13
-6.9315e-13
-4.0183e-13
-7.22455e-13
-3.80717e-13
-7.52871e-13
-3.51995e-13
-7.80582e-13
-3.22619e-13
-8.02112e-13
-2.98122e-13
-8.16078e-13
-2.83424e-13
-8.22255e-13
-2.81483e-13
-8.20132e-13
-2.89458e-13
-8.09858e-13
-2.98765e-13
-7.94026e-13
-3.00947e-13
-7.77056e-13
-2.936e-13
-7.6232e-13
-2.80579e-13
-7.50044e-13
-2.67446e-13
-7.37873e-13
-2.57667e-13
-7.22934e-13
-2.5259e-13
-7.03206e-13
-2.53298e-13
-6.77463e-13
-2.61166e-13
-6.44702e-13
-2.76446e-13
-6.04126e-13
-2.96758e-13
-5.55662e-13
-3.17251e-13
-5.00295e-13
-3.32462e-13
-4.39762e-13
-3.3853e-13
-3.75872e-13
-3.34342e-13
-3.10049e-13
-3.21136e-13
-2.43448e-13
-3.01066e-13
-1.77464e-13
-2.75718e-13
-1.14168e-13
-2.45416e-13
-5.62729e-14
-2.0959e-13
-6.56426e-15
-1.67792e-13
3.29229e-14
-1.20648e-13
6.15746e-14
-7.00303e-14
8.03931e-14
-1.82699e-14
9.16396e-14
3.32442e-14
9.8098e-14
8.52276e-14
1.02261e-13
1.406e-13
1.05706e-13
2.03191e-13
1.08801e-13
2.75555e-13
1.10744e-13
3.57069e-13
1.09876e-13
4.43533e-13
1.04201e-13
5.28697e-13
9.20135e-14
6.06954e-13
7.24705e-14
6.75565e-13
4.58898e-14
7.34974e-13
1.35916e-14
7.87018e-13
-2.26981e-14
8.32271e-13
-6.16186e-14
8.68495e-13
-1.02712e-13
8.91378e-13
-1.46432e-13
8.97205e-13
-1.9362e-13
8.85561e-13
-2.44786e-13
8.60145e-13
-2.99607e-13
8.26845e-13
-3.56933e-13
7.90218e-13
-4.15249e-13
7.50574e-13
-4.73284e-13
7.03774e-13
-5.30365e-13
6.43994e-13
-5.8634e-13
5.67926e-13
-6.41194e-13
4.77835e-13
-6.94778e-13
3.81648e-13
-7.46951e-13
2.89639e-13
-7.97933e-13
2.09466e-13
-8.48256e-13
1.42777e-13
-8.98108e-13
8.5881e-14
-9.46637e-13
3.38313e-14
-9.91419e-13
-1.47985e-14
-1.02842e-12
-5.67627e-14
-1.05299e-12
-8.80722e-14
-1.06287e-12
-1.10968e-13
-1.06185e-12
-1.28821e-13
-1.05721e-12
-1.15372e-13
-1.05585e-12
-1.26846e-13
-1.05091e-12
-1.74022e-13
-1.03364e-12
-1.65549e-13
-1.00004e-12
-9.90677e-14
-9.68431e-13
-5.56079e-14
-9.23488e-13
-6.89232e-14
-7.75399e-13
-3.91668e-13
-7.19757e-14
-3.62637e-13
-7.36422e-14
-6.74282e-13
-1.15707e-13
-7.94319e-13
-1.67985e-13
-8.36392e-13
-2.07093e-13
-8.47987e-13
-2.21391e-13
-8.37829e-13
-2.37675e-13
-8.17181e-13
-2.56242e-13
-7.94684e-13
-2.77975e-13
-7.77713e-13
-3.04062e-13
-7.72827e-13
-3.29865e-13
-7.74949e-13
-3.59117e-13
-7.7364e-13
-3.87435e-13
-7.61124e-13
-4.11839e-13
-7.38343e-13
-4.26778e-13
-7.12385e-13
-4.40934e-13
-6.89696e-13
-4.55025e-13
-6.73911e-13
-4.58882e-13
-6.66017e-13
-4.54381e-13
-6.65544e-13
-4.49923e-13
-6.70277e-13
-4.46632e-13
-6.79438e-13
-4.42378e-13
-6.94824e-13
-4.40357e-13
-7.17161e-13
-4.3976e-13
-7.44466e-13
-4.30662e-13
-7.7406e-13
-4.06614e-13
-8.03374e-13
-3.72172e-13
-8.29192e-13
-3.36189e-13
-8.4876e-13
-3.05248e-13
-8.6145e-13
-2.84145e-13
-8.67527e-13
-2.7654e-13
-8.65758e-13
-2.8167e-13
-8.54004e-13
-2.92263e-13
-8.32379e-13
-2.98519e-13
-8.04737e-13
-2.94882e-13
-7.76449e-13
-2.82654e-13
-7.50888e-13
-2.66813e-13
-7.27976e-13
-2.51581e-13
-7.05412e-13
-2.39075e-13
-6.80674e-13
-2.30672e-13
-6.51977e-13
-2.28029e-13
-6.18108e-13
-2.32192e-13
-5.78116e-13
-2.41954e-13
-5.31465e-13
-2.53448e-13
-4.78429e-13
-2.61623e-13
-4.20213e-13
-2.62593e-13
-3.58634e-13
-2.55257e-13
-2.95658e-13
-2.4125e-13
-2.33145e-13
-2.23435e-13
-1.72899e-13
-2.03997e-13
-1.16822e-13
-1.83269e-13
-6.69058e-14
-1.59846e-13
-2.49111e-14
-1.3176e-13
8.14353e-15
-9.78746e-14
3.242e-14
-5.86064e-14
4.93644e-14
-1.55114e-14
6.13748e-14
3.00018e-14
7.11387e-14
7.79876e-14
8.08771e-14
1.30357e-13
9.17439e-14
1.89903e-13
1.0354e-13
2.58382e-13
1.14789e-13
3.34826e-13
1.23151e-13
4.15241e-13
1.26058e-13
4.94092e-13
1.21436e-13
5.66738e-13
1.08274e-13
6.31245e-13
8.68e-14
6.88324e-13
5.81733e-14
7.39391e-13
2.38028e-14
7.84147e-13
-1.53507e-14
8.19506e-13
-5.90993e-14
8.40829e-13
-1.07792e-13
8.44748e-13
-1.61688e-13
8.31681e-13
-2.20342e-13
8.06142e-13
-2.82421e-13
7.74401e-13
-3.46072e-13
7.40784e-13
-4.09602e-13
7.04996e-13
-4.72006e-13
6.62273e-13
-5.32977e-13
6.06479e-13
-5.9241e-13
5.34215e-13
-6.49825e-13
4.47578e-13
-7.04234e-13
3.54055e-13
-7.54766e-13
2.63648e-13
-8.01693e-13
1.84336e-13
-8.46703e-13
1.187e-13
-8.91533e-13
6.44147e-14
-9.35903e-13
1.80828e-14
-9.76912e-13
-2.09474e-14
-1.0106e-12
-5.13437e-14
-1.03378e-12
-7.44021e-14
-1.04371e-12
-9.37531e-14
-1.04133e-12
-1.12524e-13
-1.03405e-12
-9.3164e-14
-1.02873e-12
-9.3727e-14
-1.02592e-12
-1.30496e-13
-1.01288e-12
-1.35814e-13
-9.78028e-13
-8.68575e-14
-9.43499e-13
-3.36113e-14
-9.01854e-13
-4.63159e-14
-7.70223e-13
-3.95341e-13
-7.03855e-14
-3.76184e-13
-8.30554e-14
-6.848e-13
-1.20316e-13
-8.05411e-13
-1.70405e-13
-8.44129e-13
-2.04165e-13
-8.50453e-13
-2.1721e-13
-8.338e-13
-2.32512e-13
-8.0827e-13
-2.52509e-13
-7.831e-13
-2.81075e-13
-7.65169e-13
-3.10734e-13
-7.60105e-13
-3.32306e-13
-7.63216e-13
-3.51084e-13
-7.65847e-13
-3.69852e-13
-7.60244e-13
-3.91096e-13
-7.46009e-13
-4.08921e-13
-7.28333e-13
-4.29637e-13
-7.12252e-13
-4.51323e-13
-7.00394e-13
-4.6239e-13
-6.93648e-13
-4.63092e-13
-6.9268e-13
-4.63027e-13
-6.96656e-13
-4.65456e-13
-7.05465e-13
-4.67329e-13
-7.20835e-13
-4.6953e-13
-7.42976e-13
-4.70548e-13
-7.69207e-13
-4.6047e-13
-7.96786e-13
-4.32454e-13
-8.24312e-13
-3.91752e-13
-8.50124e-13
-3.49215e-13
-8.72142e-13
-3.12206e-13
-8.89487e-13
-2.84237e-13
-9.01856e-13
-2.68268e-13
-9.06877e-13
-2.65563e-13
-8.99969e-13
-2.72034e-13
-8.7806e-13
-2.78989e-13
-8.4307e-13
-2.78823e-13
-8.01285e-13
-2.69511e-13
-7.59336e-13
-2.53858e-13
-7.20694e-13
-2.35798e-13
-6.85132e-13
-2.18118e-13
-6.50497e-13
-2.02786e-13
-6.14577e-13
-1.91793e-13
-5.75884e-13
-1.86682e-13
-5.33578e-13
-1.87163e-13
-4.87324e-13
-1.90475e-13
-4.37361e-13
-1.92445e-13
-3.84576e-13
-1.89638e-13
-3.30351e-13
-1.81099e-13
-2.76222e-13
-1.68543e-13
-2.23581e-13
-1.5495e-13
-1.73594e-13
-1.42524e-13
-1.27285e-13
-1.31259e-13
-8.56167e-14
-1.18901e-13
-4.94112e-14
-1.02201e-13