/*--------------------------------*- C++ -*----------------------------------*\
| =========                 |                                                 |
| \\      /  F ield         | OpenFOAM: The Open Source CFD Toolbox           |
|  \\    /   O peration     | Version:  2406                                  |
|   \\  /    A nd           | Website:  www.openfoam.com                      |
|    \\/     M anipulation  |                                                 |
\*---------------------------------------------------------------------------*/
FoamFile
{
    version     2.0;
    format      ascii;
    arch        "LSB;label=32;scalar=64";
    class       volScalarField;
    location    "8";
    object      p;
}
// * * * * * * * * * * * * * * * * * * * * * * * * * * * * * * * * * * * * * //

dimensions      [1 -1 -2 0 0 0 0];

internalField   nonuniform List<scalar> 
10000
(
1105
1090.79
1097.94
1108.72
1115.14
1126.19
1141.71
1155.43
1167.71
1185.9
1208.21
1230.79
1252.14
1273.23
1294.38
1313.99
1331.04
1346.62
1362.75
1381.83
1403.86
1426.51
1448.6
1469.34
1487.3
1502.44
1516.63
1531.31
1546.32
1560.99
1575.28
1589.43
1603.53
1617.61
1632
1647.34
1664.42
1683.86
1706.04
1731.16
1759.41
1790.82
1825.21
1862.12
1900.94
1940.92
1981.36
2021.63
2061.29
2100.03
2137.51
2173.34
2207
2237.87
2265.27
2288.39
2306.4
2318.47
2323.9
2322.27
2313.48
2297.69
2275.21
2246.39
2211.59
2171.12
2125.34
2074.58
2019.09
1959.01
1894.38
1825.41
1752.72
1677.61
1601.99
1528.05
1457.94
1393.36
1335.48
1285.03
1242.31
1207.19
1179.02
1156.68
1138.94
1125.03
1115.03
1109.87
1110.52
1117.02
1127.82
1139.98
1150.69
1159.24
1166.6
1173.11
1182.34
1193.44
1193.55
1204.26
982.959
971.662
971.788
980.705
985.978
992.902
1003.33
1016.14
1029.52
1046.64
1067.68
1091.88
1117.32
1142.4
1166.02
1187.25
1206.02
1223.67
1241.26
1260.31
1281.42
1302.72
1322.63
1340.76
1356.57
1369.91
1382.02
1394.57
1408.16
1422.48
1437.16
1452.02
1467.09
1482.46
1498.28
1514.71
1532.1
1551.07
1572.43
1596.91
1625
1656.76
1691.86
1729.69
1769.5
1810.52
1852
1893.26
1933.7
1972.81
2010.13
2045.19
2077.52
2106.62
2131.93
2152.82
2168.6
2178.56
2182.1
2178.8
2168.48
2151.18
2127.04
2096.31
2059.36
2016.7
1968.99
1916.92
1861.08
1801.78
1739.13
1673.25
1604.63
1534.3
1463.82
1394.94
1329.34
1268.31
1212.8
1163.44
1120.57
1084.15
1053.69
1028.34
1007.36
990.562
978.579
972.621
973.661
981.518
994.316
1008.64
1021.05
1031.18
1041.82
1049.88
1054.05
1066.88
1067.93
1069.25
847.112
840.571
841.501
852.62
858.19
867.321
880.687
893.856
906.782
922.854
942.659
965.75
989.933
1013.75
1036.68
1058.39
1078.65
1098
1117.03
1137.01
1158.43
1179.98
1200.59
1219.79
1236.78
1251.13
1263.77
1276.03
1288.35
1300.56
1312.73
1325.27
1338.55
1352.73
1367.79
1383.7
1400.66
1419.24
1440.27
1464.56
1492.56
1524.21
1558.96
1596.05
1634.73
1674.37
1714.49
1754.64
1794.46
1833.58
1871.6
1907.99
1942.07
1973.05
2000.1
2022.36
2039.07
2049.62
2053.56
2050.64
2040.74
2023.81
1999.84
1968.87
1931.17
1887.25
1837.9
1783.98
1726.21
1665.04
1600.69
1533.46
1464.06
1393.74
1324.17
1257.06
1193.89
1135.72
1083.27
1036.95
996.881
962.757
933.829
909.126
887.941
870.315
857.181
849.991
849.849
856.515
867.972
881.034
892.792
903.037
915.563
928.132
933.993
947.507
959.345
946.92
726.007
719.929
715.525
726.138
732.048
740.592
755.426
771.376
787.31
804.83
824.62
847.364
871.883
896.831
921.216
944.443
966.311
986.767
1005.72
1024.73
1044.66
1064.29
1082.98
1101.01
1117.85
1132.58
1145.48
1157.64
1169.56
1181.19
1192.65
1204.39
1216.86
1230.38
1244.99
1260.64
1277.46
1296.01
1317.2
1341.95
1370.66
1403.05
1438.24
1475.12
1512.8
1550.76
1588.8
1626.88
1664.97
1702.92
1740.36
1776.66
1810.94
1842.13
1869.19
1891.16
1907.32
1917.18
1920.42
1916.86
1906.35
1888.71
1863.82
1831.71
1792.74
1747.68
1697.57
1643.5
1586.29
1526.37
1463.89
1399.09
1332.61
1265.58
1199.48
1135.75
1075.55
1019.69
968.773
923.277
883.526
849.51
820.75
796.446
775.933
759.179
746.979
740.663
741.311
748.573
759.985
772.057
782.437
790.568
799.344
811.877
821.401
831.922
853.564
842.176
607.564
608.051
602.954
612.767
618.623
626.455
640.635
656.878
673.254
689.577
707.384
728.443
752.495
778.241
804.125
828.85
852.217
874.177
893.891
912.754
932.232
951.505
969.909
987.946
1005.36
1020.98
1034.54
1046.81
1058.41
1069.57
1080.7
1092.34
1104.82
1118.18
1132.36
1147.29
1163.11
1180.36
1199.94
1222.81
1249.54
1279.99
1313.31
1348.38
1384.32
1420.66
1457.36
1494.53
1532.19
1570.1
1607.66
1643.97
1677.89
1708.24
1733.96
1754.29
1768.76
1777.14
1779.33
1775.2
1764.49
1746.83
1721.86
1689.47
1650.05
1604.49
1554.06
1500.03
1443.35
1384.52
1323.75
1261.31
1197.85
1134.43
1072.28
1012.52
955.961
903.143
854.528
810.604
771.807
738.282
709.717
685.449
664.905
648.114
635.898
629.6
630.382
638.128
650.513
664.059
677.018
688.334
695.612
704.967
715.847
721.029
745.576
747.161
495.855
502.031
496.979
506.882
513.196
521.216
534.29
549.868
566.175
581.047
596.561
615.534
638.754
664.9
691.895
717.721
741.967
764.787
785.161
804.266
823.771
843.116
861.561
879.658
897.431
913.684
927.813
940.408
952.188
963.637
975.353
987.891
1001.35
1015.41
1029.74
1044.25
1059.15
1074.95
1092.44
1112.5
1135.85
1162.69
1192.58
1224.72
1258.35
1293.05
1328.74
1365.43
1402.97
1440.86
1478.22
1513.88
1546.52
1574.97
1598.33
1616.12
1628.22
1634.75
1635.83
1631.39
1621.08
1604.29
1580.39
1549.1
1510.7
1466.12
1416.67
1363.7
1308.2
1250.72
1191.55
1131.09
1070.09
1009.62
950.807
894.544
841.343
791.488
745.28
703.185
665.756
633.349
605.876
582.799
563.461
547.624
535.854
529.344
529.225
535.664
547.09
560.589
574.75
590.229
600.962
611.212
622.546
624.23
645.95
658.787
391.625
400.969
394.989
403.69
410.572
419.856
432.368
446.603
461.976
475.592
489.528
506.792
528.91
554.55
581.312
606.835
630.825
653.723
674.483
694.119
714.287
734.444
753.633
772.398
791.091
808.665
824.282
838.235
851.108
863.394
875.8
889.012
903.114
917.58
931.845
945.776
959.69
974.114
989.644
1006.96
1026.76
1049.55
1075.39
1103.92
1134.57
1166.91
1200.65
1235.59
1271.39
1307.38
1342.57
1375.72
1405.52
1430.88
1451.07
1465.85
1475.42
1480.14
1480.36
1476.08
1466.9
1452.04
1430.69
1402.33
1367.12
1325.82
1279.62
1229.71
1176.93
1121.73
1064.46
1005.67
946.306
887.572
830.614
776.217
724.755
676.411
631.497
590.624
554.566
523.905
498.698
478.407
462.183
449.439
440.393
435.989
437.011
443.334
454.034
467.357
480.88
496.309
510.68
527.017
540.314
540.285
556.451
574.895
297.157
307.201
301.346
308.275
315.752
326.335
338.997
352.586
366.984
379.52
392.311
408.04
428.773
453.342
479.177
503.566
526.501
548.825
569.449
589.068
609.272
629.648
649.128
668.252
687.688
706.574
723.866
739.537
753.959
767.515
780.94
795.122
810.328
825.94
841.068
855.308
868.914
882.433
896.378
911.252
927.703
946.475
968.134
992.821
1020.25
1049.91
1081.2
1113.58
1146.45
1179.1
1210.61
1239.92
1265.94
1287.74
1304.76
1316.92
1324.5
1328.02
1327.9
1324.18
1316.39
1303.69
1285.11
1260.06
1228.54
1191.22
1149.09
1103.1
1053.84
1001.64
946.818
890.065
832.516
775.555
720.402
667.806
618.047
571.239
527.73
488.31
454.023
425.698
403.481
386.703
374.176
364.857
358.585
356.16
358.19
363.977
372.675
384.833
398.583
411.982
426.7
448.464
464.568
464.172
473.114
492.568
208.239
218.144
212.8
217.14
224.706
235.188
246.448
258.792
271.939
283.682
295.952
310.592
329.7
352.555
377.098
400.569
423.155
445.894
467.473
487.971
508.704
529.456
549.247
568.704
588.802
608.842
627.543
644.513
659.885
673.9
687.279
701.17
716.252
732.104
747.629
762.04
775.361
788.123
800.853
813.954
827.941
843.578
861.68
882.74
906.703
933.011
960.84
989.347
1017.8
1045.56
1072.02
1096.49
1118.26
1136.67
1151.25
1161.9
1168.82
1172.39
1172.9
1170.29
1164
1153.08
1136.57
1113.87
1085.03
1050.67
1011.74
969.007
922.937
873.737
821.736
767.702
712.891
658.746
606.447
556.602
509.312
464.571
422.747
384.813
352.124
325.85
306.364
293.012
284.415
279.185
276.735
277.628
282.623
290.968
300.737
312.349
326.087
336.049
347.71
370.841
389.353
390.44
392.45
409.502
120.134
130.547
126.952
129.619
137.976
149.298
159.406
170.411
182.315
193.708
205.937
219.733
236.843
257.032
279.197
300.96
322.765
345.693
368.162
389.575
410.938
432.303
452.867
473.258
494.56
516.06
536.148
554.075
569.868
583.745
596.404
609.194
623.31
638.8
654.6
669.538
683.202
695.914
708.164
720.297
732.669
745.892
760.786
778.012
797.719
819.46
842.388
865.593
888.361
910.252
930.999
950.34
967.906
983.233
995.885
1005.61
1012.39
1016.38
1017.69
1016.12
1011.06
1001.57
986.729
966.015
939.511
907.846
871.849
832.174
789.143
742.915
693.859
642.851
591.248
540.527
491.796
445.511
401.594
359.911
320.805
285.326
254.989
231.176
214.463
204.306
199.316
197.975
199.287
203.088
209.671
218.853
229.48
241.645
256.921
265.37
273.235
292.814
311.272
314.814
311.99
324.801
33.9676
45.1651
44.1917
46.9093
55.7218
67.625
77.3903
87.4495
98.1712
109.548
122.262
135.711
150.935
168.123
187.289
206.68
227.072
249.558
272.376
294.332
316.17
338.28
360.057
381.999
405.072
428.409
450.01
468.819
484.917
498.671
510.716
522.356
535.122
549.649
565.214
580.476
594.556
607.389
619.32
630.663
641.679
652.803
664.713
678.07
693.164
709.739
727.118
744.53
761.419
777.573
793.017
807.798
821.78
834.59
845.722
854.721
861.321
865.441
867.019
865.795
861.179
852.339
838.485
819.201
794.623
765.333
732.03
695.217
655.113
611.879
565.98
518.419
470.636
424.084
379.744
337.896
298.312
260.776
225.607
193.832
166.903
146.121
132.046
124.191
121.278
121.957
125.391
131.244
139.142
148.309
158.163
169.553
185.4
194.027
199.985
214.074
230.085
235.713
230.878
239.319
-50.9456
-41.1408
-40.1818
-37.1912
-28.1709
-17.1516
-8.08639
1.07645
10.784
22.4975
36.4028
50.7021
65.4447
81.0098
98.3456
116.26
135.742
157.856
180.841
203.14
225.373
248.313
271.516
295.18
319.994
344.914
367.609
386.773
402.67
415.98
427.272
437.513
448.209
460.508
474.332
488.595
502.17
514.555
525.79
536.071
545.591
554.667
563.82
573.633
584.454
596.206
608.445
620.636
632.446
643.87
655.139
666.471
677.823
688.802
698.757
706.998
713.005
716.483
717.262
715.096
709.526
699.932
685.758
666.784
643.237
615.67
584.659
550.559
513.494
473.614
431.44
388.027
344.783
303.024
263.526
226.38
191.257
157.951
126.843
98.9916
75.7851
58.408
47.3881
42.3562
42.1349
45.2761
50.7101
58.0172
66.8878
76.046
84.6653
94.6026
109.689
119.035
124.92
134.21
147.045
153.838
149.564
154.943
-131.474
-125.502
-122.378
-120.716
-112.765
-103.533
-95.6657
-87.7289
-79.2812
-67.5086
-52.6395
-37.2199
-22.1993
-7.19585
9.38534
26.7583
45.9731
68.0158
91.2832
114.049
136.882
160.927
185.826
211.357
237.886
264.337
288.23
308.03
324.113
337.478
348.609
357.886
366.354
375.4
385.746
397.038
408.364
418.969
428.52
436.968
444.411
451.107
457.508
464.135
471.341
479.14
487.238
495.267
503.047
510.715
518.623
527.086
536.116
545.297
553.877
561.004
565.974
568.348
567.888
564.383
557.511
546.853
532.069
513.107
490.273
464.098
435.075
403.48
369.409
333.042
294.94
256.133
217.894
181.306
146.89
114.541
83.8545
54.6294
27.2472
2.6976
-17.753
-33.0063
-42.403
-45.8359
-43.9009
-37.9423
-29.6651
-20.2932
-10.1681
-0.569541
7.14217
15.7777
29.5702
40.1536
47.2207
53.5319
63.7951
70.8074
68.5135
72.783
-210.455
-209.373
-203.376
-201.957
-196.283
-189.318
-182.571
-175.553
-168.204
-156.631
-141.397
-125.314
-110.139
-95.5491
-79.5444
-62.6141
-43.7389
-21.992
1.30589
24.3644
47.6714
72.6627
99.0371
126.136
154.079
182.041
207.677
229.212
246.855
261.695
274.074
283.681
290.767
296.565
302.495
309.236
316.587
323.926
330.662
336.436
341.17
345.083
348.642
352.39
356.697
361.591
366.793
371.933
376.822
381.593
386.615
392.253
398.588
405.269
411.586
416.694
419.872
420.668
418.858
414.282
406.707
395.817
381.355
363.288
341.876
317.554
290.733
261.671
230.532
197.613
163.544
129.309
95.9966
64.4329
34.9164
7.24291
-18.9786
-43.9276
-67.3373
-88.5326
-106.66
-120.921
-130.589
-134.89
-133.285
-126.3
-115.9
-104.387
-92.7158
-82.1003
-74.5341
-66.6282
-54.1687
-41.8268
-32.7583
-27.538
-18.8979
-12.581
-13.2052
-8.4812
-291.332
-293.366
-286.685
-283.815
-279.771
-274.942
-269.139
-262.578
-255.753
-244.411
-229.329
-213.175
-198.27
-184.352
-169.195
-153.052
-134.964
-113.997
-91.0859
-68.0637
-44.6703
-19.323
7.7275
35.4398
63.8084
92.5721
119.924
143.935
164.338
181.955
196.924
208.349
215.616
219.46
221.629
223.753
226.585
229.978
233.311
235.948
237.573
238.321
238.718
239.433
240.949
243.351
246.331
249.415
252.248
254.794
257.299
260.087
263.288
266.679
269.715
271.727
272.162
270.716
267.297
261.861
254.261
244.219
231.432
215.73
197.154
175.905
152.223
126.324
98.467
69.0928
38.9211
8.87665
-20.1447
-47.5418
-73.1383
-97.0819
-119.577
-140.638
-160.039
-177.46
-192.641
-205.393
-215.325
-221.38
-221.914
-216.109
-205.41
-192.703
-179.798
-167.937
-159.752
-151.881
-140.633
-126.547
-115.365
-110.001
-102.443
-97.6185
-98.4213
-92.7305
-377.561
-380.399
-374.253
-370.274
-367.237
-364.152
-359.335
-353.339
-346.763
-335.792
-321.321
-305.546
-291.123
-277.851
-263.459
-248.06
-230.836
-210.817
-188.455
-165.616
-142.438
-117.36
-90.5581
-63.3688
-35.8688
-7.54782
20.7191
47.0969
70.6557
91.5783
109.684
123.727
132.448
135.958
135.91
134.49
133.278
132.753
132.489
131.715
129.883
127.001
123.64
120.645
118.726
118.147
118.666
119.725
120.773
121.511
121.949
122.262
122.559
122.716
122.38
121.119
118.625
114.821
109.815
103.729
96.5302
87.9767
77.691
65.3018
50.55
33.3134
13.5895
-8.49685
-32.6324
-58.2581
-84.5967
-110.803
-136.17
-160.272
-182.956
-204.198
-223.917
-241.886
-257.802
-271.499
-283.098
-292.949
-301.279
-307.468
-309.623
-305.86
-296.548
-284.173
-270.951
-258.106
-248.792
-240.385
-230.149
-214.983
-202.451
-196.762
-190.418
-187.533
-190.904
-184.748
-467.082
-471.485
-465.023
-459.584
-457.297
-455.741
-452.382
-447.772
-442.095
-432.446
-419.732
-405.387
-392.151
-379.83
-366.205
-351.362
-334.778
-315.506
-293.463
-270.5
-247.291
-222.486
-196.175
-169.922
-143.949
-117.021
-88.8244
-60.7336
-34.2661
-10.1223
11.0405
27.8266
38.7136
43.3342
42.9757
39.8824
36.0691
32.5129
29.079
25.0155
19.6343
12.8147
5.12832
-2.41674
-8.83386
-13.5654
-16.6444
-18.5669
-19.986
-21.4149
-23.0887
-25.0242
-27.195
-29.6838
-32.7085
-36.513
-41.21
-46.6954
-52.702
-58.9657
-65.4026
-72.1962
-79.7625
-88.6347
-99.3382
-112.293
-127.738
-145.652
-165.706
-187.284
-209.621
-232.002
-253.92
-275.091
-295.325
-314.373
-331.882
-347.473
-360.866
-371.961
-380.896
-388.038
-393.829
-398.251
-400.074
-397.417
-389.929
-379.129
-366.759
-353.669
-343.173
-334.063
-324.702
-309.45
-296.852
-291.531
-286.987
-285.893
-293.456
-287.826
-560.021
-565.251
-559.062
-551.479
-549.423
-549.149
-547.895
-545.602
-541.827
-534.798
-525.298
-513.786
-502.839
-492.158
-479.557
-465.139
-448.861
-429.953
-407.788
-384.111
-360.183
-335.05
-308.735
-282.965
-258.278
-233.011
-205.678
-176.819
-148.198
-121.389
-97.6685
-78.5315
-65.4545
-58.9973
-58.265
-61.3098
-66.131
-71.5449
-77.4489
-84.4701
-93.3045
-104.135
-116.401
-128.984
-140.654
-150.541
-158.381
-164.475
-169.431
-173.846
-178.111
-182.388
-186.731
-191.217
-195.994
-201.212
-206.905
-212.914
-218.932
-224.644
-229.899
-234.823
-239.83
-245.539
-252.648
-261.782
-273.336
-287.351
-303.477
-321.075
-339.439
-358.025
-376.537
-394.822
-412.628
-429.467
-444.718
-457.936
-469.042
-478.203
-485.566
-491.181
-495.112
-497.402
-497.574
-494.583
-488.228
-479.382
-468.707
-456.242
-444.91
-435.39
-426.985
-412.609
-401.166
-397.204
-395.019
-394.871
-406.574
-402.437
-662.993
-665.7
-660.741
-651.758
-649.62
-650.228
-651.231
-651.441
-649.793
-645.814
-640.103
-632.074
-624.027
-615.477
-604.173
-590.164
-573.988
-555.229
-532.736
-507.98
-482.726
-456.557
-429.472
-403.294
-379.032
-355.078
-329.105
-300.641
-271.227
-243.01
-217.901
-197.553
-183.28
-175.586
-173.814
-176.4
-181.623
-188.354
-196.375
-206.158
-218.296
-232.947
-249.547
-266.927
-283.717
-298.81
-311.669
-322.359
-331.338
-339.157
-346.234
-352.782
-358.884
-364.609
-370.085
-375.466
-380.834
-386.124
-391.13
-395.602
-399.397
-402.604
-405.605
-409.033
-413.652
-420.173
-429.034
-440.251
-453.4
-467.785
-482.726
-497.797
-512.871
-527.912
-542.67
-556.517
-568.656
-578.603
-586.555
-593.138
-598.776
-603.311
-606.221
-607.017
-605.388
-601.143
-594.838
-587.516
-578.78
-567.593
-555.937
-546.541
-539.33
-526.477
-516.88
-515.014
-515.332
-514.816
-528.866
-527.04
-775.327
-774.896
-771.3
-762.839
-761.361
-763.026
-766.283
-768.785
-768.964
-767.736
-765.513
-760.708
-755.382
-748.907
-738.907
-725.23
-708.999
-690.291
-667.512
-641.663
-614.809
-587.108
-558.589
-531.05
-506.006
-482.362
-457.523
-430.141
-401.157
-372.831
-347.51
-327.077
-312.764
-304.954
-303.076
-305.858
-311.884
-320.177
-330.48
-343.109
-358.504
-376.732
-397.218
-418.801
-440.079
-459.835
-477.352
-492.482
-505.489
-516.785
-526.698
-535.383
-542.874
-549.206
-554.506
-558.991
-562.892
-566.348
-569.366
-571.858
-573.754
-575.149
-576.394
-578.112
-581.085
-586.042
-593.403
-603.112
-614.641
-627.203
-640.068
-652.806
-665.301
-677.526
-689.224
-699.754
-708.279
-714.309
-718.206
-721.064
-723.844
-726.611
-728.549
-728.514
-725.688
-720.104
-713.028
-706.377
-699.267
-689.632
-678.148
-669.389
-663.58
-652.38
-644.605
-644.966
-647.462
-645.342
-659.073
-660.28
-893.201
-891.076
-889.055
-882.79
-883.138
-886.321
-891.758
-896.232
-897.946
-899.137
-900.039
-898.082
-895.188
-890.738
-882.238
-869.175
-853.127
-834.735
-812.108
-785.653
-757.46
-728.214
-698.014
-668.505
-641.581
-616.937
-592.327
-565.956
-538.05
-510.518
-485.779
-465.875
-452.08
-444.757
-443.409
-446.949
-454.167
-464.194
-476.73
-491.946
-510.132
-531.285
-554.856
-579.775
-604.722
-628.486
-650.253
-669.694
-686.851
-701.913
-715.011
-726.136
-735.191
-742.128
-747.063
-750.305
-752.277
-753.38
-753.884
-753.899
-753.461
-752.678
-751.882
-751.687
-752.899
-756.27
-762.224
-770.668
-781.023
-792.457
-804.202
-815.758
-826.895
-837.435
-847.017
-854.987
-860.578
-863.347
-863.676
-862.826
-862.224
-862.463
-862.988
-862.428
-859.298
-853.104
-845.24
-838.633
-832.667
-824.587
-813.702
-805.96
-801.609
-791.72
-785.103
-787.149
-791.173
-787.001
-798.074
-802.832
-1018.26
-1014.37
-1014.2
-1010.96
-1013.51
-1017.94
-1024.85
-1030.54
-1033.34
-1036.66
-1040.53
-1041.36
-1040.99
-1038.99
-1032.82
-1021.45
-1006.67
-989.603
-968.256
-942.419
-913.967
-883.953
-852.585
-821.249
-792.009
-765.396
-739.988
-714.106
-687.443
-661.281
-637.687
-618.62
-605.399
-598.495
-597.567
-601.702
-609.822
-621.075
-635.07
-651.832
-671.541
-694.194
-719.373
-746.221
-773.622
-800.483
-825.969
-849.592
-871.138
-890.501
-907.517
-921.914
-933.383
-941.73
-947.028
-949.659
-950.236
-949.423
-947.751
-945.523
-942.852
-939.834
-936.751
-934.191
-932.976
-933.911
-937.467
-943.587
-951.724
-961.1
-971.008
-980.987
-990.758
-1000.03
-1008.29
-1014.79
-1018.74
-1019.7
-1018
-1014.82
-1011.71
-1009.69
-1008.74
-1007.85
-1005.27
-999.695
-991.979
-985.602
-980.725
-974.309
-964.521
-958.121
-955.252
-946.158
-939.789
-942.456
-947.318
-941.833
-949.13
-957.301
-1152
-1146.06
-1147.37
-1147.61
-1151.94
-1156.69
-1163.91
-1169.7
-1172.9
-1177.86
-1184.4
-1187.88
-1190.09
-1190.96
-1188.07
-1179.76
-1167.76
-1153.48
-1134.98
-1111.54
-1084.64
-1055.47
-1024.27
-992.099
-960.947
-932.047
-905.022
-878.805
-852.95
-828.125
-805.769
-787.472
-774.479
-767.411
-766.183
-770.132
-778.316
-789.865
-804.245
-821.298
-841.092
-863.66
-888.783
-915.914
-944.261
-972.957
-1001.23
-1028.5
-1054.3
-1078.21
-1099.73
-1118.27
-1133.24
-1144.24
-1151.21
-1154.54
-1154.97
-1153.37
-1150.49
-1146.79
-1142.45
-1137.53
-1132.24
-1127.11
-1122.97
-1120.69
-1120.86
-1123.51
-1128.17
-1134.14
-1140.8
-1147.77
-1154.9
-1162.01
-1168.66
-1174.09
-1177.38
-1177.9
-1175.75
-1171.93
-1167.88
-1164.77
-1162.97
-1162.09
-1160.72
-1156.96
-1150.83
-1145.67
-1142.51
-1138.28
-1130.31
-1125.71
-1124.52
-1116.07
-1109.34
-1111.51
-1116.72
-1111.78
-1115.38
-1125.79
-1291.36
-1285.06
-1286.95
-1290.78
-1296.44
-1300.93
-1307.72
-1313.07
-1316.32
-1322.55
-1331.33
-1337.05
-1341.45
-1344.94
-1345.47
-1340.8
-1332.42
-1321.8
-1307.26
-1287.74
-1264.3
-1238.03
-1209.05
-1177.92
-1146.31
-1115.85
-1087.16
-1060.03
-1034.24
-1010.07
-988.318
-970.038
-956.283
-947.807
-944.869
-947.181
-954.054
-964.677
-978.384
-994.8
-1013.81
-1035.39
-1059.47
-1085.75
-1113.79
-1142.99
-1172.73
-1202.41
-1231.45
-1259.2
-1284.93
-1307.77
-1326.87
-1341.57
-1351.64
-1357.33
-1359.36
-1358.66
-1356.07
-1352.14
-1347.05
-1340.82
-1333.57
-1325.78
-1318.3
-1312.12
-1308.03
-1306.3
-1306.64
-1308.42
-1311.04
-1314.13
-1317.6
-1321.51
-1325.76
-1329.87
-1332.93
-1333.94
-1332.53
-1329.38
-1325.79
-1322.88
-1321.17
-1320.76
-1320.92
-1319.7
-1316.38
-1313.64
-1313.15
-1311.89
-1306.6
-1304.35
-1305.33
-1298.12
-1291.27
-1292.33
-1297.82
-1295.68
-1296.34
-1306.64
-1433.43
-1429.03
-1430.72
-1437.53
-1444.24
-1448.56
-1455.11
-1460.43
-1464.04
-1471.54
-1482.21
-1489.63
-1495.45
-1500.61
-1503.58
-1501.77
-1496.42
-1488.98
-1478.16
-1462.88
-1443.95
-1422.21
-1397.52
-1369.81
-1340.11
-1310.08
-1281.02
-1253.51
-1227.74
-1203.8
-1181.97
-1162.81
-1147.11
-1135.71
-1129.27
-1128.01
-1131.67
-1139.7
-1151.44
-1166.35
-1184.06
-1204.37
-1227.12
-1252.14
-1279.14
-1307.73
-1337.43
-1367.73
-1398.05
-1427.74
-1456.03
-1481.99
-1504.66
-1523.23
-1537.25
-1546.77
-1552.31
-1554.65
-1554.52
-1552.37
-1548.28
-1542.1
-1533.83
-1523.85
-1513.01
-1502.44
-1493.24
-1486.1
-1481.13
-1478.02
-1476.22
-1475.25
-1474.93
-1475.37
-1476.82
-1479.27
-1482.09
-1484.03
-1484.12
-1482.47
-1480.22
-1478.47
-1477.7
-1478.21
-1480
-1481.48
-1481.57
-1482.05
-1484.97
-1487.34
-1485.4
-1485.96
-1489.67
-1485.08
-1479.35
-1479.55
-1485.66
-1488.14
-1486.74
-1494.05
-1578.56
-1577.11
-1578.13
-1586.85
-1594.33
-1598.86
-1605.72
-1611.8
-1616.21
-1624.94
-1637.03
-1645.56
-1651.92
-1657.58
-1661.48
-1660.9
-1656.97
-1651.13
-1642.59
-1630.5
-1615.63
-1598.71
-1579.31
-1556.71
-1531.14
-1503.93
-1476.64
-1450.39
-1425.7
-1402.62
-1381.03
-1361.05
-1343.17
-1328.29
-1317.37
-1311.18
-1310.02
-1313.8
-1322.09
-1334.33
-1349.97
-1368.55
-1389.72
-1413.16
-1438.57
-1465.6
-1493.84
-1522.84
-1552.13
-1581.23
-1609.52
-1636.27
-1660.66
-1681.91
-1699.46
-1713.19
-1723.34
-1730.41
-1734.85
-1736.82
-1736.14
-1732.42
-1725.37
-1715.16
-1702.49
-1688.5
-1674.51
-1661.64
-1650.64
-1641.76
-1634.85
-1629.54
-1625.47
-1622.57
-1621.13
-1621.55
-1623.64
-1626.25
-1627.88
-1627.95
-1627.3
-1627.09
-1627.76
-1629.57
-1632.97
-1637.02
-1640.57
-1644.55
-1651.19
-1657.5
-1659.21
-1662.71
-1669.51
-1669.22
-1666.51
-1666.9
-1674.14
-1681.83
-1679.41
-1681.88
-1727.36
-1729.33
-1729.44
-1739.25
-1747.41
-1752.52
-1760.19
-1767.58
-1772.86
-1782.37
-1795.14
-1804.16
-1810.47
-1815.87
-1819.61
-1818.94
-1814.96
-1809.23
-1801.46
-1791.06
-1778.87
-1765.66
-1750.89
-1733.38
-1712.67
-1689.55
-1665.53
-1641.98
-1619.62
-1598.46
-1578.15
-1558.42
-1539.49
-1522.13
-1507.46
-1496.61
-1490.45
-1489.38
-1493.35
-1501.97
-1514.65
-1530.74
-1549.67
-1570.94
-1594.12
-1618.78
-1644.49
-1670.8
-1697.36
-1723.85
-1749.94
-1775.2
-1799.09
-1821.02
-1840.5
-1857.29
-1871.44
-1883.17
-1892.64
-1899.73
-1903.95
-1904.64
-1901.23
-1893.55
-1881.98
-1867.45
-1851.18
-1834.44
-1818.4
-1803.95
-1791.67
-1781.69
-1773.81
-1767.71
-1763.42
-1761.36
-1761.82
-1764.06
-1766.43
-1767.7
-1768.27
-1769.3
-1771.34
-1774.51
-1779.44
-1785.78
-1792.51
-1799.89
-1810.13
-1820.39
-1825.75
-1831.99
-1841.67
-1847.02
-1849.04
-1850.9
-1859.36
-1871.6
-1869.33
-1867.68
-1878.46
-1884.76
-1883.77
-1894.52
-1903.49
-1909.7
-1918.59
-1927.65
-1933.71
-1943.48
-1956.32
-1965.69
-1972.13
-1977.59
-1981.29
-1980.43
-1976.07
-1970.05
-1962.51
-1953.01
-1942.24
-1931.04
-1918.99
-1904.82
-1887.69
-1867.97
-1846.93
-1825.99
-1805.97
-1786.92
-1768.35
-1749.78
-1731.14
-1712.97
-1696.33
-1682.51
-1672.69
-1667.68
-1667.81
-1672.93
-1682.5
-1695.82
-1712.18
-1730.98
-1751.69
-1773.79
-1796.8
-1820.24
-1843.78
-1867.2
-1890.37
-1913.11
-1935.15
-1956.09
-1975.55
-1993.27
-2009.22
-2023.46
-2036
-2046.58
-2054.61
-2059.3
-2059.91
-2056.04
-2047.77
-2035.66
-2020.57
-2003.52
-1985.56
-1967.86
-1951.54
-1937.56
-1926.29
-1917.53
-1910.89
-1906.46
-1904.69
-1905.5
-1907.54
-1909.26
-1910.43
-1912.18
-1915.16
-1919.49
-1925.73
-1934
-1943.41
-1953.71
-1967.1
-1980.99
-1989.82
-1998.25
-2009.92
-2021.1
-2028.54
-2032.42
-2041.48
-2056.44
-2055.53
-2051.98
-2030.3
-2041.45
-2039.39
-2051.08
-2061.11
-2068.94
-2079.54
-2090.69
-2097.85
-2107.99
-2121.16
-2131.74
-2139.68
-2146.88
-2152.19
-2152.56
-2148.81
-2143.2
-2136.35
-2127.86
-2117.98
-2107.37
-2095.83
-2082.36
-2066.2
-2047.57
-2027.57
-2007.56
-1988.39
-1970.2
-1952.54
-1934.83
-1916.82
-1898.79
-1881.61
-1866.5
-1854.76
-1847.46
-1845.21
-1848.04
-1855.52
-1866.94
-1881.57
-1898.77
-1917.96
-1938.63
-1960.2
-1982.16
-2004.08
-2025.72
-2046.97
-2067.74
-2087.86
-2107.04
-2124.96
-2141.39
-2156.27
-2169.69
-2181.7
-2192.16
-2200.63
-2206.43
-2208.86
-2207.47
-2202.19
-2193.3
-2181.31
-2166.78
-2150.3
-2132.65
-2115.05
-2098.97
-2085.61
-2075.27
-2067.44
-2061.63
-2058.14
-2057.4
-2058.82
-2060.86
-2062.76
-2065.25
-2069.14
-2074.6
-2082.11
-2092.04
-2103.61
-2116.18
-2131.91
-2148.83
-2160.72
-2170.6
-2182.79
-2198.63
-2210.53
-2215.92
-2224.12
-2239.36
-2240.52
-2236.17
-2182.62
-2197.96
-2194.97
-2207.49
-2218.64
-2228.51
-2241.3
-2255.17
-2264.36
-2275.83
-2290.48
-2303.97
-2315.54
-2326.93
-2336.37
-2340.34
-2339.02
-2334.98
-2329.52
-2322.41
-2313.38
-2302.58
-2289.93
-2274.88
-2257.08
-2236.94
-2215.55
-2194.2
-2173.79
-2154.56
-2136.19
-2118.15
-2100.09
-2082.09
-2064.77
-2049.19
-2036.66
-2028.39
-2025.17
-2027.18
-2034.06
-2045.14
-2059.69
-2077.07
-2096.73
-2118.11
-2140.59
-2163.48
-2186.21
-2208.33
-2229.59
-2249.81
-2268.77
-2286.15
-2301.65
-2315.04
-2326.35
-2335.82
-2343.77
-2350.38
-2355.58
-2359.01
-2360.18
-2358.65
-2354.28
-2347.23
-2337.82
-2326.34
-2312.9
-2297.68
-2281.34
-2265.33
-2251.42
-2240.67
-2232.82
-2227
-2223.02
-2221.64
-2223.08
-2226.24
-2229.86
-2234.09
-2239.61
-2246.79
-2255.97
-2267.73
-2281.22
-2295.48
-2312.67
-2331.8
-2346.34
-2357.01
-2368.25
-2386.52
-2400.9
-2406.52
-2412.58
-2425.45
-2428.88
-2423.14
-2335.62
-2353.82
-2350.17
-2363.42
-2375.78
-2387.94
-2403.32
-2420.5
-2432.86
-2446.74
-2463.98
-2481.6
-2498.2
-2515.34
-2530.73
-2540.23
-2543.02
-2541.55
-2537.81
-2532.08
-2523.86
-2512.77
-2498.56
-2481.05
-2460.35
-2437.2
-2412.83
-2388.53
-2365.27
-2343.47
-2323.02
-2303.55
-2284.67
-2266.3
-2248.79
-2233.03
-2220.24
-2211.7
-2208.29
-2210.31
-2217.49
-2229.18
-2244.73
-2263.53
-2285.09
-2308.82
-2333.99
-2359.73
-2385.17
-2409.59
-2432.45
-2453.36
-2471.96
-2487.87
-2500.73
-2510.37
-2516.91
-2520.8
-2522.71
-2523.32
-2523.07
-2522.04
-2519.98
-2516.5
-2511.31
-2504.38
-2495.97
-2486.37
-2475.57
-2463.32
-2449.56
-2435.12
-2421.8
-2411.25
-2403.89
-2398.81
-2395.42
-2394.4
-2396.74
-2401.9
-2408.4
-2415.56
-2423.79
-2433.52
-2445.13
-2459.27
-2474.95
-2490.74
-2508.77
-2529.39
-2546.29
-2557.59
-2567.06
-2585.62
-2600.39
-2605.52
-2609.08
-2618.03
-2623.03
-2616.55
-2489.02
-2509.26
-2505.29
-2519.48
-2533.24
-2547.87
-2565.94
-2586.58
-2602.64
-2619.1
-2638.71
-2659.79
-2680.5
-2702.35
-2723.09
-2738.2
-2745.69
-2747.33
-2745.42
-2740.89
-2733.5
-2722.59
-2707.69
-2688.66
-2665.84
-2640.13
-2612.81
-2585.25
-2558.57
-2533.49
-2510.29
-2488.84
-2468.84
-2450.05
-2432.57
-2417.01
-2404.42
-2396
-2392.63
-2394.63
-2401.76
-2413.5
-2429.28
-2448.69
-2471.36
-2496.8
-2524.21
-2552.57
-2580.72
-2607.61
-2632.39
-2654.43
-2673.23
-2688.31
-2699.3
-2706.02
-2708.62
-2707.69
-2704.15
-2699.08
-2693.43
-2687.76
-2682.16
-2676.32
-2669.77
-2662.19
-2653.66
-2644.58
-2635.16
-2625.19
-2614.11
-2601.93
-2589.84
-2579.72
-2572.69
-2568.37
-2565.91
-2565.82
-2569.42
-2576.88
-2586.6
-2597.23
-2608.68
-2621.5
-2636.15
-2653.39
-2671.93
-2689.68
-2708.51
-2730.18
-2749.51
-2761.86
-2770
-2787.53
-2801.69
-2806.67
-2808.98
-2813.98
-2819.56
-2814.41
-2642.68
-2664.83
-2660.94
-2676.32
-2691.57
-2708.52
-2728.72
-2752.05
-2771.16
-2788.92
-2808.96
-2830.67
-2852.09
-2874.85
-2897.57
-2916.03
-2927.4
-2932.31
-2932.74
-2929.95
-2924.08
-2914.6
-2900.91
-2882.72
-2860.24
-2834.15
-2805.56
-2775.77
-2746.14
-2717.84
-2691.68
-2668.03
-2646.8
-2627.69
-2610.54
-2595.63
-2583.69
-2575.62
-2572.11
-2573.33
-2579.03
-2588.75
-2602.14
-2619.1
-2639.59
-2663.41
-2689.94
-2718.16
-2746.78
-2774.52
-2800.3
-2823.27
-2842.79
-2858.32
-2869.42
-2875.81
-2877.54
-2875.06
-2869.24
-2861.24
-2852.27
-2843.3
-2834.85
-2826.87
-2818.92
-2810.45
-2801.3
-2791.8
-2782.54
-2773.69
-2764.68
-2754.82
-2744.37
-2734.86
-2727.99
-2724.1
-2722.57
-2723.5
-2728.27
-2737.47
-2749.78
-2763.29
-2777.59
-2793.28
-2811.13
-2831.99
-2854.31
-2875
-2895.24
-2918.13
-2940.25
-2954.8
-2963.13
-2979.85
-2993.58
-3000
-3002.99
-3005.58
-3011.03
-3007.85
-2796.85
-2820.91
-2817.22
-2833.53
-2849.7
-2868.16
-2888.89
-2913.05
-2933.39
-2950.2
-2967.82
-2986.64
-3004.72
-3023.74
-3043.9
-3062.2
-3075.66
-3083.8
-3087.65
-3088.18
-3085.62
-3079.62
-3069.61
-3055.16
-3036.13
-3012.69
-2985.48
-2955.51
-2924.27
-2893.39
-2864.39
-2838.24
-2815.26
-2795.25
-2777.91
-2763.21
-2751.47
-2743.21
-2738.71
-2737.85
-2740.2
-2745.33
-2753.11
-2763.84
-2777.99
-2795.87
-2817.28
-2841.5
-2867.37
-2893.59
-2918.99
-2942.6
-2963.68
-2981.56
-2995.66
-3005.47
-3010.7
-3011.38
-3007.97
-3001.27
-2992.37
-2982.37
-2972.17
-2962.25
-2952.54
-2942.66
-2932.25
-2921.52
-2911.22
-2902.05
-2893.86
-2885.68
-2876.86
-2868.2
-2861.51
-2857.97
-2857.33
-2859.42
-2865.13
-2875.37
-2889.08
-2904.39
-2920.62
-2938.59
-2959.36
-2984.03
-3010.88
-3035.7
-3058.53
-3083.26
-3108.86
-3127
-3137.92
-3155.14
-3169.85
-3179.37
-3185.18
-3187.12
-3192.73
-3189.79
-2951.19
-2976.61
-2972.79
-2988.65
-3004.28
-3022.6
-3041.44
-3063.91
-3083.3
-3097.12
-3110.25
-3124.04
-3136.61
-3149.37
-3163.91
-3179.16
-3192.87
-3203.81
-3211.92
-3217.36
-3220
-3219.45
-3215.22
-3206.82
-3193.8
-3175.8
-3152.76
-3125.23
-3094.52
-3062.55
-3031.36
-3002.52
-2976.81
-2954.3
-2934.75
-2918.03
-2904.24
-2893.59
-2886