/*--------------------------------*- C++ -*----------------------------------*\
| =========                 |                                                 |
| \\      /  F ield         | OpenFOAM: The Open Source CFD Toolbox           |
|  \\    /   O peration     | Version:  2406                                  |
|   \\  /    A nd           | Website:  www.openfoam.com                      |
|    \\/     M anipulation  |                                                 |
\*---------------------------------------------------------------------------*/
FoamFile
{
    version     2.0;
    format      ascii;
    arch        "LSB;label=32;scalar=64";
    class       volScalarField;
    location    "8";
    object      p_rgh;
}
// * * * * * * * * * * * * * * * * * * * * * * * * * * * * * * * * * * * * * //

dimensions      [1 -1 -2 0 0 0 0];

internalField   nonuniform List<scalar> 
10000
(
1173.67
1159.46
1166.61
1177.39
1183.81
1194.86
1210.38
1224.1
1236.38
1254.57
1276.88
1299.46
1320.81
1341.9
1363.05
1382.66
1399.71
1415.29
1431.42
1450.5
1472.53
1495.18
1517.27
1538.01
1555.97
1571.11
1585.3
1599.98
1614.99
1629.66
1643.95
1658.1
1672.2
1686.28
1700.67
1716.01
1733.09
1752.53
1774.71
1799.83
1828.08
1859.49
1893.88
1930.79
1969.61
2009.59
2050.03
2090.3
2129.96
2168.7
2206.18
2242.01
2275.67
2306.54
2333.94
2357.06
2375.07
2387.14
2392.57
2390.94
2382.15
2366.36
2343.88
2315.06
2280.26
2239.79
2194.01
2143.25
2087.76
2027.68
1963.05
1894.08
1821.39
1746.28
1670.66
1596.72
1526.61
1462.03
1404.15
1353.7
1310.98
1275.86
1247.69
1225.35
1207.61
1193.7
1183.7
1178.54
1179.19
1185.69
1196.49
1208.65
1219.36
1227.91
1235.27
1241.78
1251.01
1262.11
1262.22
1272.93
1188.97
1177.67
1177.8
1186.72
1191.99
1198.91
1209.34
1222.15
1235.53
1252.65
1273.69
1297.89
1323.33
1348.41
1372.03
1393.26
1412.03
1429.68
1447.27
1466.33
1487.43
1508.73
1528.64
1546.77
1562.58
1575.92
1588.03
1600.58
1614.17
1628.49
1643.17
1658.03
1673.1
1688.47
1704.29
1720.72
1738.11
1757.08
1778.44
1802.92
1831.01
1862.77
1897.87
1935.7
1975.51
2016.53
2058.01
2099.27
2139.71
2178.82
2216.14
2251.2
2283.53
2312.63
2337.94
2358.83
2374.61
2384.57
2388.11
2384.81
2374.5
2357.19
2333.05
2302.32
2265.37
2222.71
2175
2122.93
2067.09
2007.79
1945.14
1879.26
1810.64
1740.31
1669.83
1600.95
1535.35
1474.32
1418.81
1369.45
1326.58
1290.16
1259.7
1234.35
1213.37
1196.57
1184.59
1178.63
1179.67
1187.53
1200.33
1214.65
1227.06
1237.19
1247.83
1255.89
1260.06
1272.9
1273.94
1275.26
1190.46
1183.92
1184.85
1195.97
1201.54
1210.67
1224.04
1237.21
1250.13
1266.2
1286.01
1309.1
1333.28
1357.1
1380.03
1401.74
1422
1441.35
1460.38
1480.36
1501.78
1523.33
1543.94
1563.14
1580.13
1594.48
1607.12
1619.38
1631.7
1643.91
1656.08
1668.62
1681.9
1696.08
1711.14
1727.05
1744.01
1762.59
1783.62
1807.91
1835.91
1867.56
1902.31
1939.4
1978.08
2017.72
2057.84
2097.99
2137.81
2176.93
2214.95
2251.34
2285.42
2316.4
2343.45
2365.71
2382.42
2392.97
2396.91
2393.99
2384.09
2367.16
2343.19
2312.22
2274.52
2230.6
2181.25
2127.33
2069.56
2008.39
1944.04
1876.81
1807.41
1737.09
1667.52
1600.41
1537.24
1479.07
1426.62
1380.3
1340.23
1306.11
1277.18
1252.48
1231.29
1213.66
1200.53
1193.34
1193.2
1199.87
1211.32
1224.38
1236.14
1246.39
1258.91
1271.48
1277.34
1290.86
1302.7
1290.27
1206.7
1200.62
1196.22
1206.83
1212.74
1221.28
1236.12
1252.07
1268
1285.52
1305.31
1328.05
1352.57
1377.52
1401.91
1425.13
1447
1467.46
1486.41
1505.42
1525.35
1544.98
1563.67
1581.7
1598.54
1613.27
1626.17
1638.33
1650.25
1661.88
1673.34
1685.08
1697.55
1711.07
1725.68
1741.33
1758.15
1776.7
1797.89
1822.64
1851.35
1883.74
1918.93
1955.81
1993.49
2031.45
2069.49
2107.57
2145.66
2183.61
2221.05
2257.35
2291.63
2322.82
2349.88
2371.85
2388.01
2397.87
2401.11
2397.55
2387.04
2369.4
2344.51
2312.4
2273.43
2228.37
2178.26
2124.19
2066.98
2007.06
1944.58
1879.78
1813.3
1746.27
1680.17
1616.44
1556.24
1500.38
1449.46
1403.97
1364.22
1330.2
1301.44
1277.14
1256.62
1239.87
1227.67
1221.35
1222
1229.26
1240.67
1252.75
1263.13
1271.26
1280.03
1292.57
1302.09
1312.61
1334.25
1322.87
1225.59
1226.08
1220.98
1230.8
1236.65
1244.48
1258.66
1274.91
1291.28
1307.61
1325.41
1346.47
1370.52
1396.27
1422.16
1446.88
1470.25
1492.21
1511.92
1530.78
1550.26
1569.53
1587.94
1605.98
1623.39
1639.01
1652.57
1664.84
1676.44
1687.6
1698.73
1710.37
1722.85
1736.21
1750.39
1765.32
1781.14
1798.39
1817.97
1840.84
1867.57
1898.02
1931.34
1966.41
2002.35
2038.69
2075.39
2112.56
2150.22
2188.13
2225.69
2262
2295.92
2326.27
2351.99
2372.32
2386.79
2395.17
2397.36
2393.23
2382.52
2364.86
2339.89
2307.5
2268.08
2222.52
2172.09
2118.06
2061.38
2002.55
1941.78
1879.34
1815.88
1752.46
1690.31
1630.55
1573.99
1521.17
1472.56
1428.63
1389.84
1356.31
1327.75
1303.48
1282.94
1266.14
1253.93
1247.63
1248.41
1256.16
1268.54
1282.09
1295.05
1306.36
1313.64
1323
1333.88
1339.06
1363.61
1365.19
1251.22
1257.4
1252.35
1262.25
1268.57
1276.59
1289.66
1305.24
1321.54
1336.42
1351.93
1370.9
1394.12
1420.27
1447.26
1473.09
1497.34
1520.16
1540.53
1559.64
1579.14
1598.49
1616.93
1635.03
1652.8
1669.05
1683.18
1695.78
1707.56
1719.01
1730.72
1743.26
1756.72
1770.78
1785.11
1799.62
1814.52
1830.32
1847.81
1867.87
1891.22
1918.06
1947.95
1980.09
2013.72
2048.42
2084.11
2120.8
2158.34
2196.23
2233.59
2269.25
2301.89
2330.34
2353.7
2371.49
2383.59
2390.12
2391.2
2386.76
2376.45
2359.66
2335.76
2304.47
2266.07
2221.49
2172.04
2119.07
2063.57
2006.09
1946.92
1886.46
1825.46
1764.99
1706.18
1649.91
1596.71
1546.86
1500.65
1458.56
1421.13
1388.72
1361.25
1338.17
1318.83
1302.99
1291.22
1284.71
1284.6
1291.03
1302.46
1315.96
1330.12
1345.6
1356.33
1366.58
1377.92
1379.6
1401.32
1414.16
1284.33
1293.68
1287.7
1296.4
1303.28
1312.57
1325.08
1339.31
1354.69
1368.3
1382.24
1399.5
1421.62
1447.26
1474.02
1499.54
1523.53
1546.43
1567.19
1586.83
1607
1627.15
1646.34
1665.11
1683.8
1701.38
1716.99
1730.95
1743.82
1756.1
1768.51
1781.72
1795.82
1810.29
1824.56
1838.49
1852.4
1866.82
1882.35
1899.67
1919.47
1942.26
1968.1
1996.63
2027.28
2059.62
2093.36
2128.3
2164.1
2200.09
2235.28
2268.43
2298.23
2323.59
2343.78
2358.56
2368.13
2372.85
2373.07
2368.79
2359.61
2344.75
2323.4
2295.04
2259.83
2218.53
2172.33
2122.42
2069.64
2014.44
1957.17
1898.38
1839.02
1780.28
1723.32
1668.93
1617.47
1569.12
1524.21
1483.33
1447.28
1416.62
1391.41
1371.12
1354.89
1342.15
1333.1
1328.7
1329.72
1336.04
1346.74
1360.07
1373.59
1389.02
1403.39
1419.73
1433.02
1432.99
1449.16
1467.61
1327.21
1337.25
1331.4
1338.32
1345.8
1356.39
1369.05
1382.64
1397.03
1409.57
1422.36
1438.09
1458.82
1483.39
1509.23
1533.62
1556.55
1578.87
1599.5
1619.12
1639.32
1659.7
1679.18
1698.3
1717.74
1736.62
1753.92
1769.59
1784.01
1797.56
1810.99
1825.17
1840.38
1855.99
1871.12
1885.36
1898.96
1912.48
1926.43
1941.3
1957.75
1976.53
1998.18
2022.87
2050.3
2079.96
2111.25
2143.63
2176.5
2209.15
2240.66
2269.97
2295.99
2317.79
2334.81
2346.97
2354.55
2358.07
2357.95
2354.23
2346.44
2333.74
2315.16
2290.11
2258.6
2221.27
2179.14
2133.15
2083.89
2031.69
1976.87
1920.11
1862.57
1805.61
1750.45
1697.86
1648.1
1601.29
1557.78
1518.36
1484.07
1455.75
1433.53
1416.75
1404.23
1394.91
1388.64
1386.21
1388.24
1394.03
1402.72
1414.88
1428.63
1442.03
1456.75
1478.51
1494.62
1494.22
1503.16
1522.62
1375.63
1385.53
1380.19
1384.53
1392.1
1402.58
1413.84
1426.18
1439.33
1451.07
1463.34
1477.98
1497.09
1519.95
1544.49
1567.96
1590.55
1613.28
1634.86
1655.36
1676.09
1696.85
1716.64
1736.09
1756.19
1776.23
1794.93
1811.9
1827.28
1841.29
1854.67
1868.56
1883.64
1899.49
1915.02
1929.43
1942.75
1955.51
1968.24
1981.34
1995.33
2010.97
2029.07
2050.13
2074.09
2100.4
2128.23
2156.74
2185.19
2212.95
2239.41
2263.88
2285.65
2304.06
2318.64
2329.29
2336.21
2339.78
2340.29
2337.68
2331.39
2320.47
2303.96
2281.26
2252.42
2218.06
2179.13
2136.4
2090.33
2041.13
1989.13
1935.09
1880.28
1826.14
1773.84
1723.99
1676.7
1631.96
1590.14
1552.2
1519.51
1493.24
1473.75
1460.4
1451.81
1446.57
1444.12
1445.02
1450.01
1458.36
1468.13
1479.74
1493.48
1503.44
1515.1
1538.23
1556.74
1557.83
1559.84
1576.89
1424.86
1435.28
1431.68
1434.35
1442.71
1454.03
1464.14
1475.14
1487.05
1498.44
1510.67
1524.46
1541.57
1561.76
1583.93
1605.69
1627.5
1650.42
1672.89
1694.31
1715.67
1737.03
1757.6
1777.99
1799.29
1820.79
1840.88
1858.81
1874.6
1888.48
1901.13
1913.92
1928.04
1943.53
1959.33
1974.27
1987.93
2000.64
2012.89
2025.03
2037.4
2050.62
2065.52
2082.74
2102.45
2124.19
2147.12
2170.32
2193.09
2214.98
2235.73
2255.07
2272.64
2287.96
2300.61
2310.34
2317.12
2321.11
2322.42
2320.85
2315.79
2306.3
2291.46
2270.74
2244.24
2212.58
2176.58
2136.9
2093.87
2047.64
1998.59
1947.58
1895.98
1845.26
1796.53
1750.24
1706.32
1664.64
1625.54
1590.06
1559.72
1535.91
1519.19
1509.04
1504.05
1502.7
1504.02
1507.82
1514.4
1523.58
1534.21
1546.38
1561.65
1570.1
1577.96
1597.54
1616
1619.54
1616.72
1629.53
1476.04
1487.23
1486.26
1488.98
1497.79
1509.7
1519.46
1529.52
1540.24
1551.62
1564.33
1577.78
1593.01
1610.19
1629.36
1648.75
1669.14
1691.63
1714.45
1736.4
1758.24
1780.35
1802.13
1824.07
1847.14
1870.48
1892.08
1910.89
1926.99
1940.74
1952.79
1964.43
1977.19
1991.72
2007.28
2022.55
2036.63
2049.46
2061.39
2072.73
2083.75
2094.87
2106.78
2120.14
2135.23
2151.81
2169.19
2186.6
2203.49
2219.64
2235.09
2249.87
2263.85
2276.66
2287.79
2296.79
2303.39
2307.51
2309.09
2307.86
2303.25
2294.41
2280.55
2261.27
2236.69
2207.4
2174.1
2137.29
2097.18
2053.95
2008.05
1960.49
1912.71
1866.15
1821.81
1779.97
1740.38
1702.85
1667.68
1635.9
1608.97
1588.19
1574.12
1566.26
1563.35
1564.03
1567.46
1573.31
1581.21
1590.38
1600.23
1611.62
1627.47
1636.1
1642.05
1656.14
1672.15
1677.78
1672.95
1681.39
1528.46
1538.27
1539.23
1542.22
1551.24
1562.26
1571.32
1580.49
1590.19
1601.91
1615.81
1630.11
1644.85
1660.42
1677.76
1695.67
1715.15
1737.27
1760.25
1782.55
1804.78
1827.72
1850.93
1874.59
1899.4
1924.32
1947.02
1966.18
1982.08
1995.39
2006.68
2016.92
2027.62
2039.92
2053.74
2068.01
2081.58
2093.97
2105.2
2115.48
2125
2134.08
2143.23
2153.04
2163.86
2175.62
2187.85
2200.05
2211.86
2223.28
2234.55
2245.88
2257.23
2268.21
2278.17
2286.41
2292.41
2295.89
2296.67
2294.51
2288.94
2279.34
2265.17
2246.19
2222.65
2195.08
2164.07
2129.97
2092.9
2053.02
2010.85
1967.44
1924.19
1882.43
1842.94
1805.79
1770.67
1737.36
1706.25
1678.4
1655.19
1637.82
1626.8
1621.77
1621.54
1624.69
1630.12
1637.43
1646.3
1655.46
1664.07
1674.01
1689.1
1698.44
1704.33
1713.62
1726.45
1733.25
1728.97
1734.35
1585.28
1591.25
1594.37
1596.03
1603.98
1613.22
1621.08
1629.02
1637.47
1649.24
1664.11
1679.53
1694.55
1709.55
1726.14
1743.51
1762.72
1784.77
1808.03
1830.8
1853.63
1877.68
1902.58
1928.11
1954.64
1981.09
2004.98
2024.78
2040.86
2054.23
2065.36
2074.64
2083.1
2092.15
2102.5
2113.79
2125.11
2135.72
2145.27
2153.72
2161.16
2167.86
2174.26
2180.89
2188.09
2195.89
2203.99
2212.02
2219.8
2227.46
2235.37
2243.84
2252.87
2262.05
2270.63
2277.75
2282.72
2285.1
2284.64
2281.13
2274.26
2263.6
2248.82
2229.86
2207.02
2180.85
2151.83
2120.23
2086.16
2049.79
2011.69
1972.88
1934.64
1898.06
1863.64
1831.29
1800.6
1771.38
1744
1719.45
1699
1683.74
1674.35
1670.91
1672.85
1678.81
1687.08
1696.46
1706.58
1716.18
1723.89
1732.53
1746.32
1756.9
1763.97
1770.28
1780.54
1787.56
1785.26
1789.53
1643.63
1644.72
1650.71
1652.13
1657.81
1664.77
1671.52
1678.54
1685.89
1697.46
1712.69
1728.78
1743.95
1758.54
1774.55
1791.48
1810.35
1832.1
1855.4
1878.45
1901.76
1926.75
1953.13
1980.22
2008.17
2036.13
2061.77
2083.3
2100.94
2115.78
2128.16
2137.77
2144.86
2150.66
2156.58
2163.33
2170.68
2178.02
2184.75
2190.53
2195.26
2199.17
2202.73
2206.48
2210.79
2215.68
2220.88
2226.02
2230.91
2235.68
2240.71
2246.34
2252.68
2259.36
2265.68
2270.78
2273.96
2274.76
2272.95
2268.37
2260.8
2249.91
2235.44
2217.38
2195.97
2171.64
2144.82
2115.76
2084.62
2051.7
2017.63
1983.4
1950.09
1918.52
1889.01
1861.33
1835.11
1810.16
1786.75
1765.56
1747.43
1733.17
1723.5
1719.2
1720.8
1727.79
1738.19
1749.7
1761.37
1771.99
1779.56
1787.46
1799.92
1812.26
1821.33
1826.55
1835.19
1841.51
1840.88
1845.61
1700.1
1698.06
1704.75
1707.62
1711.66
1716.49
1722.29
1728.85
1735.68
1747.02
1762.1
1778.25
1793.16
1807.08
1822.23
1838.38
1856.47
1877.43
1900.34
1923.37
1946.76
1972.11
1999.16
2026.87
2055.24
2084
2111.35
2135.36
2155.77
2173.38
2188.35
2199.78
2207.05
2210.89
2213.06
2215.18
2218.02
2221.41
2224.74
2227.38
2229
2229.75
2230.15
2230.86
2232.38
2234.78
2237.76
2240.85
2243.68
2246.22
2248.73
2251.52
2254.72
2258.11
2261.15
2263.16
2263.59
2262.15
2258.73
2253.29
2245.69
2235.65
2222.86
2207.16
2188.58
2167.34
2143.65
2117.75
2089.9
2060.52
2030.35
2000.31
1971.29
1943.89
1918.29
1894.35
1871.85
1850.79
1831.39
1813.97
1798.79
1786.04
1776.11
1770.05
1769.52
1775.32
1786.02
1798.73
1811.63
1823.49
1831.68
1839.55
1850.8
1864.88
1876.07
1881.43
1888.99
1893.81
1893.01
1898.7
1751.21
1748.37
1754.52
1758.5
1761.53
1764.62
1769.43
1775.43
1782.01
1792.98
1807.45
1823.22
1837.65
1850.92
1865.31
1880.71
1897.93
1917.95
1940.31
1963.15
1986.33
2011.41
2038.21
2065.4
2092.9
2121.22
2149.49
2175.87
2199.43
2220.35
2238.45
2252.5
2261.22
2264.73
2264.68
2263.26
2262.05
2261.52
2261.26
2260.49
2258.65
2255.77
2252.41
2249.42
2247.5
2246.92
2247.44
2248.5
2249.54
2250.28
2250.72
2251.03
2251.33
2251.49
2251.15
2249.89
2247.39
2243.59
2238.59
2232.5
2225.3
2216.75
2206.46
2194.07
2179.32
2162.08
2142.36
2120.27
2096.14
2070.51
2044.17
2017.97
1992.6
1968.5
1945.81
1924.57
1904.85
1886.88
1870.97
1857.27
1845.67
1835.82
1827.49
1821.3
1819.15
1822.91
1832.22
1844.6
1857.82
1870.66
1879.98
1888.39
1898.62
1913.79
1926.32
1932.01
1938.35
1941.24
1937.87
1944.02
1799.03
1794.63
1801.09
1806.53
1808.81
1810.37
1813.73
1818.34
1824.02
1833.66
1846.38
1860.72
1873.96
1886.28
1899.91
1914.75
1931.33
1950.6
1972.65
1995.61
2018.82
2043.62
2069.93
2096.19
2122.16
2149.09
2177.28
2205.38
2231.84
2255.99
2277.15
2293.94
2304.82
2309.44
2309.09
2305.99
2302.18
2298.62
2295.19
2291.13
2285.75
2278.93
2271.24
2263.69
2257.28
2252.55
2249.47
2247.54
2246.12
2244.7
2243.02
2241.09
2238.92
2236.43
2233.4
2229.6
2224.9
2219.42
2213.41
2207.14
2200.71
2193.91
2186.35
2177.48
2166.77
2153.82
2138.37
2120.46
2100.41
2078.83
2056.49
2034.11
2012.19
1991.02
1970.79
1951.74
1934.23
1918.64
1905.24
1894.15
1885.21
1878.07
1872.28
1867.86
1866.04
1868.69
1876.18
1886.98
1899.35
1912.44
1922.94
1932.05
1941.41
1956.66
1969.26
1974.58
1979.12
1980.22
1972.65
1978.29
1843.43
1838.2
1844.39
1851.97
1854.03
1854.3
1855.56
1857.85
1861.62
1868.65
1878.15
1889.66
1900.61
1911.29
1923.89
1938.31
1954.59
1973.5
1995.66
2019.34
2043.27
2068.4
2094.71
2120.48
2145.17
2170.44
2197.77
2226.63
2255.25
2282.06
2305.78
2324.92
2338
2344.45
2345.19
2342.14
2337.32
2331.91
2326
2318.98
2310.15
2299.32
2287.05
2274.47
2262.8
2252.91
2245.07
2238.98
2234.02
2229.6
2225.34
2221.06
2216.72
2212.23
2207.46
2202.24
2196.55
2190.54
2184.52
2178.81
2173.55
2168.63
2163.62
2157.91
2150.8
2141.67
2130.11
2116.1
2099.97
2082.38
2064.01
2045.43
2026.91
2008.63
1990.82
1973.98
1958.73
1945.52
1934.41
1925.25
1917.88
1912.27
1908.34
1906.05
1905.88
1908.87
1915.22
1924.07
1934.74
1947.21
1958.54
1968.06
1976.47
1990.84
2002.28
2006.25
2008.43
2008.58
1996.88
2001.01
1877.8
1875.09
1880.05
1889.03
1891.17
1890.56
1889.56
1889.35
1891
1894.98
1900.69
1908.72
1916.76
1925.31
1936.62
1950.63
1966.8
1985.56
2008.05
2032.81
2058.06
2084.23
2111.32
2137.5
2161.76
2185.71
2211.68
2240.15
2269.56
2297.78
2322.89
2343.24
2357.51
2365.2
2366.98
2364.39
2359.17
2352.44
2344.42
2334.63
2322.49
2307.84
2291.24
2273.86
2257.07
2241.98
2229.12
2218.43
2209.45
2201.63
2194.56
2188.01
2181.91
2176.18
2170.71
2165.33
2159.96
2154.67
2149.66
2145.19
2141.39
2138.19
2135.19
2131.76
2127.14
2120.62
2111.76
2100.54
2087.39
2073.01
2058.06
2042.99
2027.92
2012.88
1998.12
1984.27
1972.14
1962.19
1954.24
1947.65
1942.01
1937.48
1934.57
1933.77
1935.4
1939.65
1945.95
1953.27
1962.01
1973.2
1984.85
1994.25
2001.46
2014.31
2023.91
2025.78
2025.46
2025.98
2011.93
2013.75
1902.8
1903.23
1906.83
1915.29
1916.77
1915.1
1911.85
1909.34
1909.17
1910.39
1912.62
1917.42
1922.75
1929.22
1939.22
1952.9
1969.13
1987.84
2010.62
2036.47
2063.32
2091.02
2119.54
2147.08
2172.12
2195.77
2220.61
2247.99
2276.97
2305.3
2330.62
2351.05
2365.37
2373.18
2375.05
2372.27
2366.25
2357.95
2347.65
2335.02
2319.63
2301.4
2280.91
2259.33
2238.05
2218.3
2200.78
2185.65
2172.64
2161.35
2151.43
2142.75
2135.26
2128.92
2123.62
2119.14
2115.24
2111.78
2108.76
2106.27
2104.38
2102.98
2101.74
2100.02
2097.05
2092.09
2084.73
2075.02
2063.49
2050.93
2038.06
2025.32
2012.83
2000.6
1988.91
1978.38
1969.85
1963.82
1959.92
1957.07
1954.29
1951.52
1949.58
1949.62
1952.44
1958.03
1965.1
1971.75
1978.86
1988.5
1999.98
2008.74
2014.55
2025.75
2033.53
2033.17
2030.67
2032.79
2019.06
2017.85
1922.27
1924.39
1926.41
1932.68
1932.33
1929.15
1923.71
1919.24
1917.52
1916.33
1915.43
1917.39
1920.28
1924.73
1933.23
1946.3
1962.34
1980.74
2003.36
2029.82
2058.01
2087.26
2117.46
2146.97
2173.89
2198.53
2223.14
2249.51
2277.42
2304.95
2329.69
2349.59
2363.39
2370.71
2372.06
2368.52
2361.3
2351.28
2338.74
2323.52
2305.34
2284.19
2260.61
2235.69
2210.75
2186.98
2165.22
2145.78
2128.62
2113.56
2100.46
2089.33
2080.28
2073.34
2068.41
2065.17
2063.19
2062.09
2061.59
2061.57
2062.01
2062.79
2063.59
2063.78
2062.57
2059.2
2053.25
2044.8
2034.45
2023.01
2011.27
1999.71
1988.57
1978.03
1968.45
1960.48
1954.89
1952.12
1951.79
1952.64
1953.25
1953.01
1952.48
1953.04
1956.17
1962.37
1970.23
1976.84
1982.8
1990.88
2001.77
2009.51
2013.86
2023.75
2030.37
2028.32
2024.3
2028.47
2017.4
2012.64
1934.55
1938.44
1938.61
1941.84
1939.3
1934.87
1927.96
1922.27
1919.47
1916.15
1912.28
1911.45
1911.82
1913.82
1919.99
1931.36
1946.14
1963.21
1984.55
2010.39
2038.84
2068.86
2100.23
2131.56
2160.8
2187.41
2212.82
2238.7
2265.37
2291.53
2315.12
2334.19
2347.41
2354.31
2355.24
2351.11
2342.99
2331.74
2317.74
2300.98
2281.27
2258.62
2233.44
2206.59
2179.19
2152.33
2126.84
2103.22
2081.67
2062.31
2045.29
2030.9
2019.43
2011.08
2005.78
2003.15
2002.57
2003.39
2005.06
2007.29
2009.96
2012.98
2016.06
2018.62
2019.83
2018.9
2015.34
2009.22
2001.09
1991.71
1981.8
1971.82
1962.05
1952.78
1944.52
1938.02
1934.07
1933.11
1934.81
1937.99
1941.1
1943.12
1944.07
1944.96
1947.54
1953.11
1960.83
1967.21
1972.08
1978.5
1988.29
1994.69
1997.56
2006.65
2013.02
2010.35
2005.49
2010.98
2003.68
1995.51
1938.15
1944.09
1942.78
1942.54
1938.21
1933.46
1926.24
1920.45
1917.25
1912.29
1905.75
1902.27
1900.06
1899.19
1902.08
1910.39
1922.39
1936.67
1955.17
1978.61
2005.51
2034.68
2065.88
2098.05
2129.2
2158.1
2185.13
2211.35
2237.2
2262.03
2284.38
2302.68
2315.67
2322.74
2323.97
2320.02
2311.83
2300.28
2285.9
2268.85
2249.06
2226.49
2201.37
2174.23
2145.89
2117.19
2088.91
2061.65
2035.85
2011.94
1990.42
1971.88
1956.9
1945.91
1938.94
1935.61
1935.18
1936.78
1939.66
1943.36
1947.7
1952.62
1957.91
1963.04
1967.18
1969.45
1969.29
1966.64
1961.98
1956.01
1949.35
1942.38
1935.25
1928.14
1921.49
1916.06
1912.77
1912.25
1914.4
1918.22
1922.27
1925.38
1927.18
1928.06
1929.43
1933.19
1939.32
1944.48
1947.64
1951.87
1959.84
1964.44
1965.63
1974.08
1980.81
1978.64
1973.43
1978.37
1974.77
1964.36
1936.13
1942.43
1940.54
1936.71
1931.05
1926.56
1919.77
1914.42
1911.17
1904.94
1896.16
1890.44
1886.04
1882.54
1882.02
1886.69
1895.07
1905.69
1920.23
1939.75
1963.19
1989.46
2018.44
2049.57
2081.18
2111.64
2140.33
2167.46
2193.25
2217.42
2239.17
2257.45
2271.21
2279.68
2282.62
2280.31
2273.44
2262.81
2249.11
2232.69
2213.68
2192.1
2168.02
2141.74
2113.7
2084.5
2054.76
2025.08
1996.04
1968.29
1942.56
1919.72
1900.62
1885.92
1875.85
1870.16
1868.13
1868.83
1871.42
1875.35
1880.44
1886.67
1893.92
1901.71
1909.19
1915.37
1919.46
1921.19
1920.85
1919.06
1916.45
1913.36
1909.89
1905.98
1901.73
1897.61
1894.56
1893.55
1894.95
1898.11
1901.7
1904.61
1906.32
1906.73
1906.57
1907.79
1911.11
1913.85
1914.34
1915.6
1920.88
1923.14
1922.16
1929.37
1936.21
1935.16
1929.67
1931.81
1931.15
1920.85
1931.4
1935.8
1934.11
1927.3
1920.59
1916.27
1909.72
1904.4
1900.79
1893.29
1882.62
1875.2
1869.38
1864.22
1861.25
1863.05
1868.41
1875.85
1886.67
1901.95
1920.88
1942.62
1967.31
1995.02
2024.72
2054.75
2083.81
2111.32
2137.1
2161.03
2182.86
2202.02
2217.72
2229.12
2235.56
2236.82
2233.16
2225.13
2213.39
2198.48
2180.77
2160.46
2137.7
2112.68
2085.68
2057.1
2027.4
1997.1
1966.78
1937.08
1908.8
1882.84
1860.17
1841.6
1827.58
1818.06
1812.52
1810.18
1810.3
1812.45
1816.55
1822.73
1830.99
1840.98
1851.82
1862.39
1871.59
1878.73
1883.69
1886.81
1888.61
1889.58
1889.9
1889.46
1888.01
1885.55
1882.74
1880.8
1880.7
1882.35
1884.61
1886.36
1887.13
1886.62
1884.83
1883.35
1883.26
1882.78
1879.86
1877.49
1879.43
1878.87
1875.16
1879.75
1885.48
1885.28
1879.17
1876.69
1878.09
1870.78
1923.61
1925.06
1924.03
1915.32
1907.84
1903.31
1896.45
1890.37
1885.96
1877.23
1865.14
1856.61
1850.25
1844.59
1840.69
1841.27
1845.2
1851.04
1859.58
1871.67
1886.55
1903.46
1922.86
1945.46
1971.03
1998.24
2025.54
2051.78
2076.47
2099.55
2121.14
2141.12
2159
2173.88
2184.79
2190.99
2192.15
2188.37
2180.08
2167.84
2152.2
2133.62
2112.45
2089.01
2063.59
2036.56
2008.33
1979.33
1950.03
1920.94
1892.65
1865.89
1841.5
1820.26
1802.7
1788.98
1778.83
1771.76
1767.32
1765.35
1766.03
1769.75
1776.8
1787.01
1799.68
1813.67
1827.66
1840.52
1851.53
1860.41
1867.32
1872.63
1876.69
1879.59
1881.03
1880.62
1878.53
1875.92
1874.29
1874.21
1874.87
1875.08
1874.41
1872.6
1869.2
1865.15
1861.6
1857.62
1850.98
1844.67
1842.96
1839.46
1832.66
1832.95
1835.65
1835.27
1828.03
1820.34
1822.76
1820.29
1912.15
1910.18
1910.07
1900.26
1892.1
1886.99
1879.32
1871.93
1866.65
1857.14
1844.37
1835.35
1829.04
1823.64
1819.9
1820.57
1824.55
1830.27
1838.05
1848.45
1860.64
1873.85
1888.62
1906.13
1926.84
1949.96
1973.98
1997.53
2019.89
2041.05
2061.36
2081.09
2100.02
2117.38
2132.05
2142.9
2149.06
2150.13
2146.16
2137.54
2124.86
2108.77
2089.84
2068.57
2045.39
2020.72
1995.02
1968.71
1942.14
1915.66
1889.57
1864.31
1840.42
1818.49
1799.01
1782.22
1768.07
1756.34
1746.87
1739.78
1735.56
1734.86
1738.28
1745.96
1757.53
1772.06
1788.33
1805.07
1821.11
1835.56
1847.84
1857.82
1865.7
1871.8
1876.09
1878.15
1877.69
1875.45
1873.08
1871.81
1871.24
1870.21
1868.17
1865
1860.07
1853.73
1847
1839.62
1829.38
1819.12
1813.76
1807.52
1797.84
1792.49
1790.47
1788.61
1780.15
1767.91
1770.18
1771.83
1898.39
1892.09
1893.07
1882.33
1873.36
1867.15
1858.26
1849.2
1843.14
1833.37
1820.53
1811.16
1804.72
1799.26
1795.56
1796.42
1800.77
1806.8
1814.34
1823.84
1834.61
1845.81
1857.86
1872.03
1889.16
1908.88
1929.92
1950.86
1970.88
1989.93
2008.5
2027.07
2045.71
2063.88
2080.51
2094.33
2104.16
2109.17
2109.03
2103.92
2094.35
2081.03
2064.67
2045.87
2025.16
2003.06
1980.05
1956.61
1933.07
1909.65
1886.48
1863.74
1841.7
1820.76
1801.3
1783.58
1767.63
1753.39
1740.85
1730.27
1722.24
1717.55
1716.94
1720.81
1729.08
1741.19
1756.28
1773.33
1791.29
1808.99
1825.31
1839.29
1850.56
1859.32
1865.96
1870.39
1872.16
1871.35
1869.31
1867.59
1866.42
1864.67
1861.69
1857.36
1851.12
1842.85
1833.44
1823.14
1809.75
1795.86
1787.03
1778.61
1766.93
1755.75
1748.31
1744.43
1735.37
1720.41
1721.32
1724.87
1883.89
1872.74
1874.8
1863.11
1853.08
1845.25
1834.65
1823.5
1816.34
1806.2
1793.03
1782.45
1774.51
1767.31
1762
1761.63
1765.37
1770.99
1777.84
1786.33
1796.21
1806.82
1818.36
1831.83
1847.99
1866.62
1886.62
1906.63
1925.8
1943.98
1961.65
1979.36
1997.37
2015.4
2032.58
2047.69
2059.43
2066.73
2068.98
2066.14
2058.67
2047.25
2032.62
2015.42
1996.23
1975.57
1953.99
1932.03
1910.11
1888.47
1867.22
1846.45
1826.33
1807.14
1789.22
1772.8
1757.92
1744.5
1732.49
1722.03
1713.56
1707.76
1705.33
1706.72
1712
1720.89
1732.88
1747.41
1763.89
1781.54
1799.14
1815.22
1828.58
1838.92
1846.75
1852.56
1856.05
1856.8
1855.37
1853.33
1851.43
1848.94
1845.05
1839.59
1832.08
1822.15
1810.58
1798.01
1782.28
1765.36
1753.47
1743.59
1731.4
1715.56
1703.66
1698.27
1690.07
1674.83
1673.67
1678.02
1868.91
1853.57
1856.56
1844.04
1832.89
1823.02
1810.23
1796.36
1787.17
1775.7
1761.05
1747.56
1735.99
1724.6
1715.16
1711.19
1712.51
1716.55
1722.01
1729.12
1738.15
1748.95
1761.6
1776.65
1794.45
1814.59
1835.98
1857.33
1877.73
1896.97
1915.34
1933.38
1951.44
1969.44
1986.76
2002.34
2014.87
2023.14
2026.36
2024.35
2017.47
2006.39
1991.84
1974.46
1954.8
1933.42
1910.95
1888.05
1865.32
1843.2
1821.94
1801.72
1782.76
1765.38
1749.88
1736.49
1725.17
1715.71
1707.76
1701.15
1695.95
1692.51
1691.35
1692.88
1697.25
1704.3
1713.71
1725.19
1738.63
1753.85
1770.19
1786.2
1800.11
1810.86
1818.71
1824.53
1828.51
1829.89
1828.45
1825.29
1821.67
1817.45
1811.92
1804.74
1795.57
1783.8
1770.31
1756.06
1738.86
1719.73
1705.19
1694.52
1683.28
1665.01
1650.63
1645.01
1638.95
1626.08
1622.65
1628.39
1853.25
1835.05
1838.7
1825.45
1813.09
1800.93
1785.55
1768.37
1756.01
1742.13
1724.89
1707.27
1690.67
1673.53
1658.14
1648.64
1645.85
1647.32
1651.06
1656.79
1665.01
1676.1
1690.31
1707.82
1728.52
1751.66
1776.04
1800.34
1823.6
1845.4
1865.85
1885.32
1904.2
1922.57
1940.08
1955.84
1968.63
1977.17
1980.58
1978.56
1971.38
1959.69
1944.15
1925.34
1903.79
1880.06
1854.88
1829.14
1803.7
1779.28
1756.42
1735.51
1716.91
1701
1688.14
1678.5
1671.96
1668.07
1666.16
1665.55
1665.8
1666.83
1668.88
1672.37
1677.56
1684.49
1692.9
1702.5
1713.3
1725.55
1739.32
1753.75
1767.08
1777.62
1784.98
1790.06
1793.45
1794.47
1792.13
1786.97
1780.47
1773.31
1765.08
1755.35
1743.74
1729.6
1713.92
1698.13
1680.1
1659.49
1642.58
1631.28
1621.81
1603.25
1588.48
1583.35
1579.79
1570.84
1565.84
1572.31
1837.19
1816.95
1820.92
1806.73
1792.97
1778.34
1760.27
1739.63
1723.57
1707.11
1687.49
1666.42
1645.71
1623.86
1603.12
1588.02
1580.52
1578.88
1580.79
1585.32
1592.71
1603.62
1618.52
1637.55
1660.37
1686.08
1713.4
1740.96
1767.64
1792.72
1815.92
1837.37
1857.37
1876.16
1893.64
1909.2
1921.79
1930.21
1933.58
1931.58
1924.45
1912.71
1896.93
1877.52
1854.85
1829.42
1802
1773.64
1745.49
1718.6
1693.82
1671.78
1652.98
1637.9
1626.91
1620.19
1617.59
1618.53
1622.06
1627.13
1632.78
1638.45
1644.05
1649.89
1656.45
1664.02
1672.55
1681.63
1691.05
1701.02
1712.1
1724.28
1736.37
1746.49
1753.52
1757.85
1760.3
1760.39
1756.79
1749.33
1739.61
1728.98
1717.53
1704.71
1690.06
1672.82
1654.28
1636.53
1617.7
1596.03
1576.7
1564.35
1556.21
1538.68
1524.52
1519.54
1517.23
1512.23
1506.65
1511.8
1820.87
1798.72
1802.62
1787.23
1771.98
1755.03
1734.83
1711.5
1692.39
1674.62
1654.59
1632.88
1611.46
1588.71
1565.98
1547.52
1536.16
1531.24
1530.81
1533.6
1539.47
1548.95
1562.64
1580.83
1603.31
1629.4
1657.99
1687.77
1717.41
1745.71
1771.87
1795.52
1816.75
1835.86
1853.01
1867.92
1879.86
1887.93
1891.44
1890.22
1884.52
1874.8
1861.41
1844.45
1823.96
1800.14
1773.61
1745.39
1716.77
1689.03
1663.25
1640.28
1620.76
1605.23
1594.13
1587.74
1586.01
1588.49
1594.31
1602.31
1611.28
1620.25
1628.7
1636.68
1644.63
1653.1
1662.25
1671.75
1681.01
1689.86
1698.87
1708.73
1719.18
1728.69
1735.56
1739.45
1740.98
1740.05
1735.28
1726.08
1713.77
1700.26
1685.96
1670.27
1652.42
1631.56
1609.24
1588.55
1568.31
1545.41
1523.3
1508.76
1500.42
1483.7
1469.97
1463.55
1460.56
1457.97
1452.52
1455.7
1804.04
1779.98
1783.67
1767.36
1751.19
1732.73
1712
1687.84
1667.5
1650.69
1633.07
1614.25
1596.17
1577.15
1556.99
1538.7
1525.23
1517.09
1513.24
1512.71
1515.27
1521.27
1531.28
1545.72
1564.76
1588.19
1615.41
1645.37
1676.62
1707.5
1736.5
1762.65
1785.63
1805.64
1822.98
1837.68
1849.42
1857.68
1862.18
1863.04
1860.69
1855.56
1847.78
1837.05
1822.9
1805.03
1783.61
1759.39
1733.52
1707.3
1681.9
1658.29
1637.22
1619.33
1605.24
1595.42
1590.19
1589.51
1592.93
1599.62
1608.52
1618.52
1628.72
1638.64
1648.35
1658.23
1668.64
1679.37
1689.67
1698.84
1707.03
1715.2
1724.03
1732.69
1739.38
1742.92
1743.56
1741.47
1735.76
1725.52
1711.81
1696.5
1680.27
1662.3
1641.53
1616.85
1590.01
1565.19
1542.36
1517.62
1492.03
1473.89
1462.97
1445.75
1431.04
1421.52
1415.71
1413.77
1408.16
1411.11
1787.04
1761.62
1765.44
1749.58
1733.95
1715.63
1696.79
1674.31
1654.93
1641.11
1627.98
1614.19
1601.62
1588.86
1574.32
1559.07
1545.36
1534.42
1526.32
1520.87
1518.23
1518.78
1523.01
1531.41
1544.43
1562.43
1585.47
1613
1643.71
1675.68
1706.87
1735.71
1761.42
1783.93
1803.48
1820.2
1833.99
1844.64
1852.23
1857.17
1860.13
1861.59
1861.51
1859.25
1853.86
1844.5
1830.81
1813.08
1792.12
1769.04
1744.91
1720.69
1697.2
1675.22
1655.57
1639.13
1626.68
1618.77
1615.63
1617.03
1622.39
1630.82
1641.25
1652.72
1664.6
1676.76
1689.35
1702.31
1714.93
1726.13
1735.41
1743.48
1751.49
1759.53
1765.99
1769.18
1768.75
1765.22
1758.3
1747.29
1732.72
1716.28
1698.47
1678.5
1654.95
1626.51
1594.78
1564.92
1538.39
1511.02
1481.48
1458.44
1442.79
1423.15
1406.11
1392.23
1382.56
1379.16
1373.81
1376.44
1771.93
1746.35
1751.21
1738.12
1725.17
1708.9
1694.33
1675.63
1658.69
1648.28
1639.62
1630.42
1622.33
1614.76
1605.5
1593.95
1581.17
1568.51
1556.82
1546.77
1539.01
1534.12
1532.49
1534.52
1540.78
1552.04
1568.98
1591.68
1619.24
1649.87
1681.42
1712.06
1740.71
1767.04
1791.06
1812.73
1831.82
1848.1
1861.68
1873.07
1882.99
1891.92
1899.73
1905.61
1908.34
1906.77
1900.19
1888.56
1872.41
1852.58
1829.96
1805.39
1779.62
1753.49
1728.03
1704.45
1683.99
1667.79
1656.64
1650.92
1650.59
1655.18
1663.85
1675.46
1688.82
1703.11
1718.04
1733.5
1748.98
1763.31
1775.4
1785.23
1793.94
1802.16
1808.85
1811.99
1810.75
1805.7
1797.34
1785.29
1769.77
1751.87
1732.03
1709.46
1682.89
1650.78
1614.4
1579.34
1548.51
1518.11
1484.62
1456.35
1434.69
1411.48
1391.22
1373.17
1359.54
1352.98
1348.56
1348.17
1762.24
1738.19
1745.01
1737.28
1728.9
1716.11
1706.95
1692.66
1678.09
1669.48
1662.88
1655.53
1648.72
1642.76
1635.77
1626.33
1614.57
1601.56
1588.58
1576.73
1566.93
1559.69
1555.17
1553.47
1555.05
1560.86
1572.02
1589.18
1611.99
1639.13
1668.75
1699.21
1729.48
1759.14
1787.97
1815.62
1841.49
1865.02
1886.01
1904.74
1921.72
1937.31
1951.28
1962.79
1970.62
1973.62
1971.13
1963.1
1950.02
1932.67
1911.78
1888.02
1861.96
1834.33
1806.13
1778.69
1753.53
1732.07
1715.4
1704.15
1698.59
1698.65
1703.92
1713.53
1726.27
1740.88
1756.54
1772.98
1789.88
1806.34
1820.94
1832.96
1842.93
1851.76
1858.88
1862.39
1860.88
1854.85
1845.23
1832.17
1815.52
1795.86
1773.33
1747.62