/*--------------------------------*- C++ -*----------------------------------*\
| =========                 |                                                 |
| \\      /  F ield         | OpenFOAM: The Open Source CFD Toolbox           |
|  \\    /   O peration     | Version:  2406                                  |
|   \\  /    A nd           | Website:  www.openfoam.com                      |
|    \\/     M anipulation  |                                                 |
\*---------------------------------------------------------------------------*/
FoamFile
{
    version     2.0;
    format      ascii;
    arch        "LSB;label=32;scalar=64";
    class       surfaceScalarField;
    location    "8";
    object      phi;
}
// * * * * * * * * * * * * * * * * * * * * * * * * * * * * * * * * * * * * * //

dimensions      [0 3 -1 0 0 0 0];

oriented        oriented;

internalField   nonuniform List<scalar> 
19800
(
2.42073e-14
-7.02645e-14
-3.28706e-14
-1.38216e-13
-6.06424e-14
-1.4158e-13
-6.87635e-14
-1.3778e-13
-9.34358e-14
-1.32272e-13
-1.17071e-13
-1.1932e-13
-1.25787e-13
-1.04934e-13
-1.35486e-13
-1.03749e-13
-1.63507e-13
-1.08197e-13
-1.87902e-13
-1.04213e-13
-2.00253e-13
-9.71789e-14
-2.03513e-13
-9.9093e-14
-2.03621e-13
-1.11352e-13
-2.00391e-13
-1.26714e-13
-1.91029e-13
-1.40389e-13
-1.79241e-13
-1.53999e-13
-1.72769e-13
-1.69699e-13
-1.75632e-13
-1.85929e-13
-1.87831e-13
-1.97065e-13
-2.00626e-13
-1.98733e-13
-2.04949e-13
-1.92724e-13
-2.01366e-13
-1.82614e-13
-1.91241e-13
-1.70133e-13
-1.75152e-13
-1.58167e-13
-1.58967e-13
-1.49837e-13
-1.49517e-13
-1.44027e-13
-1.4669e-13
-1.3699e-13
-1.4566e-13
-1.27616e-13
-1.43839e-13
-1.1808e-13
-1.41873e-13
-1.1046e-13
-1.40579e-13
-1.05104e-13
-1.40014e-13
-1.01808e-13
-1.40535e-13
-1.00826e-13
-1.43293e-13
-1.02294e-13
-1.49761e-13
-1.05177e-13
-1.60963e-13
-1.07277e-13
-1.77015e-13
-1.06622e-13
-1.9732e-13
-1.02923e-13
-2.2096e-13
-9.76647e-14
-2.46685e-13
-9.28154e-14
-2.72708e-13
-8.94932e-14
-2.96912e-13
-8.75754e-14
-3.1739e-13
-8.6165e-14
-3.32856e-13
-8.43301e-14
-3.42728e-13
-8.16748e-14
-3.47047e-13
-7.85145e-14
-3.46322e-13
-7.55946e-14
-3.41206e-13
-7.35573e-14
-3.32104e-13
-7.25259e-14
-3.18934e-13
-7.20394e-14
-3.01209e-13
-7.12637e-14
-2.78295e-13
-6.92593e-14
-2.49622e-13
-6.51791e-14
-2.14771e-13
-5.84258e-14
-1.7351e-13
-4.88173e-14
-1.25911e-13
-3.67197e-14
-7.25373e-14
-2.30363e-14
-1.45539e-14
-8.97828e-15
4.63705e-14
4.34298e-15
1.08379e-13
1.63428e-14
1.69809e-13
2.72069e-14
2.29426e-13
3.77992e-14
2.86404e-13
4.92302e-14
3.40131e-13
6.22464e-14
3.90076e-13
7.67211e-14
4.3586e-13
9.1488e-14
4.775e-13
1.04591e-13
5.15528e-13
1.13793e-13
5.50669e-13
1.17077e-13
5.83108e-13
1.12921e-13
6.11701e-13
1.00362e-13
6.33727e-13
7.89959e-14
6.45527e-13
4.91269e-14
6.4382e-13
1.20187e-14
6.26982e-13
-2.99451e-14
5.95593e-13
-7.34784e-14
5.52028e-13
-1.14985e-13
4.99534e-13
-1.51322e-13
4.41487e-13
-1.803e-13
3.81207e-13
-2.00791e-13
3.2206e-13
-2.12491e-13
2.67221e-13
-2.15758e-13
2.18741e-13
-2.11658e-13
1.76374e-13
-2.02187e-13
1.37165e-13
-1.90182e-13
9.67517e-14
-1.78702e-13
5.21777e-14
-1.69986e-13
4.68929e-15
-1.64777e-13
-3.96144e-14
-1.62458e-13
-7.22905e-14
-1.6206e-13
-8.74385e-14
-1.63378e-13
-8.65676e-14
-1.67006e-13
-7.8652e-14
-1.73419e-13
-7.14026e-14
-1.83834e-13
-6.49746e-14
-2.00119e-13
-6.59667e-14
-2.10336e-13
-6.38121e-14
-1.9846e-13
-2.74263e-14
-1.9247e-13
-3.09107e-14
-1.63189e-13
-6.35274e-14
1.29042e-14
-7.48713e-14
-4.34775e-14
-1.86485e-13
-1.08227e-13
-2.29361e-13
-1.36652e-13
-2.44052e-13
-1.77268e-13
-2.45487e-13
-2.2102e-13
-2.50893e-13
-2.57967e-13
-2.60469e-13
-2.89744e-13
-2.657e-13
-3.34416e-13
-2.6756e-13
-3.80335e-13
-2.62561e-13
-4.17639e-13
-2.53234e-13
-4.38404e-13
-2.45905e-13
-4.4287e-13
-2.43758e-13
-4.34228e-13
-2.47376e-13
-4.1641e-13
-2.56903e-13
-3.97179e-13
-2.72845e-13
-3.86404e-13
-2.93227e-13
-3.87227e-13
-3.12765e-13
-3.99631e-13
-3.2617e-13
-4.14772e-13
-3.30549e-13
-4.18812e-13
-3.26685e-13
-4.08952e-13
-3.19212e-13
-3.8874e-13
-3.12956e-13
-3.61012e-13
-3.10483e-13
-3.3211e-13
-3.11965e-13
-3.11098e-13
-3.15033e-13
-3.01107e-13
-3.1575e-13
-2.97652e-13
-3.1102e-13
-2.95649e-13
-3.0024e-13
-2.93675e-13
-2.85152e-13
-2.9244e-13
-2.687e-13
-2.92817e-13
-2.53783e-13
-2.95557e-13
-2.42181e-13
-3.01589e-13
-2.33999e-13
-3.12451e-13
-2.27936e-13
-3.30469e-13
-2.2215e-13
-3.58017e-13
-2.15202e-13
-3.9616e-13
-2.06694e-13
-4.43679e-13
-1.9729e-13
-4.9699e-13
-1.88048e-13
-5.50992e-13
-1.7946e-13
-6.00505e-13
-1.70938e-13
-6.41621e-13
-1.61149e-13
-6.7228e-13
-1.48945e-13
-6.92003e-13
-1.34214e-13
-7.01241e-13
-1.18144e-13
-7.00754e-13
-1.02817e-13
-6.9115e-13
-9.04451e-14
-6.7254e-13
-8.26281e-14
-6.44412e-13
-7.99016e-14
-6.05795e-13
-8.16059e-14
-5.55631e-13
-8.60302e-14
-4.9311e-13
-9.07904e-14
-4.17861e-13
-9.34146e-14
-3.30037e-13
-9.20351e-14
-2.30409e-13
-8.59658e-14
-1.20466e-13
-7.59041e-14
-2.42435e-15
-6.36041e-14
1.21004e-13
-5.11064e-14
2.47003e-13
-3.98438e-14
3.73e-13
-3.00403e-14
4.96716e-13
-2.07066e-14
6.15942e-13
-1.02527e-14
7.28306e-13
2.58258e-15
8.31433e-13
1.79498e-14
9.2358e-13
3.46438e-14
1.00439e-12
5.04653e-14
1.07504e-12
6.29222e-14
1.13743e-12
6.98263e-14
1.19246e-12
6.95019e-14
1.23851e-12
6.06457e-14
1.27118e-12
4.21902e-14
1.2846e-12
1.34736e-14
1.27381e-12
-2.52473e-14
1.23673e-12
-7.23197e-14
1.17484e-12
-1.24656e-13
1.09222e-12
-1.78336e-13
9.94198e-13
-2.2953e-13
8.8637e-13
-2.75278e-13
7.74519e-13
-3.13728e-13
6.64608e-13
-3.43938e-13
5.61881e-13
-3.65551e-13
4.68986e-13
-3.78753e-13
3.84164e-13
-3.84431e-13
3.01424e-13
-3.84276e-13
2.1356e-13
-3.80403e-13
1.17163e-13
-3.74673e-13
1.67584e-14
-3.68199e-13
-7.51324e-14
-3.61348e-13
-1.43167e-13
-3.5409e-13
-1.77438e-13
-3.47064e-13
-1.80897e-13
-3.43012e-13
-1.70681e-13
-3.45496e-13
-1.63334e-13
-3.55163e-13
-1.46026e-13
-3.71793e-13
-1.22771e-13
-3.92767e-13
-1.26747e-13
-3.97528e-13
-6.08223e-14
-3.81303e-13
-1.72116e-14
-3.46489e-13
-1.52434e-13
-7.14423e-15
-1.41757e-13
-5.98936e-14
-2.97482e-13
-1.39311e-13
-3.45832e-13
-1.74612e-13
-3.62422e-13
-2.30901e-13
-3.67708e-13
-2.87517e-13
-3.68298e-13
-3.27373e-13
-3.7599e-13
-3.63883e-13
-3.89164e-13
-4.11802e-13
-4.00368e-13
-4.63348e-13
-4.00116e-13
-5.09478e-13
-3.903e-13
-5.3857e-13
-3.80436e-13
-5.49347e-13
-3.78663e-13
-5.45227e-13
-3.8661e-13
-5.31038e-13
-4.01615e-13
-5.13405e-13
-4.20801e-13
-5.00915e-13
-4.41679e-13
-4.97968e-13
-4.59112e-13
-5.06135e-13
-4.67477e-13
-5.17679e-13
-4.65882e-13
-5.20063e-13
-4.56888e-13
-5.09705e-13
-4.4422e-13
-4.88277e-13
-4.32631e-13
-4.57404e-13
-4.27011e-13
-4.22807e-13
-4.29025e-13
-3.93794e-13
-4.35337e-13
-3.74716e-13
-4.40545e-13
-3.62647e-13
-4.41213e-13
-3.53856e-13
-4.3699e-13
-3.47853e-13
-4.29354e-13
-3.45565e-13
-4.20189e-13
-3.4715e-13
-4.1101e-13
-3.52097e-13
-4.02636e-13
-3.60329e-13
-3.95041e-13
-3.73241e-13
-3.87393e-13
-3.93902e-13
-3.7841e-13
-4.25891e-13
-3.67044e-13
-4.71227e-13
-3.53092e-13
-5.28664e-13
-3.37288e-13
-5.93375e-13
-3.20732e-13
-6.58331e-13
-3.04074e-13
-7.16728e-13
-2.87015e-13
-7.64076e-13
-2.68501e-13
-7.98825e-13
-2.4751e-13
-8.2155e-13
-2.23961e-13
-8.33606e-13
-1.99164e-13
-8.36062e-13
-1.75498e-13
-8.29144e-13
-1.5552e-13
-8.12034e-13
-1.40992e-13
-7.82985e-13
-1.32247e-13
-7.39769e-13
-1.28066e-13
-6.80345e-13
-1.2601e-13
-6.03488e-13
-1.23084e-13
-5.09142e-13
-1.16591e-13
-3.98446e-13
-1.04959e-13
-2.73518e-13
-8.82466e-14
-1.37104e-13
-6.81048e-14
7.82172e-15
-4.71244e-14
1.58445e-13
-2.78134e-14
3.12339e-13
-1.16279e-14
4.67358e-13
1.49696e-15
6.21178e-13
1.28845e-14
7.70752e-13
2.42377e-14
9.12184e-13
3.65746e-14
1.04137e-12
4.95112e-14
1.15527e-12
6.12364e-14
1.25309e-12
6.91353e-14
1.33637e-12
7.06505e-14
1.40764e-12
6.38879e-14
1.46818e-12
4.77052e-14
1.51619e-12
2.14556e-14
1.54673e-12
-1.52115e-14
1.55361e-12
-6.21478e-14
1.53211e-12
-1.1819e-13
1.48103e-12
-1.80717e-13
1.40292e-12
-2.45763e-13
1.30272e-12
-3.08768e-13
1.18624e-12
-3.657e-13
1.05949e-12
-4.13971e-13
9.2883e-13
-4.52823e-13
8.01004e-13
-4.83052e-13
6.81854e-13
-5.06374e-13
5.73855e-13
-5.24669e-13
4.74157e-13
-5.39437e-13
3.75194e-13
-5.51515e-13
2.68646e-13
-5.61098e-13
1.51211e-13
-5.67891e-13
2.91182e-14
-5.71554e-13
-8.20962e-14
-5.72227e-13
-1.64482e-13
-5.70549e-13
-2.08132e-13
-5.67541e-13
-2.17951e-13
-5.65747e-13
-2.12139e-13
-5.68926e-13
-2.10489e-13
-5.75045e-13
-2.00874e-13
-5.78068e-13
-1.68557e-13
-5.86331e-13
-1.65326e-13
-5.89961e-13
-1.17436e-13
-5.50905e-13
4.92764e-15
-4.82694e-13
-2.49585e-13
-1.7523e-14
-1.86967e-13
-5.6409e-14
-4.14108e-13
-1.50942e-13
-5.01525e-13
-1.93591e-13
-5.28309e-13
-2.54332e-13
-5.35929e-13
-3.22088e-13
-5.37126e-13
-3.69069e-13
-5.37657e-13
-4.06487e-13
-5.4015e-13
-4.48141e-13
-5.39196e-13
-4.94982e-13
-5.2636e-13
-5.43475e-13
-5.05298e-13
-5.81171e-13
-4.85338e-13
-6.01751e-13
-4.75105e-13
-6.04717e-13
-4.76971e-13
-5.94227e-13
-4.87926e-13
-5.77327e-13
-5.03239e-13
-5.60843e-13
-5.20044e-13
-5.4949e-13
-5.35288e-13
-5.49207e-13
-5.4414e-13
-5.54468e-13
-5.45086e-13
-5.53141e-13
-5.41224e-13
-5.42419e-13
-5.36583e-13
-5.23962e-13
-5.34194e-13
-4.96604e-13
-5.37079e-13
-4.6227e-13
-5.4678e-13
-4.29103e-13
-5.60835e-13
-4.03293e-13
-5.74197e-13
-3.84398e-13
-5.83068e-13
-3.70243e-13
-5.8674e-13
-3.60854e-13
-5.86828e-13
-3.56989e-13
-5.8557e-13
-3.58256e-13
-5.84276e-13
-3.6344e-13
-5.82535e-13
-3.7182e-13
-5.78666e-13
-3.84477e-13
-5.70863e-13
-4.04739e-13
-5.5792e-13
-4.36929e-13
-5.39191e-13
-4.83799e-13
-5.1439e-13
-5.44222e-13
-4.83709e-13
-6.12641e-13
-4.48078e-13
-6.80786e-13
-4.09106e-13
-7.40828e-13
-3.68642e-13
-7.88111e-13
-3.28309e-13
-8.21936e-13
-2.89367e-13
-8.44277e-13
-2.52959e-13
-8.57668e-13
-2.20382e-13
-8.63546e-13
-1.93018e-13
-8.61537e-13
-1.71845e-13
-8.49512e-13
-1.56825e-13
-8.24164e-13
-1.46558e-13
-7.81908e-13
-1.38424e-13
-7.1993e-13
-1.29186e-13
-6.3704e-13
-1.15857e-13
-5.34037e-13
-9.65614e-14
-4.13436e-13
-7.11474e-14
-2.78749e-13
-4.13329e-14
-1.33594e-13
-1.02877e-14
1.90479e-14
1.8282e-14
1.77158e-13
4.12686e-14
3.39465e-13
5.71004e-14
5.04686e-13
6.60923e-14
6.70523e-13
7.00388e-14
8.32963e-13
7.12229e-14
9.86476e-13
7.13052e-14
1.12531e-12
7.06168e-14
1.24541e-12
6.81591e-14
1.34585e-12
6.21924e-14
1.42875e-12
5.09801e-14
1.49741e-12
3.32132e-14
1.55364e-12
7.96771e-15
1.5959e-12
-2.55729e-14
1.61952e-12
-6.81707e-14
1.61895e-12
-1.20138e-13
1.5905e-12
-1.80645e-13
1.53409e-12
-2.47253e-13
1.45287e-12
-3.16088e-13
1.3516e-12
-3.82741e-13
1.23513e-12
-4.43448e-13
1.1082e-12
-4.96048e-13
9.76107e-13
-5.40255e-13
8.45134e-13
-5.77289e-13
7.21261e-13
-6.0906e-13
6.07489e-13
-6.37328e-13
5.01465e-13
-6.6301e-13
3.95903e-13
-6.85935e-13
2.82572e-13
-7.05057e-13
1.58198e-13
-7.19048e-13
2.91871e-14
-7.26967e-13
-8.80735e-14
-7.29193e-13
-1.74268e-13
-7.28258e-13
-2.19854e-13
-7.2861e-13
-2.32014e-13
-7.35648e-13
-2.26718e-13
-7.54195e-13
-2.22962e-13
-7.80277e-13
-2.24951e-13
-7.93966e-13
-2.06117e-13
-7.95431e-13
-1.87026e-13
-7.86201e-13
-1.7395e-13
-7.21276e-13
-1.86439e-14
-6.00194e-13
-3.2534e-13
-4.22858e-14
-2.43984e-13
-6.33699e-14
-5.27001e-13
-1.56975e-13
-6.43138e-13
-2.02489e-13
-6.82943e-13
-2.62863e-13
-6.96424e-13
-3.32605e-13
-7.00083e-13
-3.82598e-13
-6.96264e-13
-4.18536e-13
-6.90103e-13
-4.51662e-13
-6.8081e-13
-4.93717e-13
-6.60909e-13
-5.45387e-13
-6.33192e-13
-5.93784e-13
-6.05942e-13
-6.26972e-13
-5.87673e-13
-6.39383e-13
-5.80775e-13
-6.33064e-13
-5.82649e-13
-6.1666e-13
-5.88815e-13
-5.97206e-13
-5.96697e-13
-5.78221e-13
-6.05086e-13
-5.6894e-13
-6.11635e-13
-5.67864e-13
-6.14901e-13
-5.63546e-13
-6.16302e-13
-5.524e-13
-6.18453e-13
-5.36167e-13
-6.23176e-13
-5.12382e-13
-6.3244e-13
-4.79602e-13
-6.47804e-13
-4.43994e-13
-6.67875e-13
-4.12983e-13
-6.88601e-13
-3.88809e-13
-7.06393e-13
-3.71284e-13
-7.20118e-13
-3.60929e-13
-7.30682e-13
-3.57553e-13
-7.39604e-13
-3.5912e-13
-7.47622e-13
-3.63228e-13
-7.53796e-13
-3.69022e-13
-7.55767e-13
-3.78074e-13
-7.51069e-13
-3.94158e-13
-7.38202e-13
-4.21886e-13
-7.16548e-13
-4.64435e-13
-6.85656e-13
-5.21314e-13
-6.4509e-13
-5.87505e-13
-5.95173e-13
-6.54844e-13
-5.37854e-13
-7.15186e-13
-4.76745e-13
-7.63518e-13
-4.16188e-13
-7.99087e-13
-3.60008e-13
-8.24137e-13
-3.1071e-13
-8.41434e-13
-2.69372e-13
-8.52187e-13
-2.35889e-13
-8.55181e-13
-2.09216e-13
-8.47077e-13
-1.87467e-13
-8.23444e-13
-1.68043e-13
-7.8011e-13
-1.47968e-13
-7.1447e-13
-1.24458e-13
-6.26335e-13
-9.55865e-14
-5.18028e-13
-6.08627e-14
-3.93671e-13
-2.15281e-14
-2.57922e-13
1.95454e-14
-1.1466e-13
5.84079e-14
3.39065e-14
9.09473e-14
1.87329e-13
1.13929e-13
3.46119e-13
1.25808e-13
5.10284e-13
1.26977e-13
6.77798e-13
1.1935e-13
8.43819e-13
1.0544e-13
1.00129e-12
8.73868e-14
1.14292e-12
6.63899e-14
1.26368e-12
4.27402e-14
1.36246e-12
1.62854e-14
1.44167e-12
-1.31146e-14
1.50504e-12
-4.54964e-14
1.55465e-12
-8.10942e-14
1.58921e-12
-1.20671e-13
1.60466e-12
-1.65465e-13
1.59659e-12
-2.16582e-13
1.56285e-12
-2.74142e-13
1.50463e-12
-3.3669e-13
1.42556e-12
-4.01326e-13
1.32976e-12
-4.64509e-13
1.22054e-12
-5.23239e-13
1.10081e-12
-5.75995e-13
9.74331e-13
-6.23124e-13
8.46581e-13
-6.66459e-13
7.23588e-13
-7.08421e-13
6.09051e-13
-7.50826e-13
5.01628e-13
-7.9384e-13
3.9483e-13
-8.35461e-13
2.80771e-13
-8.72078e-13
1.56038e-13
-8.99875e-13
2.6347e-14
-9.16199e-13
-9.29672e-14
-9.20568e-13
-1.83023e-13
-9.16177e-13
-2.33887e-13
-9.10698e-13
-2.53073e-13
-9.1308e-13
-2.52197e-13
-9.29454e-13
-2.37149e-13
-9.62378e-13
-2.35213e-13
-9.95398e-13
-2.28258e-13
-1.01226e-12
-1.94727e-13
-9.98397e-13
-2.08725e-13
-9.18583e-13
-7.29358e-14
-7.42202e-13
-3.89841e-13
-6.5123e-14
-3.0195e-13
-7.23411e-14
-6.34386e-13
-1.63166e-13
-7.71891e-13
-2.08051e-13
-8.17662e-13
-2.66802e-13
-8.34752e-13
-3.30965e-13
-8.41944e-13
-3.79926e-13
-8.36688e-13
-4.14383e-13
-8.23572e-13
-4.4016e-13
-8.06404e-13
-4.78123e-13
-7.82983e-13
-5.32975e-13
-7.54291e-13
-5.91885e-13
-7.24187e-13
-6.37232e-13
-6.98733e-13
-6.58798e-13
-6.80345e-13
-6.56535e-13
-6.68136e-13
-6.40547e-13
-6.6012e-13
-6.19435e-13
-6.56133e-13
-5.96078e-13
-6.56592e-13
-5.80756e-13
-6.60287e-13
-5.74635e-13
-6.65595e-13
-5.6751e-13
-6.72435e-13
-5.55287e-13
-6.81749e-13
-5.40034e-13
-6.94088e-13
-5.1911e-13
-7.10701e-13
-4.88735e-13
-7.33297e-13
-4.52947e-13
-7.61348e-13
-4.196e-13
-7.91373e-13
-3.92988e-13
-8.19295e-13
-3.74582e-13
-8.42639e-13
-3.65245e-13
-8.60904e-13
-3.63777e-13
-8.74952e-13
-3.66323e-13
-8.85921e-13
-3.69008e-13
-8.93872e-13
-3.70787e-13
-8.97215e-13
-3.74023e-13
-8.93586e-13
-3.83194e-13
-8.81191e-13
-4.0301e-13
-8.59108e-13
-4.367e-13
-8.26572e-13
-4.8457e-13
-7.82564e-13
-5.43195e-13
-7.26606e-13
-6.05994e-13
-6.60148e-13
-6.65516e-13
-5.87171e-13
-7.16277e-13
-5.1326e-13
-7.56341e-13
-4.43702e-13
-7.86675e-13
-3.81806e-13
-8.09026e-13
-3.28321e-13
-8.23825e-13
-2.81921e-13
-8.29197e-13
-2.4019e-13
-8.2129e-13
-2.00507e-13
-7.95487e-13
-1.60596e-13
-7.47974e-13
-1.18796e-13
-6.7711e-13
-7.41883e-14
-5.84149e-13
-2.67184e-14
-4.73031e-13
2.27011e-14
-3.49261e-13
7.21381e-14
-2.18237e-13
1.18747e-13
-8.36384e-14
1.59119e-13
5.35047e-14
1.8988e-13
1.9462e-13
2.08417e-13
3.42219e-13
2.1347e-13
4.97789e-13
2.05325e-13
6.59808e-13
1.8552e-13
8.22938e-13
1.56203e-13
9.79025e-13
1.19482e-13
1.11967e-12
7.71219e-14
1.23916e-12
3.06564e-14
1.33617e-12
-1.83168e-14
1.4131e-12
-6.80357e-14
1.47352e-12
-1.16908e-13
1.51919e-12
-1.64125e-13
1.54866e-12
-2.10113e-13
1.55828e-12
-2.56398e-13
1.54477e-12
-3.04828e-13
1.50756e-12
-3.5652e-13
1.44921e-12
-4.11165e-13
1.37386e-12
-4.67067e-13
1.28499e-12
-5.2195e-13
1.18431e-12
-5.74085e-13
1.07268e-12
-6.23228e-13
9.52159e-13
-6.70846e-13
8.27342e-13
-7.1958e-13
7.04529e-13
-7.7207e-13
5.88802e-13
-8.29691e-13
4.80765e-13
-8.91561e-13
3.75542e-13
-9.54275e-13
2.65653e-13
-1.01257e-12
1.4698e-13
-1.06098e-12
2.37639e-14
-1.09525e-12
-9.12336e-14
-1.11304e-12
-1.82143e-13
-1.11562e-12
-2.392e-13
-1.11087e-12
-2.67504e-13
-1.11012e-12
-2.79888e-13
-1.11722e-12
-2.66298e-13
-1.13561e-12
-2.57085e-13
-1.16897e-12
-2.44772e-13
-1.20117e-12
-1.97341e-13
-1.19013e-12
-2.16786e-13
-1.09998e-12
-1.17932e-13
-8.77129e-13
-4.42025e-13
-7.81543e-14
-3.62028e-13
-7.49707e-14
-7.40104e-13
-1.62733e-13
-9.01885e-13
-2.11261e-13
-9.54436e-13
-2.7019e-13
-9.74005e-13
-3.26089e-13
-9.80916e-13
-3.69078e-13
-9.74938e-13
-4.01396e-13
-9.59718e-13
-4.23582e-13
-9.39365e-13
-4.59553e-13
-9.15528e-13
-5.15826e-13
-8.88406e-13
-5.8127e-13
-8.57711e-13
-6.34554e-13
-8.26815e-13
-6.62462e-13
-7.98633e-13
-6.63773e-13
-7.74513e-13
-6.50083e-13
-7.5466e-13
-6.30673e-13
-7.40988e-13
-6.07378e-13
-7.35174e-13
-5.9028e-13
-7.36113e-13
-5.81923e-13
-7.41109e-13
-5.73226e-13
-7.48987e-13
-5.60125e-13
-7.60303e-13
-5.45631e-13
-7.75499e-13
-5.27778e-13
-7.95512e-13
-5.01093e-13
-8.21866e-13
-4.67202e-13
-8.54187e-13
-4.33362e-13
-8.89075e-13
-4.05051e-13
-9.22084e-13
-3.85269e-13
-9.49944e-13
-3.75859e-13
-9.71218e-13
-3.75549e-13
-9.86282e-13
-3.79162e-13
-9.96866e-13
-3.81058e-13
-1.00455e-12
-3.79318e-13
-1.00912e-12
-3.76675e-13
-1.00845e-12
-3.78264e-13
-9.99909e-13
-3.88864e-13
-9.81577e-13
-4.11516e-13
-9.52153e-13
-4.47169e-13
-9.10407e-13
-4.94343e-13
-8.55496e-13
-5.48926e-13
-7.88216e-13
-6.0503e-13
-7.11968e-13
-6.5694e-13
-6.3223e-13
-7.00915e-13
-5.54615e-13
-7.35585e-13
-4.82741e-13
-7.60845e-13
-4.17225e-13
-7.76238e-13
-3.56178e-13
-7.79896e-13
-2.96668e-13
-7.68541e-13
-2.3623e-13
-7.38405e-13
-1.73777e-13
-6.86637e-13
-1.0973e-13
-6.1261e-13
-4.5615e-14
-5.1859e-13
1.65241e-14
-4.09444e-13
7.4585e-14
-2.91355e-13
1.26606e-13
-1.69945e-13
1.70761e-13
-4.84783e-14
2.05316e-13
7.31179e-14
2.28713e-13
1.97868e-13
2.398e-13
3.29972e-13
2.38095e-13
4.7221e-13
2.23901e-13
6.23657e-13
1.98153e-13
7.7888e-13
1.62117e-13
9.29268e-13
1.17145e-13
1.06601e-12
6.46912e-14
1.18326e-12
6.55776e-15
1.27963e-12
-5.48989e-14
1.35727e-12
-1.16928e-13
1.41903e-12
-1.77002e-13
1.46568e-12
-2.33629e-13
1.49496e-12
-2.86872e-13
1.50315e-12
-3.38189e-13
1.48784e-12
-3.89596e-13
1.44989e-12
-4.42594e-13
1.39317e-12
-4.97414e-13
1.32224e-12
-5.53018e-13
1.23987e-12
-6.07811e-13
1.14612e-12
-6.60728e-13
1.03989e-12
-7.12108e-13
9.21758e-13
-7.63933e-13
7.95965e-13
-8.19211e-13
6.69737e-13
-8.80729e-13
5.50083e-13
-9.49605e-13
4.39973e-13
-1.02434e-12
3.36379e-13
-1.10069e-12
2.32329e-13
-1.17254e-12
1.2296e-13
-1.23352e-12
1.13229e-14
-1.27877e-12
-9.22359e-14
-1.3054e-12
-1.7688e-13
-1.31294e-12
-2.35773e-13
-1.30712e-12
-2.67487e-13
-1.30201e-12
-2.88224e-13
-1.30473e-12
-2.91003e-13
-1.30778e-12
-2.90781e-13
-1.32229e-12
-2.61409e-13
-1.3451e-12
-1.9578e-13
-1.33079e-12
-2.03355e-13
-1.23304e-12
-1.37908e-13
-9.75874e-13
-4.75645e-13
-8.04668e-14
-4.05602e-13
-7.65571e-14
-8.23802e-13
-1.57859e-13
-1.0061e-12
-2.12783e-13
-1.06492e-12
-2.72422e-13
-1.08514e-12
-3.21257e-13
-1.08704e-12
-3.57963e-13
-1.07395e-12
-3.8671e-13
-1.05396e-12
-4.07151e-13
-1.03141e-12
-4.42038e-13
-1.00971e-12
-4.97072e-13
-9.87173e-13
-5.64105e-13
-9.59107e-13
-6.20949e-13
-9.25216e-13
-6.52928e-13
-8.8922e-13
-6.57753e-13
-8.56297e-13
-6.48478e-13
-8.29873e-13
-6.34168e-13
-8.13112e-13
-6.1442e-13
-8.07552e-13
-5.98085e-13
-8.11322e-13
-5.89057e-13
-8.20214e-13
-5.79993e-13
-8.31798e-13
-5.67147e-13
-8.46528e-13
-5.54379e-13
-8.65272e-13
-5.40487e-13
-8.88891e-13
-5.18535e-13
-9.18382e-13
-4.876e-13
-9.52908e-13
-4.53898e-13
-9.88706e-13
-4.23682e-13
-1.02101e-12
-4.01385e-13
-1.04626e-12
-3.90327e-13
-1.06274e-12
-3.90208e-13
-1.07061e-12
-3.95358e-13
-1.07213e-12
-3.98152e-13
-1.07061e-12
-3.94676e-13
-1.06801e-12
-3.87022e-13
-1.06359e-12
-3.80818e-13
-1.05463e-12
-3.8135e-13
-1.03829e-12
-3.91783e-13
-1.01253e-12
-4.13569e-13
-9.75862e-13
-4.46921e-13
-9.27107e-13
-4.90277e-13
-8.66029e-13
-5.39767e-13
-7.94319e-13
-5.89865e-13
-7.15693e-13
-6.3505e-13
-6.34603e-13
-6.71241e-13
-5.54354e-13
-6.96127e-13
-4.75893e-13
-7.08468e-13
-3.98019e-13
-7.07099e-13
-3.18757e-13
-6.90338e-13
-2.36976e-13
-6.56148e-13
-1.5339e-13
-6.02974e-13
-7.05681e-14
-5.30833e-13
7.85722e-15
-4.4207e-13
7.82989e-14
-3.41299e-13
1.38106e-13
-2.34319e-13
1.85939e-13
-1.26314e-13
2.2162e-13
-1.99898e-14
2.45679e-13
8.54788e-14
2.58889e-13
1.94045e-13
2.61973e-13
3.10842e-13
2.55511e-13
4.39353e-13
2.39926e-13
5.78981e-13
2.15482e-13
7.2433e-13
1.82298e-13
8.66782e-13
1.40512e-13
9.97711e-13
9.0608e-14
1.1116e-12
3.38027e-14
1.20731e-12
-2.78098e-14
1.28671e-12
-9.15736e-14
1.35171e-12
-1.55024e-13
1.40173e-12
-2.16714e-13
1.4334e-12
-2.76654e-13
1.44266e-12
-3.36047e-13
1.4277e-12
-3.96459e-13
1.39063e-12
-4.58825e-13
1.33648e-12
-5.2287e-13
1.27021e-12
-5.8721e-13
1.19391e-12
-6.5012e-13
1.106e-12
-7.10531e-13
1.00351e-12
-7.68794e-13
8.85679e-13
-8.26803e-13
7.56659e-13
-8.87463e-13
6.2502e-13
-9.53612e-13
5.00141e-13
-1.02677e-12
3.87537e-13
-1.10616e-12
2.86075e-13
-1.18846e-12
1.89241e-13
-1.26823e-12
9.11611e-14
-1.33902e-12
-6.43874e-15
-1.39538e-12
-9.45515e-14
-1.43468e-12
-1.66584e-13
-1.45678e-12
-2.2305e-13
-1.46303e-12
-2.57889e-13
-1.46003e-12
-2.76071e-13
-1.45729e-12
-2.92251e-13
-1.44546e-12
-3.11024e-13
-1.43523e-12
-2.71509e-13
-1.43187e-12
-1.87923e-13
-1.40583e-12
-1.72337e-13
-1.30502e-12
-1.35581e-13
-1.03145e-12
-4.90818e-13
-7.95731e-14
-4.29642e-13
-7.87894e-14
-8.79639e-13
-1.50917e-13
-1.08203e-12
-2.12944e-13
-1.15174e-12
-2.70518e-13
-1.17641e-12
-3.11927e-13
-1.17948e-12
-3.45084e-13
-1.16453e-12
-3.72143e-13
-1.14228e-12
-3.93606e-13
-1.11974e-12
-4.28298e-13
-1.10206e-12
-4.79256e-13
-1.08546e-12
-5.42074e-13
-1.06185e-12
-5.97726e-13
-1.02768e-12
-6.32857e-13
-9.86468e-13
-6.43521e-13
-9.46164e-13
-6.42473e-13
-9.13235e-13
-6.37121e-13
-8.92167e-13
-6.24078e-13
-8.84378e-13
-6.10202e-13
-8.87737e-13
-6.01032e-13
-8.97595e-13
-5.91987e-13
-9.11248e-13
-5.80114e-13
-9.29369e-13
-5.69653e-13
-9.52947e-13
-5.59697e-13
-9.8203e-13
-5.41782e-13
-1.01617e-12
-5.1248e-13
-1.05331e-12
-4.77027e-13
-1.0891e-12
-4.42571e-13
-1.11888e-12
-4.15046e-13
-1.13969e-12
-3.99479e-13
-1.15027e-12
-3.97352e-13
-1.15061e-12
-4.03603e-13
-1.14273e-12
-4.09006e-13
-1.13068e-12
-4.06802e-13
-1.11849e-12
-3.97063e-13
-1.10756e-12
-3.85147e-13
-1.09611e-12
-3.77013e-13
-1.08083e-12
-3.7637e-13
-1.05869e-12
-3.85073e-13
-1.02751e-12
-4.04347e-13
-9.85628e-13
-4.34528e-13
-9.31877e-13
-4.73718e-13
-8.66223e-13
-5.17194e-13
-7.90272e-13
-5.58517e-13
-7.06865e-13
-5.91598e-13
-6.18858e-13
-6.12343e-13
-5.28005e-13
-6.19041e-13
-4.34755e-13
-6.11595e-13
-3.39072e-13
-5.90343e-13
-2.41651e-13
-5.55254e-13
-1.44742e-13
-5.05949e-13
-5.20948e-14
-4.42461e-13
3.19088e-14
-3.66173e-13
1.0347e-13
-2.80241e-13
1.60369e-13
-1.89042e-13
2.02337e-13
-9.67009e-14
2.30762e-13
-5.30694e-15
2.47934e-13
8.6252e-14
2.56214e-13
1.8203e-13
2.57398e-13
2.87147e-13
2.52411e-13
4.04974e-13
2.41274e-13
5.34752e-13
2.23295e-13
6.71015e-13
1.97416e-13
8.05352e-13
1.62706e-13
9.29668e-13
1.18914e-13
1.03912e-12
6.68596e-14
1.13298e-12
8.4259e-15
1.21289e-12
-5.39549e-14
1.27986e-12
-1.18142e-13
1.33207e-12
-1.83035e-13
1.36519e-12
-2.48811e-13
1.37494e-12
-3.16503e-13
1.3602e-12
-3.87145e-13
1.32426e-12
-4.60976e-13
1.27315e-12
-5.37089e-13
1.21209e-12
-6.13735e-13
1.14234e-12
-6.89047e-13
1.06073e-12
-7.61843e-13
9.62473e-13
-8.32054e-13
8.45524e-13
-9.00703e-13
7.13791e-13
-9.695e-13
5.7693e-13
-1.04034e-12
4.46431e-13
-1.11461e-12
3.30252e-13
-1.1925e-12
2.29335e-13
-1.27239e-12
1.38314e-13
-1.35062e-12
5.07476e-14
-1.42142e-12
-3.37732e-14
-1.47796e-12
-1.07918e-13
-1.51566e-12
-1.65134e-13
-1.53555e-12
-2.09585e-13
-1.54289e-12
-2.40678e-13
-1.54301e-12
-2.46973e-13
-1.54224e-12
-2.66422e-13
-1.52866e-12
-3.0226e-13
-1.50311e-12
-2.66674e-13
-1.47058e-12
-1.75479e-13
-1.4263e-12
-1.33107e-13
-1.32368e-12
-1.16682e-13
-1.05054e-12
-4.9349e-13
-8.23459e-14
-4.48751e-13
-8.74148e-14
-9.20166e-13
-1.49723e-13
-1.13668e-12
-2.17009e-13
-1.21686e-12
-2.72045e-13
-1.24176e-12
-3.03987e-13
-1.24194e-12
-3.33342e-13
-1.22639e-12
-3.59942e-13
-1.20377e-12
-3.84718e-13
-1.1821e-12
-4.19365e-13
-1.16874e-12
-4.63656e-13
-1.15912e-12
-5.16993e-13
-1.14283e-12
-5.66414e-13
-1.11346e-12
-6.02545e-13
-1.07356e-12
-6.20123e-13
-1.03195e-12
-6.29985e-13
-9.96658e-13
-6.36473e-13
-9.72901e-13
-6.32919e-13
-9.62299e-13
-6.23938e-13
-9.63314e-13
-6.16802e-13
-9.71957e-13
-6.10064e-13
-9.86026e-13
-6.01393e-13
-1.00657e-12
-5.94498e-13
-1.0344e-12
-5.88082e-13
-1.06839e-12
-5.72276e-13
-1.1065e-12
-5.41717e-13
-1.14567e-12
-5.01374e-13
-1.18138e-12
-4.59865e-13
-1.20942e-12
-4.24622e-13
-1.22776e-12
-4.01939e-13
-1.23576e-12
-3.95134e-13
-1.23279e-12
-4.00774e-13
-1.21922e-12
-4.09175e-13
-1.19807e-12
-4.10766e-13
-1.17432e-12
-4.02423e-13
-1.15188e-12
-3.87912e-13
-1.13135e-12
-3.73375e-13
-1.11037e-12
-3.63305e-13
-1.08563e-12
-3.6011e-13
-1.0543e-12
-3.65575e-13
-1.01429e-12
-3.8118e-13
-9.63925e-13
-4.06659e-13
-9.02119e-13
-4.38607e-13
-8.28888e-13
-4.70856e-13
-7.45586e-13
-4.96593e-13
-6.54449e-13
-5.10821e-13
-5.57807e-13
-5.11654e-13
-4.57614e-13
-4.99922e-13
-3.55607e-13
-4.7761e-13
-2.53904e-13
-4.46224e-13
-1.55487e-13
-4.0603e-13
-6.41301e-14
-3.56463e-13
1.62918e-14
-2.97259e-13
8.28007e-14
-2.29473e-13
1.34147e-13
-1.55592e-13
1.71085e-13
-7.85251e-14
1.9599e-13
4.2847e-17
2.12008e-13
8.09631e-14
2.22074e-13
1.67642e-13
2.28148e-13
2.64432e-13
2.30817e-13
3.74036e-13
2.29321e-13
4.953e-13
2.21916e-13
6.2279e-13
2.06491e-13
7.48608e-13
1.81303e-13
8.65521e-13
1.45628e-13
9.69542e-13
1.00073e-13
1.06034e-12
4.63622e-14
1.13925e-12
-1.33646e-14
1.20634e-12
-7.74219e-14
1.25867e-12
-1.45161e-13
1.2912e-12
-2.16943e-13
1.29976e-12
-2.9351e-13
1.28404e-12
-3.75155e-13
1.24843e-12
-4.61153e-13
1.19976e-12
-5.49788e-13
1.14331e-12
-6.38904e-13
1.07959e-12
-7.26628e-13
1.00417e-12
-8.11814e-13
9.10954e-13
-8.94032e-13
7.96941e-13
-9.73201e-13
6.65631e-13
-1.04933e-12
5.26992e-13
-1.12265e-12
3.93663e-13
-1.19385e-12
2.75324e-13
-1.26389e-12
1.74894e-13
-1.33309e-12
8.90486e-14
-1.40022e-12
1.24954e-14
-1.46198e-12
-5.68263e-14
-1.5132e-12
-1.16278e-13
-1.54839e-12
-1.62392e-13
-1.56497e-12
-1.97598e-13
-1.56698e-12
-2.24534e-13
-1.56206e-12
-2.16236e-13
-1.55741e-12
-2.26306e-13
-1.54627e-12
-2.64765e-13
-1.5197e-12
-2.42572e-13
-1.47214e-12
-1.5876e-13
-1.41399e-12
-9.59764e-14
-1.31041e-12
-8.98459e-14
-1.04842e-12
-4.92427e-13
-8.70773e-14
-4.61449e-13
-9.99654e-14
-9.38547e-13
-1.5485e-13
-1.15845e-12
-2.20754e-13
-1.24123e-12
-2.72472e-13
-1.26347e-12
-2.97978e-13
-1.2557e-12
-3.23504e-13
-1.23556e-12
-3.50187e-13
-1.21134e-12
-3.80349e-13
-1.19049e-12
-4.16244e-13
-1.18072e-12
-4.53287e-13
-1.17783e-12
-4.94249e-13
-1.17126e-12
-5.33802e-13
-1.15273e-12
-5.68234e-13
-1.12296e-12
-5.91659e-13
-1.08959e-12
-6.12389e-13
-1.06012e-12
-6.31181e-13
-1.03931e-12
-6.38396e-13
-1.02883e-12
-6.36387e-13
-1.0284e-12
-6.33952e-13
-1.03559e-12
-6.32502e-13
-1.04923e-12
-6.2968e-13
-1.07071e-12
-6.27649e-13
-1.10038e-12
-6.24265e-13
-1.13597e-12
-6.08705e-13
-1.17443e-12
-5.74449e-13
-1.21267e-12
-5.26938e-13
-1.24688e-12
-4.76781e-13
-1.27362e-12
-4.32676e-13
-1.29153e-12
-4.01101e-13
-1.30016e-12
-3.86372e-13
-1.29781e-12
-3.87349e-13
-1.28221e-12
-3.95751e-13
-1.25372e-12
-4.0064e-13
-1.21677e-12
-3.95543e-13
-1.1775e-12
-3.81327e-13
-1.14003e-12
-3.63136e-13
-1.10473e-12
-3.45905e-13
-1.06929e-12
-3.3274e-13
-1.03068e-12
-3.25903e-13
-9.86327e-13
-3.27499e-13
-9.34244e-13
-3.38408e-13
-8.72974e-13
-3.56659e-13
-8.01851e-13
-3.77199e-13
-7.21355e-13
-3.93668e-13
-6.33115e-13
-4.01068e-13
-5.39478e-13
-3.97598e-13
-4.42986e-13
-3.84622e-13
-3.46132e-13
-3.65012e-13
-2.51447e-13
-3.41011e-13
-1.61687e-13
-3.12907e-13
-7.97905e-14
-2.79158e-13
-8.45032e-15
-2.37687e-13
5.05375e-14
-1.87424e-13
9.68458e-14
-1.29058e-13
1.31779e-13
-6.44987e-14
1.57906e-13
4.62147e-15
1.78272e-13
7.84188e-14
1.95479e-13
1.59124e-13
2.10944e-13
2.49868e-13
2.24523e-13
3.52423e-13
2.346e-13
4.65253e-13
2.38573e-13
5.83209e-13
2.33623e-13
6.99263e-13
2.17555e-13
8.07323e-13
1.89435e-13
9.04342e-13
1.49756e-13
9.90292e-13
1.00055e-13
1.06604e-12
4.21105e-14
1.13067e-12
-2.28332e-14
1.18036e-12
-9.44058e-14
1.20974e-12
-1.7281e-13
1.2151e-12
-2.58088e-13
1.19713e-12
-3.49431e-13
1.16117e-12
-4.44975e-13
1.11452e-12
-5.42227e-13
1.06216e-12
-6.38836e-13
1.00386e-12
-7.33182e-13
9.34391e-13
-8.2442e-13
8.47103e-13
-9.11994e-13
7.38683e-13
-9.95091e-13
6.12259e-13
-1.07258e-12
4.77283e-13
-1.14374e-12
3.46181e-13
-1.20926e-12
2.29261e-13
-1.27142e-12
1.30822e-13
-1.33243e-12
4.9379e-14
-1.39214e-12
-1.85737e-14
-1.4472e-12
-7.45038e-14
-1.49281e-12
-1.18146e-13
-1.52492e-12
-1.51888e-13
-1.5404e-12
-1.80119e-13
-1.5403e-12
-2.05626e-13
-1.53229e-12
-1.90072e-13
-1.52364e-12
-1.88174e-13
-1.51544e-12
-2.15095e-13
-1.49486e-12
-2.05585e-13
-1.44773e-12
-1.39292e-13
-1.38648e-12
-6.85658e-14
-1.28445e-12
-6.42426e-14
-1.03793e-12
-4.93208e-13
-8.39757e-14
-4.76895e-13
-1.077e-13
-9.53857e-13
-1.56948e-13
-1.17452e-12
-2.19149e-13
-1.25258e-12
-2.64209e-13
-1.26821e-12
-2.87616e-13
-1.25351e-12
-3.12211e-13
-1.22855e-12
-3.41085e-13
-1.20172e-12
-3.78868e-13
-1.17986e-12
-4.1864e-13
-1.17001e-12
-4.51091e-13
-1.16854e-12
-4.80712e-13
-1.16669e-12
-5.09814e-13
-1.15606e-12
-5.40703e-13
-1.13592e-12
-5.67582e-13
-1.11178e-12
-5.96412e-13
-1.08959e-12
-6.24988e-13
-1.07299e-12
-6.4179e-13
-1.0636e-12
-6.4722e-13
-1.06234e-12
-6.51083e-13
-1.06827e-12
-6.56871e-13
-1.08098e-12
-6.61356e-13
-1.10177e-12
-6.64425e-13
-1.1305e-12
-6.63158e-13
-1.16424e-12
-6.46627e-13
-1.20002e-12
-6.07823e-13
-1.23617e-12
-5.52808e-13
-1.27067e-12
-4.94145e-13
-1.30088e-12
-4.41381e-13
-1.32511e-12
-3.99935e-13
-1.34203e-12
-3.73767e-13
-1.34827e-12
-3.64112e-13
-1.33861e-12
-3.66159e-13
-1.30984e-12
-3.70233e-13
-1.26431e-12
-3.67777e-13
-1.20915e-12
-3.56061e-13
-1.15203e-12
-3.37613e-13
-1.09732e-12
-3.16626e-13
-1.04525e-12
-2.96608e-13
-9.93586e-13
-2.80414e-13
-9.39588e-13
-2.70717e-13
-8.81075e-13
-2.69241e-13
-8.16657e-13
-2.75248e-13
-7.45769e-13
-2.85009e-13
-6.6877e-13
-2.93166e-13
-5.86932e-13
-2.95243e-13
-5.02161e-13
-2.89654e-13
-4.16555e-13
-2.77947e-13
-3.32069e-13
-2.63224e-13
-2.50444e-13
-2.47819e-13
-1.73317e-13
-2.31659e-13
-1.02306e-13
-2.12189e-13
-3.88795e-14