/*--------------------------------*- C++ -*----------------------------------*\
| =========                 |                                                 |
| \\      /  F ield         | OpenFOAM: The Open Source CFD Toolbox           |
|  \\    /   O peration     | Version:  2406                                  |
|   \\  /    A nd           | Website:  www.openfoam.com                      |
|    \\/     M anipulation  |                                                 |
\*---------------------------------------------------------------------------*/
FoamFile
{
    version     2.0;
    format      ascii;
    arch        "LSB;label=32;scalar=64";
    class       volVectorField;
    location    "8";
    object      U;
}
// * * * * * * * * * * * * * * * * * * * * * * * * * * * * * * * * * * * * * //

dimensions      [0 1 -1 0 0 0 0];

internalField   nonuniform List<vector> 
10000
(
(1.11783e-10 -3.64872e-10 0)
(1.73303e-12 -7.44351e-10 0)
(-4.61162e-10 -7.81718e-10 0)
(-6.62636e-10 -7.29928e-10 0)
(-8.12838e-10 -6.87838e-10 0)
(-1.0542e-09 -6.1164e-10 0)
(-1.21723e-09 -5.30202e-10 0)
(-1.30248e-09 -5.17612e-10 0)
(-1.48933e-09 -5.45113e-10 0)
(-1.7607e-09 -5.23401e-10 0)
(-1.95452e-09 -4.75991e-10 0)
(-2.03373e-09 -4.75461e-10 0)
(-2.04738e-09 -5.33796e-10 0)
(-2.02863e-09 -6.10304e-10 0)
(-1.96126e-09 -6.79034e-10 0)
(-1.848e-09 -7.53392e-10 0)
(-1.74897e-09 -8.48223e-10 0)
(-1.72891e-09 -9.51116e-10 0)
(-1.81043e-09 -1.02416e-09 0)
(-1.9463e-09 -1.03608e-09 0)
(-2.04027e-09 -9.94254e-10 0)
(-2.04542e-09 -9.25124e-10 0)
(-1.97315e-09 -8.45156e-10 0)
(-1.83574e-09 -7.71998e-10 0)
(-1.66671e-09 -7.24191e-10 0)
(-1.5335e-09 -6.96153e-10 0)
(-1.47315e-09 -6.62913e-10 0)
(-1.45852e-09 -6.13045e-10 0)
(-1.44747e-09 -5.58092e-10 0)
(-1.42875e-09 -5.12886e-10 0)
(-1.4114e-09 -4.81959e-10 0)
(-1.40111e-09 -4.64826e-10 0)
(-1.39973e-09 -4.6287e-10 0)
(-1.41445e-09 -4.76844e-10 0)
(-1.45862e-09 -5.00857e-10 0)
(-1.54535e-09 -5.22335e-10 0)
(-1.68096e-09 -5.29585e-10 0)
(-1.86346e-09 -5.19982e-10 0)
(-2.08539e-09 -5.00653e-10 0)
(-2.33567e-09 -4.81571e-10 0)
(-2.59852e-09 -4.68288e-10 0)
(-2.85352e-09 -4.59956e-10 0)
(-3.07978e-09 -4.52022e-10 0)
(-3.261e-09 -4.40156e-10 0)
(-3.388e-09 -4.23035e-10 0)
(-3.45847e-09 -4.0299e-10 0)
(-3.47565e-09 -3.84319e-10 0)
(-3.44583e-09 -3.70329e-10 0)
(-3.37467e-09 -3.61163e-10 0)
(-3.26385e-09 -3.53719e-10 0)
(-3.11032e-09 -3.4315e-10 0)
(-2.90811e-09 -3.24485e-10 0)
(-2.65094e-09 -2.93597e-10 0)
(-2.33369e-09 -2.47797e-10 0)
(-1.95296e-09 -1.86585e-10 0)
(-1.50777e-09 -1.12402e-10 0)
(-1.00119e-09 -3.06966e-11 0)
(-4.41909e-10 5.1332e-11 0)
(1.55552e-10 1.27133e-10 0)
(7.73084e-10 1.93368e-10 0)
(1.39273e-09 2.51327e-10 0)
(1.99994e-09 3.06283e-10 0)
(2.58459e-09 3.64849e-10 0)
(3.13966e-09 4.31496e-10 0)
(3.65927e-09 5.05834e-10 0)
(4.13842e-09 5.81965e-10 0)
(4.57503e-09 6.49914e-10 0)
(4.97211e-09 6.98148e-10 0)
(5.33704e-09 7.1565e-10 0)
(5.67574e-09 6.92974e-10 0)
(5.98423e-09 6.22598e-10 0)
(6.24267e-09 4.9994e-10 0)
(6.41749e-09 3.25283e-10 0)
(6.47183e-09 1.06154e-10 0)
(6.37981e-09 -1.42133e-10 0)
(6.13613e-09 -3.98486e-10 0)
(5.75667e-09 -6.40803e-10 0)
(5.27069e-09 -8.50427e-10 0)
(4.71203e-09 -1.01495e-09 0)
(4.11426e-09 -1.12764e-09 0)
(3.51134e-09 -1.18642e-09 0)
(2.93715e-09 -1.19306e-09 0)
(2.41971e-09 -1.1552e-09 0)
(1.96885e-09 -1.08731e-09 0)
(1.56736e-09 -1.00965e-09 0)
(1.17478e-09 -9.41537e-10 0)
(7.50145e-10 -8.93896e-10 0)
(2.82481e-10 -8.64921e-10 0)
(-1.8923e-10 -8.44363e-10 0)
(-5.85628e-10 -8.23319e-10 0)
(-8.27398e-10 -8.04204e-10 0)
(-8.9009e-10 -8.00828e-10 0)
(-8.33306e-10 -8.26154e-10 0)
(-7.50559e-10 -8.8581e-10 0)
(-6.81157e-10 -9.79585e-10 0)
(-6.58355e-10 -1.03835e-09 0)
(-6.51424e-10 -9.76076e-10 0)
(-4.81324e-10 -9.25246e-10 0)
(-3.08032e-10 -8.00034e-10 0)
(-9.24129e-11 -3.0566e-10 0)
(5.04053e-11 -7.44128e-10 0)
(-7.77913e-11 -1.64988e-09 0)
(-7.55027e-10 -1.86741e-09 0)
(-1.23603e-09 -1.92058e-09 0)
(-1.57088e-09 -1.88549e-09 0)
(-2.00031e-09 -1.83696e-09 0)
(-2.40447e-09 -1.79958e-09 0)
(-2.72954e-09 -1.81637e-09 0)
(-3.10968e-09 -1.844e-09 0)
(-3.58105e-09 -1.79828e-09 0)
(-4.0151e-09 -1.71957e-09 0)
(-4.31093e-09 -1.70221e-09 0)
(-4.43467e-09 -1.76859e-09 0)
(-4.4075e-09 -1.88167e-09 0)
(-4.26412e-09 -2.01495e-09 0)
(-4.06318e-09 -2.17887e-09 0)
(-3.89879e-09 -2.37536e-09 0)
(-3.84433e-09 -2.569e-09 0)
(-3.92143e-09 -2.70218e-09 0)
(-4.07936e-09 -2.73696e-09 0)
(-4.1901e-09 -2.68607e-09 0)
(-4.16427e-09 -2.59066e-09 0)
(-4.0091e-09 -2.48527e-09 0)
(-3.75825e-09 -2.3997e-09 0)
(-3.45989e-09 -2.35154e-09 0)
(-3.19972e-09 -2.32268e-09 0)
(-3.04531e-09 -2.27442e-09 0)
(-2.98536e-09 -2.18661e-09 0)
(-2.96339e-09 -2.06866e-09 0)
(-2.94424e-09 -1.94075e-09 0)
(-2.92708e-09 -1.82011e-09 0)
(-2.92179e-09 -1.7208e-09 0)
(-2.93601e-09 -1.65369e-09 0)
(-2.97705e-09 -1.62016e-09 0)
(-3.05713e-09 -1.60748e-09 0)
(-3.19673e-09 -1.59341e-09 0)
(-3.42134e-09 -1.55915e-09 0)
(-3.75015e-09 -1.50104e-09 0)
(-4.18347e-09 -1.43122e-09 0)
(-4.69669e-09 -1.36668e-09 0)
(-5.24407e-09 -1.31636e-09 0)
(-5.77117e-09 -1.27608e-09 0)
(-6.23041e-09 -1.233e-09 0)
(-6.5916e-09 -1.17487e-09 0)
(-6.84316e-09 -1.09801e-09 0)
(-6.98646e-09 -1.00972e-09 0)
(-7.02882e-09 -9.24617e-10 0)
(-6.97797e-09 -8.57654e-10 0)
(-6.8379e-09 -8.18019e-10 0)
(-6.60641e-09 -8.06408e-10 0)
(-6.27541e-09 -8.15434e-10 0)
(-5.83386e-09 -8.31699e-10 0)
(-5.27172e-09 -8.38672e-10 0)
(-4.58273e-09 -8.20441e-10 0)
(-3.76572e-09 -7.66127e-10 0)
(-2.82533e-09 -6.73638e-10 0)
(-1.77304e-09 -5.50783e-10 0)
(-6.27806e-10 -4.12534e-10 0)
(5.85099e-10 -2.74995e-10 0)
(1.83748e-09 -1.48545e-10 0)
(3.10225e-09 -3.33626e-11 0)
(4.35552e-09 8.02174e-11 0)
(5.57529e-09 2.06317e-10 0)
(6.73853e-09 3.5538e-10 0)
(7.82047e-09 5.27272e-10 0)
(8.799e-09 7.08878e-10 0)
(9.66278e-09 8.77297e-10 0)
(1.04169e-08 1.00626e-09 0)
(1.10795e-08 1.07235e-09 0)
(1.16677e-08 1.05775e-09 0)
(1.21797e-08 9.5024e-10 0)
(1.25839e-08 7.42217e-10 0)
(1.28253e-08 4.32384e-10 0)
(1.28453e-08 2.9231e-11 0)
(1.26062e-08 -4.45328e-10 0)
(1.21055e-08 -9.57236e-10 0)
(1.1373e-08 -1.46593e-09 0)
(1.04583e-08 -1.93376e-09 0)
(9.41678e-09 -2.3321e-09 0)
(8.30585e-09 -2.64417e-09 0)
(7.18513e-09 -2.86205e-09 0)
(6.11397e-09 -2.98535e-09 0)
(5.13522e-09 -3.02028e-09 0)
(4.25506e-09 -2.98314e-09 0)
(3.43086e-09 -2.89924e-09 0)
(2.58864e-09 -2.79875e-09 0)
(1.66576e-09 -2.706e-09 0)
(6.63921e-10 -2.63359e-09 0)
(-3.26243e-10 -2.58143e-09 0)
(-1.15022e-09 -2.54389e-09 0)
(-1.66547e-09 -2.52044e-09 0)
(-1.83531e-09 -2.52435e-09 0)
(-1.77758e-09 -2.57551e-09 0)
(-1.67478e-09 -2.68595e-09 0)
(-1.54893e-09 -2.86208e-09 0)
(-1.35329e-09 -3.03155e-09 0)
(-1.27729e-09 -3.00699e-09 0)
(-9.72277e-10 -2.90394e-09 0)
(-4.12561e-10 -2.57072e-09 0)
(8.70211e-11 -1.08458e-09 0)
(-6.04133e-11 -1.07188e-09 0)
(-2.59715e-10 -2.39247e-09 0)
(-9.76046e-10 -2.83759e-09 0)
(-1.59063e-09 -2.98383e-09 0)
(-2.02868e-09 -3.02805e-09 0)
(-2.59872e-09 -3.05741e-09 0)
(-3.08979e-09 -3.15376e-09 0)
(-3.45702e-09 -3.25762e-09 0)
(-3.86793e-09 -3.33704e-09 0)
(-4.37631e-09 -3.31734e-09 0)
(-4.88441e-09 -3.22609e-09 0)
(-5.27454e-09 -3.14558e-09 0)
(-5.47659e-09 -3.13333e-09 0)
(-5.50299e-09 -3.19905e-09 0)
(-5.39704e-09 -3.33023e-09 0)
(-5.2204e-09 -3.51535e-09 0)
(-5.0552e-09 -3.73168e-09 0)
(-4.97157e-09 -3.92573e-09 0)
(-5.00532e-09 -4.03962e-09 0)
(-5.12424e-09 -4.05284e-09 0)
(-5.21104e-09 -3.98405e-09 0)
(-5.17531e-09 -3.87719e-09 0)
(-5.01229e-09 -3.78094e-09 0)
(-4.74193e-09 -3.73424e-09 0)
(-4.40021e-09 -3.74703e-09 0)
(-4.069e-09 -3.78933e-09 0)
(-3.82542e-09 -3.81211e-09 0)
(-3.67497e-09 -3.78193e-09 0)
(-3.57562e-09 -3.69444e-09 0)
(-3.50249e-09 -3.56654e-09 0)
(-3.46015e-09 -3.42323e-09 0)
(-3.4564e-09 -3.28798e-09 0)
(-3.48889e-09 -3.17539e-09 0)
(-3.55274e-09 -3.08722e-09 0)
(-3.6534e-09 -3.0133e-09 0)
(-3.81424e-09 -2.93768e-09 0)
(-4.07172e-09 -2.84737e-09 0)
(-4.45768e-09 -2.73933e-09 0)
(-4.9781e-09 -2.62108e-09 0)
(-5.60159e-09 -2.50379e-09 0)
(-6.26493e-09 -2.39247e-09 0)
(-6.89416e-09 -2.28067e-09 0)
(-7.42972e-09 -2.15368e-09 0)
(-7.84135e-09 -1.99818e-09 0)
(-8.12646e-09 -1.81201e-09 0)
(-8.29751e-09 -1.6081e-09 0)
(-8.36869e-09 -1.41062e-09 0)
(-8.34736e-09 -1.24594e-09 0)
(-8.23049e-09 -1.13331e-09 0)
(-8.00441e-09 -1.07882e-09 0)
(-7.64789e-09 -1.07384e-09 0)
(-7.13813e-09 -1.0973e-09 0)
(-6.45779e-09 -1.12098e-09 0)
(-5.60014e-09 -1.11712e-09 0)
(-4.57097e-09 -1.06645e-09 0)
(-3.38731e-09 -9.64102e-10 0)
(-2.07437e-09 -8.20745e-10 0)
(-6.61594e-10 -6.57762e-10 0)
(8.21565e-10 -4.9808e-10 0)
(2.34897e-09 -3.56518e-10 0)
(3.89852e-09 -2.34142e-10 0)
(5.4489e-09 -1.19425e-10 0)
(6.97382e-09 4.14432e-12 0)
(8.43778e-09 1.47821e-10 0)
(9.79858e-09 3.09746e-10 0)
(1.10179e-08 4.73538e-10 0)
(1.20754e-08 6.13296e-10 0)
(1.29763e-08 7.01929e-10 0)
(1.3745e-08 7.1745e-10 0)
(1.44047e-08 6.44914e-10 0)
(1.49547e-08 4.74157e-10 0)
(1.53593e-08 1.98225e-10 0)
(1.55579e-08 -1.85342e-10 0)
(1.54911e-08 -6.68905e-10 0)
(1.5127e-08 -1.23058e-09 0)
(1.44732e-08 -1.8338e-09 0)
(1.35703e-08 -2.43495e-09 0)
(1.24742e-08 -2.9928e-09 0)
(1.12448e-08 -3.47848e-09 0)
(9.94338e-09 -3.87732e-09 0)
(8.6374e-09 -4.18809e-09 0)
(7.39316e-09 -4.41647e-09 0)
(6.25746e-09 -4.573e-09 0)
(5.22949e-09 -4.66946e-09 0)
(4.25308e-09 -4.72017e-09 0)
(3.23778e-09 -4.73807e-09 0)
(2.11488e-09 -4.73362e-09 0)
(8.9394e-10 -4.71199e-09 0)
(-3.0822e-10 -4.67659e-09 0)
(-1.30558e-09 -4.62943e-09 0)
(-1.9396e-09 -4.57703e-09 0)
(-2.18248e-09 -4.54374e-09 0)
(-2.1736e-09 -4.56491e-09 0)
(-2.12215e-09 -4.63733e-09 0)
(-2.05637e-09 -4.73441e-09 0)
(-1.86694e-09 -4.87977e-09 0)
(-1.70454e-09 -4.93283e-09 0)
(-1.47183e-09 -4.6749e-09 0)
(-5.61776e-10 -4.16045e-09 0)
(1.83179e-10 -2.01901e-09 0)
(-1.4333e-10 -1.62842e-09 0)
(-2.9833e-10 -3.53366e-09 0)
(-1.01598e-09 -4.20592e-09 0)
(-1.72775e-09 -4.42513e-09 0)
(-2.24641e-09 -4.48056e-09 0)
(-2.89123e-09 -4.50023e-09 0)
(-3.47835e-09 -4.54864e-09 0)
(-3.88727e-09 -4.63976e-09 0)
(-4.26477e-09 -4.70033e-09 0)
(-4.70763e-09 -4.64328e-09 0)
(-5.20155e-09 -4.49376e-09 0)
(-5.6515e-09 -4.34768e-09 0)
(-5.95312e-09 -4.29092e-09 0)
(-6.0681e-09 -4.34629e-09 0)
(-6.01792e-09 -4.48586e-09 0)
(-5.86381e-09 -4.66984e-09 0)
(-5.68199e-09 -4.86778e-09 0)
(-5.53364e-09 -5.03602e-09 0)
(-5.47788e-09 -5.12233e-09 0)
(-5.51827e-09 -5.11509e-09 0)
(-5.55414e-09 -5.04375e-09 0)
(-5.49966e-09 -4.94933e-09 0)
(-5.35273e-09 -4.8732e-09 0)
(-5.11909e-09 -4.85534e-09 0)
(-4.80003e-09 -4.91132e-09 0)
(-4.44941e-09 -5.01112e-09 0)
(-4.14781e-09 -5.10167e-09 0)
(-3.92511e-09 -5.14572e-09 0)
(-3.76202e-09 -5.13757e-09 0)
(-3.64456e-09 -5.09296e-09 0)
(-3.57871e-09 -5.03343e-09 0)
(-3.56766e-09 -4.97377e-09 0)
(-3.60159e-09 -4.91629e-09 0)
(-3.66801e-09 -4.85243e-09 0)
(-3.76757e-09 -4.76933e-09 0)
(-3.9238e-09 -4.65521e-09 0)
(-4.17882e-09 -4.5023e-09 0)
(-4.57257e-09 -4.30858e-09 0)
(-5.11592e-09 -4.07887e-09 0)
(-5.77444e-09 -3.82332e-09 0)
(-6.4743e-09 -3.55276e-09 0)
(-7.12902e-09 -3.27382e-09 0)
(-7.6723e-09 -2.98763e-09 0)
(-8.07743e-09 -2.69373e-09 0)
(-8.35404e-09 -2.39666e-09 0)
(-8.52871e-09 -2.10996e-09 0)
(-8.62409e-09 -1.85404e-09 0)
(-8.64636e-09 -1.64868e-09 0)
(-8.58228e-09 -1.50428e-09 0)
(-8.40289e-09 -1.41635e-09 0)
(-8.07155e-09 -1.36541e-09 0)
(-7.55422e-09 -1.32175e-09 0)
(-6.82975e-09 -1.25361e-09 0)
(-5.89622e-09 -1.13627e-09 0)
(-4.77138e-09 -9.59671e-10 0)
(-3.48715e-09 -7.31999e-10 0)
(-2.08091e-09 -4.77321e-10 0)
(-5.8674e-10 -2.27559e-10 0)
(9.70329e-10 -1.13404e-11 0)
(2.57504e-09 1.55804e-10 0)
(4.2166e-09 2.75687e-10 0)
(5.87896e-09 3.63985e-10 0)
(7.53098e-09 4.40675e-10 0)
(9.12323e-09 5.18788e-10 0)
(1.05957e-08 5.97188e-10 0)
(1.18958e-08 6.6038e-10 0)
(1.29973e-08 6.84957e-10 0)
(1.39083e-08 6.47853e-10 0)
(1.46608e-08 5.32039e-10 0)
(1.52852e-08 3.26661e-10 0)
(1.57844e-08 2.46742e-11 0)
(1.61248e-08 -3.79008e-10 0)
(1.62498e-08 -8.84164e-10 0)
(1.61087e-08 -1.47998e-09 0)
(1.56811e-08 -2.13976e-09 0)
(1.49846e-08 -2.82335e-09 0)
(1.40615e-08 -3.48437e-09 0)
(1.29622e-08 -4.08318e-09 0)
(1.17337e-08 -4.59488e-09 0)
(1.04257e-08 -5.01447e-09 0)
(9.09661e-09 -5.35161e-09 0)
(7.81274e-09 -5.62552e-09 0)
(6.62365e-09 -5.85436e-09 0)
(5.53541e-09 -6.05157e-09 0)
(4.49433e-09 -6.22037e-09 0)
(3.41266e-09 -6.35777e-09 0)
(2.22022e-09 -6.4557e-09 0)
(9.28653e-10 -6.50931e-09 0)
(-3.40026e-10 -6.52152e-09 0)
(-1.38705e-09 -6.50858e-09 0)
(-2.04965e-09 -6.49698e-09 0)
(-2.31458e-09 -6.52494e-09 0)
(-2.31793e-09 -6.63271e-09 0)
(-2.25681e-09 -6.78763e-09 0)
(-2.24584e-09 -6.86111e-09 0)
(-2.15881e-09 -6.9006e-09 0)
(-2.0194e-09 -6.86044e-09 0)
(-1.86237e-09 -6.35572e-09 0)
(-1.00067e-09 -5.42351e-09 0)
(3.98917e-11 -2.88495e-09 0)
(-2.80598e-10 -2.15637e-09 0)
(-4.81776e-10 -4.70796e-09 0)
(-1.07153e-09 -5.72958e-09 0)
(-1.80477e-09 -6.06258e-09 0)
(-2.32778e-09 -6.1722e-09 0)
(-2.99049e-09 -6.19078e-09 0)
(-3.60182e-09 -6.17627e-09 0)
(-4.0232e-09 -6.15633e-09 0)
(-4.34494e-09 -6.10539e-09 0)
(-4.70973e-09 -5.93905e-09 0)
(-5.18927e-09 -5.69044e-09 0)
(-5.71487e-09 -5.4504e-09 0)
(-6.14271e-09 -5.30866e-09 0)
(-6.375e-09 -5.28962e-09 0)
(-6.39456e-09 -5.36317e-09 0)
(-6.26397e-09 -5.48015e-09 0)
(-6.06852e-09 -5.61116e-09 0)
(-5.86393e-09 -5.7334e-09 0)
(-5.7199e-09 -5.81105e-09 0)
(-5.67937e-09 -5.83123e-09 0)
(-5.66645e-09 -5.81743e-09 0)
(-5.59521e-09 -5.80326e-09 0)
(-5.45979e-09 -5.81325e-09 0)
(-5.26003e-09 -5.87308e-09 0)
(-4.9712e-09 -5.99804e-09 0)
(-4.61704e-09 -6.16854e-09 0)
(-4.27385e-09 -6.33866e-09 0)
(-3.99425e-09 -6.47186e-09 0)
(-3.7852e-09 -6.55948e-09 0)
(-3.64615e-09 -6.61483e-09 0)
(-3.58001e-09 -6.65666e-09 0)
(-3.57563e-09 -6.69433e-09 0)
(-3.60751e-09 -6.71946e-09 0)
(-3.65592e-09 -6.71052e-09 0)
(-3.72369e-09 -6.64562e-09 0)
(-3.83987e-09 -6.51161e-09 0)
(-4.05068e-09 -6.30282e-09 0)
(-4.39955e-09 -6.01611e-09 0)
(-4.90263e-09 -5.65059e-09 0)
(-5.53165e-09 -5.21305e-09 0)
(-6.21628e-09 -4.72214e-09 0)
(-6.86889e-09 -4.20622e-09 0)
(-7.41932e-09 -3.69599e-09 0)
(-7.83842e-09 -3.2174e-09 0)
(-8.13708e-09 -2.78898e-09 0)
(-8.34496e-09 -2.42293e-09 0)
(-8.48524e-09 -2.12592e-09 0)
(-8.55876e-09 -1.89767e-09 0)
(-8.54146e-09 -1.72791e-09 0)
(-8.39192e-09 -1.59512e-09 0)
(-8.06422e-09 -1.46912e-09 0)
(-7.52215e-09 -1.31746e-09 0)
(-6.75073e-09 -1.1137e-09 0)
(-5.76135e-09 -8.45176e-10 0)
(-4.58837e-09 -5.17653e-10 0)
(-3.27851e-09 -1.55399e-10 0)
(-1.87686e-09 2.04146e-10 0)
(-4.14903e-10 5.20097e-10 0)
(1.09487e-09 7.59445e-10 0)
(2.65531e-09 9.06056e-10 0)
(4.27233e-09 9.63627e-10 0)
(5.9383e-09 9.51313e-10 0)
(7.61905e-09 8.93767e-10 0)
(9.25215e-09 8.10441e-10 0)
(1.0761e-08 7.0893e-10 0)
(1.20797e-08 5.85246e-10 0)
(1.31761e-08 4.29093e-10 0)
(1.40597e-08 2.30299e-10 0)
(1.47668e-08 -1.86606e-11 0)
(1.53311e-08 -3.23921e-10 0)
(1.5758e-08 -6.93646e-10 0)
(1.60172e-08 -1.13748e-09 0)
(1.60613e-08 -1.66222e-09 0)
(1.58532e-08 -2.26326e-09 0)
(1.53882e-08 -2.92046e-09 0)
(1.46932e-08 -3.59853e-09 0)
(1.38105e-08 -4.25714e-09 0)
(1.27782e-08 -4.86117e-09 0)
(1.16259e-08 -5.39225e-09 0)
(1.03842e-08 -5.84992e-09 0)
(9.1004e-09 -6.25045e-09 0)
(7.83561e-09 -6.61533e-09 0)
(6.64537e-09 -6.96401e-09 0)
(5.54365e-09 -7.3016e-09 0)
(4.48852e-09 -7.61833e-09 0)
(3.39658e-09 -7.88993e-09 0)
(2.2001e-09 -8.09152e-09 0)
(9.04453e-10 -8.20501e-09 0)
(-3.75903e-10 -8.23204e-09 0)
(-1.451e-09 -8.20286e-09 0)
(-2.16095e-09 -8.18034e-09 0)
(-2.49237e-09 -8.23754e-09 0)
(-2.55438e-09 -8.42629e-09 0)
(-2.45613e-09 -8.73271e-09 0)
(-2.37218e-09 -8.97068e-09 0)
(-2.32436e-09 -9.06114e-09 0)
(-2.14004e-09 -8.93635e-09 0)
(-2.10415e-09 -8.20099e-09 0)
(-1.47982e-09 -6.72782e-09 0)
(-2.81555e-10 -3.58739e-09 0)
(-4.16471e-10 -2.73164e-09 0)
(-6.60406e-10 -5.81951e-09 0)
(-1.1517e-09 -7.09675e-09 0)
(-1.85291e-09 -7.5294e-09 0)
(-2.38201e-09 -7.68383e-09 0)
(-3.00073e-09 -7.74082e-09 0)
(-3.58299e-09 -7.69287e-09 0)
(-3.99077e-09 -7.59355e-09 0)
(-4.2667e-09 -7.45365e-09 0)
(-4.56546e-09 -7.22824e-09 0)
(-5.03633e-09 -6.93685e-09 0)
(-5.63414e-09 -6.64268e-09 0)
(-6.18516e-09 -6.42038e-09 0)
(-6.53049e-09 -6.2944e-09 0)
(-6.61734e-09 -6.24498e-09 0)
(-6.50759e-09 -6.23722e-09 0)
(-6.30553e-09 -6.25673e-09 0)
(-6.06893e-09 -6.3003e-09 0)
(-5.86905e-09 -6.35121e-09 0)
(-5.76935e-09 -6.39491e-09 0)
(-5.71557e-09 -6.43898e-09 0)
(-5.62428e-09 -6.50047e-09 0)
(-5.48918e-09 -6.59025e-09 0)
(-5.31181e-09 -6.72341e-09 0)
(-5.05374e-09 -6.91667e-09 0)
(-4.7125e-09 -7.16084e-09 0)
(-4.35468e-09 -7.41905e-09 0)
(-4.04735e-09 -7.65326e-09 0)
(-3.81915e-09 -7.84587e-09 0)
(-3.68084e-09 -7.99892e-09 0)
(-3.6318e-09 -8.12418e-09 0)
(-3.64511e-09 -8.22991e-09 0)
(-3.67699e-09 -8.3099e-09 0)
(-3.69843e-09 -8.34232e-09 0)
(-3.716e-09 -8.30189e-09 0)
(-3.76751e-09 -8.17215e-09 0)
(-3.90353e-09 -7.94607e-09 0)
(-4.16747e-09 -7.61798e-09 0)
(-4.57904e-09 -7.18069e-09 0)
(-5.12234e-09 -6.63378e-09 0)
(-5.74424e-09 -5.99553e-09 0)
(-6.36961e-09 -5.30627e-09 0)
(-6.92946e-09 -4.6184e-09 0)
(-7.38554e-09 -3.97976e-09 0)
(-7.73544e-09 -3.42061e-09 0)
(-7.99684e-09 -2.95005e-09 0)
(-8.18392e-09 -2.55991e-09 0)
(-8.29048e-09 -2.23114e-09 0)
(-8.28654e-09 -1.93895e-09 0)
(-8.12693e-09 -1.65645e-09 0)
(-7.76632e-09 -1.35791e-09 0)
(-7.17507e-09 -1.02283e-09 0)
(-6.35054e-09 -6.40231e-10 0)
(-5.32005e-09 -2.12388e-10 0)
(-4.13378e-09 2.43468e-10 0)
(-2.84985e-09 6.96527e-10 0)
(-1.51647e-09 1.10743e-09 0)
(-1.58049e-10 1.43639e-09 0)
(1.22907e-09 1.65245e-09 0)
(2.66841e-09 1.74068e-09 0)
(4.18441e-09 1.70449e-09 0)
(5.77993e-09 1.56179e-09 0)
(7.42037e-09 1.33702e-09 0)
(9.03441e-09 1.05265e-09 0)
(1.05333e-08 7.24771e-10 0)
(1.18416e-08 3.63548e-10 0)
(1.2923e-08 -2.2835e-11 0)
(1.37865e-08 -4.2565e-10 0)
(1.44678e-08 -8.36591e-10 0)
(1.49984e-08 -1.25278e-09 0)
(1.53798e-08 -1.68024e-09 0)
(1.5583e-08 -2.13345e-09 0)
(1.55677e-08 -2.62757e-09 0)
(1.5312e-08 -3.1697e-09 0)
(1.48268e-08 -3.75118e-09 0)
(1.41501e-08 -4.3498e-09 0)
(1.33231e-08 -4.93624e-09 0)
(1.23724e-08 -5.48763e-09 0)
(1.13072e-08 -5.99468e-09 0)
(1.01388e-08 -6.46751e-09 0)
(8.89939e-09 -6.92793e-09 0)
(7.64866e-09 -7.40236e-09 0)
(6.44944e-09 -7.90559e-09 0)
(5.33577e-09 -8.43442e-09 0)
(4.28283e-09 -8.95953e-09 0)
(3.22012e-09 -9.43624e-09 0)
(2.07631e-09 -9.81591e-09 0)
(8.47488e-10 -1.00645e-08 0)
(-3.74524e-10 -1.01677e-08 0)
(-1.42826e-09 -1.01507e-08 0)
(-2.17392e-09 -1.00938e-08 0)
(-2.59041e-09 -1.01037e-08 0)
(-2.7688e-09 -1.0236e-08 0)
(-2.74437e-09 -1.05156e-08 0)
(-2.64107e-09 -1.08715e-08 0)
(-2.52248e-09 -1.1134e-08 0)
(-2.2232e-09 -1.10151e-08 0)
(-2.13778e-09 -1.01534e-08 0)
(-1.79446e-09 -8.14084e-09 0)
(-5.44857e-10 -4.18533e-09 0)
(-4.84069e-10 -3.33283e-09 0)
(-7.60928e-10 -6.90079e-09 0)
(-1.15712e-09 -8.40195e-09 0)
(-1.86731e-09 -8.89478e-09 0)
(-2.41678e-09 -9.08096e-09 0)
(-2.99858e-09 -9.15335e-09 0)
(-3.5022e-09 -9.0985e-09 0)
(-3.87119e-09 -8.95464e-09 0)
(-4.11636e-09 -8.76268e-09 0)
(-4.38426e-09 -8.51941e-09 0)
(-4.84878e-09 -8.23302e-09 0)
(-5.48902e-09 -7.92232e-09 0)
(-6.11781e-09 -7.63533e-09 0)
(-6.53979e-09 -7.3983e-09 0)
(-6.67649e-09 -7.2126e-09 0)
(-6.5949e-09 -7.0681e-09 0)
(-6.41289e-09 -6.97346e-09 0)
(-6.18599e-09 -6.94092e-09 0)
(-5.9757e-09 -6.96042e-09 0)
(-5.85298e-09 -7.01122e-09 0)
(-5.77793e-09 -7.08633e-09 0)
(-5.6732e-09 -7.19253e-09 0)
(-5.53691e-09 -7.33341e-09 0)
(-5.38063e-09 -7.51974e-09 0)
(-5.16032e-09 -7.76803e-09 0)
(-4.84984e-09 -8.07515e-09 0)
(-4.49829e-09 -8.40732e-09 0)
(-4.17709e-09 -8.72212e-09 0)
(-3.9308e-09 -8.99001e-09 0)
(-3.78445e-09 -9.20063e-09 0)
(-3.74229e-09 -9.35946e-09 0)
(-3.76985e-09 -9.48036e-09 0)
(-3.80606e-09 -9.5705e-09 0)
(-3.8072e-09 -9.61945e-09 0)
(-3.77731e-09 -9.60339e-09 0)
(-3.76061e-09 -9.49971e-09 0)
(-3.81201e-09 -9.29437e-09 0)
(-3.9736e-09 -8.97744e-09 0)
(-4.2662e-09 -8.53777e-09 0)
(-4.68702e-09 -7.96893e-09 0)
(-5.20678e-09 -7.2831e-09 0)
(-5.77259e-09 -6.51937e-09 0)
(-6.3229e-09 -5.73596e-09 0)
(-6.80828e-09 -4.9899e-09 0)
(-7.20368e-09 -4.31701e-09 0)
(-7.50422e-09 -3.72359e-09 0)
(-7.7098e-09 -3.19166e-09 0)
(-7.8101e-09 -2.69197e-09 0)
(-7.77872e-09 -2.19671e-09 0)
(-7.57817e-09 -1.68722e-09 0)
(-7.17252e-09 -1.1562e-09 0)
(-6.54215e-09 -6.06405e-10 0)
(-5.69464e-09 -4.82292e-11 0)
(-4.66718e-09 5.02176e-10 0)
(-3.51836e-09 1.02378e-09 0)
(-2.31118e-09 1.49143e-09 0)
(-1.09317e-09 1.87759e-09 0)
(1.19e-10 2.15604e-09 0)
(1.34313e-09 2.30683e-09 0)
(2.62007e-09 2.32067e-09 0)
(3.99005e-09 2.20045e-09 0)
(5.46564e-09 1.95905e-09 0)
(7.01441e-09 1.6144e-09 0)
(8.56141e-09 1.18504e-09 0)
(1.0013e-08 6.88486e-10 0)
(1.12907e-08 1.43126e-10 0)
(1.2358e-08 -4.29558e-10 0)
(1.32228e-08 -1.00518e-09 0)
(1.39161e-08 -1.56179e-09 0)
(1.44598e-08 -2.08679e-09 0)
(1.4846e-08 -2.58259e-09 0)
(1.504e-08 -3.06435e-09 0)
(1.50062e-08 -3.55275e-09 0)
(1.47347e-08 -4.06198e-09 0)
(1.42523e-08 -4.59356e-09 0)
(1.36058e-08 -5.13477e-09 0)
(1.28364e-08 -5.66807e-09 0)
(1.19566e-08 -6.17999e-09 0)
(1.09572e-08 -6.67284e-09 0)
(9.82966e-09 -7.16412e-09 0)
(8.59739e-09 -7.68392e-09 0)
(7.32113e-09 -8.25872e-09 0)
(6.0811e-09 -8.90167e-09 0)
(4.93241e-09 -9.59813e-09 0)
(3.87526e-09 -1.03088e-08 0)
(2.84925e-09 -1.09728e-08 0)
(1.78417e-09 -1.15303e-08 0)
(6.64101e-10 -1.19329e-08 0)
(-4.35914e-10 -1.21551e-08 0)
(-1.39591e-09 -1.22014e-08 0)
(-2.11722e-09 -1.21422e-08 0)
(-2.56443e-09 -1.21053e-08 0)
(-2.80912e-09 -1.21528e-08 0)
(-2.91402e-09 -1.2272e-08 0)
(-2.94824e-09 -1.25348e-08 0)
(-2.79755e-09 -1.28347e-08 0)
(-2.28714e-09 -1.27236e-08 0)
(-2.04029e-09 -1.17761e-08 0)
(-1.83266e-09 -9.34641e-09 0)
(-6.87867e-10 -4.62261e-09 0)
(-4.84444e-10 -3.86073e-09 0)
(-7.90978e-10 -7.86526e-09 0)
(-1.14033e-09 -9.5904e-09 0)
(-1.84616e-09 -1.01452e-08 0)
(-2.44518e-09 -1.03429e-08 0)
(-2.98893e-09 -1.03887e-08 0)
(-3.42017e-09 -1.02924e-08 0)
(-3.73742e-09 -1.01138e-08 0)
(-3.95952e-09 -9.89545e-09 0)
(-4.21304e-09 -9.66354e-09 0)
(-4.66514e-09 -9.41015e-09 0)
(-5.3051e-09 -9.11071e-09 0)
(-5.96072e-09 -8.78038e-09 0)
(-6.42242e-09 -8.45272e-09 0)
(-6.59828e-09 -8.16058e-09 0)
(-6.55668e-09 -7.92259e-09 0)
(-6.42467e-09 -7.76486e-09 0)
(-6.24347e-09 -7.70398e-09 0)
(-6.05464e-09 -7.72577e-09 0)
(-5.92924e-09 -7.79505e-09 0)
(-5.84613e-09 -7.89309e-09 0)
(-5.73882e-09 -8.02367e-09 0)
(-5.61166e-09 -8.19331e-09 0)
(-5.48525e-09 -8.41119e-09 0)
(-5.31243e-09 -8.69132e-09 0)
(-5.04373e-09 -9.02856e-09 0)
(-4.70788e-09 -9.38783e-09 0)
(-4.37527e-09 -9.72234e-09 0)
(-4.10371e-09 -9.99692e-09 0)
(-3.93426e-09 -1.01944e-08 0)
(-3.88466e-09 -1.03175e-08 0)
(-3.9232e-09 -1.03865e-08 0)
(-3.97536e-09 -1.04265e-08 0)
(-3.97528e-09 -1.0446e-08 0)
(-3.91261e-09 -1.04291e-08 0)
(-3.83138e-09 -1.03477e-08 0)
(-3.79263e-09 -1.01773e-08 0)
(-3.84153e-09 -9.9012e-09 0)
(-4.00112e-09 -9.50595e-09 0)
(-4.27931e-09 -8.98163e-09 0)
(-4.6695e-09 -8.33153e-09 0)
(-5.14392e-09 -7.58222e-09 0)
(-5.65342e-09 -6.78142e-09 0)
(-6.13994e-09 -5.98108e-09 0)
(-6.55372e-09 -5.21652e-09 0)
(-6.86303e-09 -4.49481e-09 0)
(-7.05172e-09 -3.79863e-09 0)
(-7.10943e-09 -3.1013e-09 0)
(-7.02253e-09 -2.38331e-09 0)
(-6.77153e-09 -1.6424e-09 0)
(-6.33651e-09 -8.94304e-10 0)
(-5.70773e-09 -1.66393e-10 0)
(-4.89611e-09 5.11338e-10 0)
(-3.93751e-09 1.11345e-09 0)
(-2.88705e-09 1.62224e-09 0)
(-1.80359e-09 2.02701e-09 0)
(-7.29787e-10 2.32153e-09 0)
(3.24193e-10 2.50202e-09 0)
(1.38476e-09 2.56667e-09 0)
(2.50256e-09 2.51639e-09 0)
(3.72633e-09 2.35525e-09 0)
(5.07389e-09 2.08966e-09 0)
(6.51424e-09 1.72697e-09 0)
(7.97212e-09 1.27507e-09 0)
(9.35442e-09 7.44343e-10 0)
(1.05858e-08 1.50728e-10 0)
(1.16331e-08 -4.82259e-10 0)
(1.25047e-08 -1.1263e-09 0)
(1.32252e-08 -1.75496e-09 0)
(1.38044e-08 -2.35269e-09 0)
(1.42207e-08 -2.91921e-09 0)
(1.44315e-08 -3.46829e-09 0)
(1.44024e-08 -4.01835e-09 0)
(1.41346e-08 -4.58313e-09 0)
(1.36676e-08 -5.16325e-09 0)
(1.30581e-08 -5.74828e-09 0)
(1.23446e-08 -6.32203e-09 0)
(1.15287e-08 -6.87553e-09 0)
(1.05804e-08 -7.41262e-09 0)
(9.47521e-09 -7.95507e-09 0)
(8.22682e-09 -8.53286e-09 0)
(6.90431e-09 -9.17623e-09 0)
(5.60544e-09 -9.89704e-09 0)
(4.41393e-09 -1.06839e-08 0)
(3.35136e-09 -1.14955e-08 0)
(2.37236e-09 -1.22729e-08 0)
(1.40133e-09 -1.2949e-08 0)
(4.13401e-10 -1.3472e-08 0)
(-5.32462e-10 -1.38114e-08 0)
(-1.34673e-09 -1.3965e-08 0)
(-1.99263e-09 -1.39685e-08 0)
(-2.44231e-09 -1.39256e-08 0)
(-2.68835e-09 -1.39171e-08 0)
(-2.85639e-09 -1.38668e-08 0)
(-3.06849e-09 -1.38926e-08 0)
(-2.97474e-09 -1.40016e-08 0)
(-2.30422e-09 -1.38091e-08 0)
(-1.8147e-09 -1.28087e-08 0)
(-1.64841e-09 -1.01224e-08 0)
(-6.99448e-10 -4.8646e-09 0)
(-4.59668e-10 -4.19842e-09 0)
(-8.08506e-10 -8.56541e-09 0)
(-1.11511e-09 -1.04981e-08 0)
(-1.81315e-09 -1.11439e-08 0)
(-2.44141e-09 -1.13674e-08 0)
(-2.93914e-09 -1.13924e-08 0)
(-3.30364e-09 -1.1252e-08 0)
(-3.59414e-09 -1.10378e-08 0)
(-3.8179e-09 -1.08092e-08 0)
(-4.0812e-09 -1.06092e-08 0)
(-4.51045e-09 -1.04098e-08 0)
(-5.10396e-09 -1.01452e-08 0)
(-5.72747e-09 -9.79584e-09 0)
(-6.19829e-09 -9.39922e-09 0)
(-6.4204e-09 -9.0229e-09 0)
(-6.45264e-09 -8.71837e-09 0)
(-6.41128e-09 -8.52494e-09 0)
(-6.31283e-09 -8.4577e-09 0)
(-6.16985e-09 -8.49518e-09 0)
(-6.05256e-09 -8.59176e-09 0)
(-5.96506e-09 -8.71992e-09 0)
(-5.86102e-09 -8.88508e-09 0)
(-5.74998e-09 -9.09644e-09 0)
(-5.65671e-09 -9.35971e-09 0)
(-5.52748e-09 -9.6781e-09 0)
(-5.2903e-09 -1.00378e-08 0)
(-4.95381e-09 -1.03979e-08 0)
(-4.58862e-09 -1.07105e-08 0)
(-4.26616e-09 -1.0942e-08 0)
(-4.04481e-09 -1.1077e-08 0)
(-3.96077e-09 -1.11168e-08 0)
(-3.99579e-09 -1.10846e-08 0)
(-4.07039e-09 -1.10194e-08 0)
(-4.09442e-09 -1.09523e-08 0)
(-4.03063e-09 -1.08855e-08 0)
(-3.91095e-09 -1.07945e-08 0)
(-3.79941e-09 -1.06465e-08 0)
(-3.74819e-09 -1.04153e-08 0)
(-3.78482e-09 -1.00824e-08 0)
(-3.92382e-09 -9.63351e-09 0)
(-4.17379e-09 -9.06148e-09 0)
(-4.52813e-09 -8.37435e-09 0)
(-4.95311e-09 -7.59877e-09 0)
(-5.38999e-09 -6.7715e-09 0)
(-5.77257e-09 -5.92359e-09 0)
(-6.04789e-09 -5.06827e-09 0)
(-6.1872e-09 -4.20114e-09 0)
(-6.18338e-09 -3.3115e-09 0)
(-6.0397e-09 -2.39721e-09 0)
(-5.75855e-09 -1.47414e-09 0)
(-5.3371e-09 -5.75919e-10 0)
(-4.77179e-09 2.54916e-10 0)
(-4.06817e-09 9.79164e-10 0)
(-3.24901e-09 1.57097e-09 0)
(-2.35414e-09 2.02185e-09 0)
(-1.42961e-09 2.3384e-09 0)
(-5.09746e-10 2.536e-09 0)
(3.99564e-10 2.63195e-09 0)
(1.32647e-09 2.64043e-09 0)
(2.32193e-09 2.57024e-09 0)
(3.43404e-09 2.42442e-09 0)
(4.679e-09 2.20118e-09 0)
(6.02438e-09 1.89576e-09 0)
(7.39535e-09 1.50397e-09 0)
(8.70273e-09 1.02666e-09 0)
(9.87779e-09 4.74015e-10 0)
(1.08936e-08 -1.3394e-10 0)
(1.17597e-08 -7.71184e-10 0)
(1.24951e-08 -1.41423e-09 0)
(1.30975e-08 -2.04974e-09 0)
(1.35332e-08 -2.67868e-09 0)
(1.3753e-08 -3.31219e-09 0)
(1.37256e-08 -3.96412e-09 0)
(1.3462e-08 -4.64058e-09 0)
(1.30148e-08 -5.33667e-09 0)
(1.24469e-08 -6.03648e-09 0)
(1.1795e-08 -6.72285e-09 0)
(1.10465e-08 -7.38397e-09 0)
(1.01545e-08 -8.02266e-09 0)
(9.07601e-09 -8.65344e-09 0)
(7.81818e-09 -9.30176e-09 0)
(6.4524e-09 -9.99106e-09 0)
(5.09534e-09 -1.07377e-08 0)
(3.85249e-09 -1.15365e-08 0)
(2.77195e-09 -1.23632e-08 0)
(1.82291e-09 -1.31691e-08 0)
(9.35508e-10 -1.38935e-08 0)
(6.88907e-11 -1.44733e-08 0)
(-7.33908e-10 -1.48732e-08 0)
(-1.39753e-09 -1.50945e-08 0)
(-1.91104e-09 -1.51702e-08 0)
(-2.2846e-09 -1.51597e-08 0)
(-2.44662e-09 -1.51384e-08 0)
(-2.56923e-09 -1.49986e-08 0)
(-2.89552e-09 -1.48053e-08 0)
(-2.92524e-09 -1.46172e-08 0)
(-2.22955e-09 -1.42601e-08 0)
(-1.53603e-09 -1.32321e-08 0)
(-1.32306e-09 -1.04721e-08 0)
(-6.10443e-10 -4.94175e-09 0)
(-4.62418e-10 -4.40699e-09 0)
(-8.72865e-10 -9.03792e-09 0)
(-1.15821e-09 -1.1148e-08 0)
(-1.82829e-09 -1.19077e-08 0)
(-2.47385e-09 -1.2163e-08 0)
(-2.90876e-09 -1.21827e-08 0)
(-3.20043e-09 -1.20319e-08 0)
(-3.46646e-09 -1.18079e-08 0)
(-3.7127e-09 -1.15864e-08 0)
(-4.00046e-09 -1.14314e-08 0)
(-4.39703e-09 -1.12993e-08 0)
(-4.90046e-09 -1.10953e-08 0)
(-5.43612e-09 -1.07679e-08 0)
(-5.87676e-09 -1.0349e-08 0)
(-6.14096e-09 -9.92566e-09 0)
(-6.2677e-09 -9.57339e-09 0)
(-6.34706e-09 -9.3427e-09 0)
(-6.36033e-09 -9.2485e-09 0)
(-6.28973e-09 -9.27153e-09 0)
(-6.20305e-09 -9.36641e-09 0)
(-6.13372e-09 -9.50778e-09 0)
(-6.05635e-09 -9.70355e-09 0)
(-5.9803e-09 -9.96348e-09 0)
(-5.92475e-09 -1.02821e-08 0)
(-5.82698e-09 -1.06468e-08 0)
(-5.59603e-09 -1.10308e-08 0)
(-5.22788e-09 -1.13888e-08 0)
(-4.79994e-09 -1.16754e-08 0)
(-4.40041e-09 -1.18659e-08 0)
(-4.10174e-09 -1.1951e-08 0)
(-3.95587e-09 -1.1929e-08 0)
(-3.96349e-09 -1.1814e-08 0)
(-4.05268e-09 -1.16446e-08 0)
(-4.11595e-09 -1.1468e-08 0)
(-4.08304e-09 -1.13108e-08 0)
(-3.95969e-09 -1.11651e-08 0)
(-3.80301e-09 -1.09996e-08 0)
(-3.67133e-09 -1.07806e-08 0)
(-3.59956e-09 -1.04819e-08 0)
(-3.60759e-09 -1.00844e-08 0)
(-3.7125e-09 -9.57315e-09 0)
(-3.9225e-09 -8.94149e-09 0)
(-4.2199e-09 -8.19633e-09 0)
(-4.55435e-09 -7.3579e-09 0)
(-4.8565e-09 -6.45164e-09 0)
(-5.06356e-09 -5.49859e-09 0)
(-5.14017e-09 -4.51172e-09 0)
(-5.08297e-09 -3.5008e-09 0)
(-4.90932e-09 -2.48152e-09 0)
(-4.63914e-09 -1.48201e-09 0)
(-4.28168e-09 -5.42066e-10 0)
(-3.83378e-09 2.94974e-10 0)
(-3.289e-09 9.93807e-10 0)
(-2.6501e-09 1.53661e-09 0)
(-1.93578e-09 1.92644e-09 0)
(-1.17592e-09 2.18362e-09 0)
(-3.96741e-10 2.33738e-09 0)
(3.96164e-10 2.41634e-09 0)
(1.22582e-09 2.44108e-09 0)
(2.13562e-09 2.42031e-09 0)
(3.16602e-09 2.35084e-09 0)
(4.32757e-09 2.22027e-09 0)
(5.58581e-09 2.01215e-09 0)
(6.86876e-09 1.71225e-09 0)
(8.09464e-09 1.315e-09 0)
(9.20421e-09 8.27016e-10 0)
(1.01775e-08 2.66255e-10 0)
(1.10248e-08 -3.44428e-10 0)
(1.1758e-08 -9.85626e-10 0)
(1.23636e-08 -1.64876e-09 0)
(1.27975e-08 -2.33651e-09 0)
(1.30076e-08 -3.05844e-09 0)
(1.29671e-08 -3.82132e-09 0)
(1.26983e-08 -4.62338e-09 0)
(1.22639e-08 -5.45106e-09 0)
(1.17324e-08 -6.28513e-09 0)
(1.11357e-08 -7.1058e-09 0)
(1.04513e-08 -7.90194e-09 0)
(9.6174e-09 -8.67008e-09 0)
(8.58053e-09 -9.4162e-09 0)
(7.33904e-09 -1.0148e-08 0)
(5.96552e-09 -1.08777e-08 0)
(4.58194e-09 -1.1614e-08 0)
(3.31065e-09 -1.23637e-08 0)
(2.21705e-09 -1.3118e-08 0)
(1.2947e-09 -1.38536e-08 0)
(4.88588e-10 -1.45229e-08 0)
(-2.42795e-10 -1.50678e-08 0)
(-8.91145e-10 -1.54374e-08 0)
(-1.41834e-09 -1.5626e-08 0)
(-1.83079e-09 -1.56772e-08 0)
(-2.14311e-09 -1.56563e-08 0)