/*--------------------------------*- C++ -*----------------------------------*\
| =========                 |                                                 |
| \\      /  F ield         | OpenFOAM: The Open Source CFD Toolbox           |
|  \\    /   O peration     | Version:  2406                                  |
|   \\  /    A nd           | Website:  www.openfoam.com                      |
|    \\/     M anipulation  |                                                 |
\*---------------------------------------------------------------------------*/
FoamFile
{
    version     2.0;
    format      ascii;
    arch        "LSB;label=32;scalar=64";
    class       volScalarField;
    location    "0.25";
    object      epsilon;
}
// * * * * * * * * * * * * * * * * * * * * * * * * * * * * * * * * * * * * * //

dimensions      [0 2 -3 0 0 0 0];

internalField   nonuniform List<scalar> 
2268
(
0.0560351
0.137135
0.199782
0.240781
0.267037
0.283499
0.293532
0.299453
0.302831
0.304687
0.305649
0.306068
0.306095
0.305713
0.304712
0.302605
0.29846
0.290635
0.276398
0.251422
0.209258
0.14157
0.0480461
0.0778213
0.096311
0.117668
0.131677
0.140321
0.14551
0.148546
0.150273
0.151227
0.151737
0.151994
0.152103
0.152107
0.151997
0.151712
0.151099
0.149863
0.147467
0.142981
0.134886
0.120885
0.0984336
0.0760382
0.10591
0.097473
0.106512
0.112996
0.116912
0.119148
0.120376
0.121028
0.121362
0.121527
0.121605
0.121634
0.121631
0.121591
0.121488
0.121259
0.120779
0.119809
0.117939
0.114502
0.108581
0.0999499
0.108396
0.127794
0.101882
0.103727
0.105995
0.107329
0.107974
0.108231
0.108302
0.108297
0.108271
0.108245
0.108228
0.108219
0.108217
0.108215
0.108196
0.108124
0.107929
0.107494
0.106679
0.105501
0.105488
0.13452
0.145121
0.106098
0.10293
0.102299
0.101862
0.101411
0.100993
0.100651
0.100398
0.100227
0.100122
0.100067
0.100053
0.100078
0.100147
0.100276
0.100488
0.100824
0.101374
0.102395
0.104712
0.111649
0.158351
0.158929
0.109571
0.102683
0.0999098
0.0981491
0.0968671
0.0959259
0.0952568
0.0948022
0.0945095
0.0943345
0.0942452
0.0942238
0.0942681
0.094393
0.0946344
0.095058
0.0957827
0.0970486
0.099427
0.104531
0.118125
0.184872
0.169938
0.112295
0.10256
0.09815
0.0953621
0.0934218
0.0920561
0.091114
0.0904859
0.0900853
0.0898466
0.0897245
0.0896942
0.0897527
0.0899206
0.0902482
0.0908296
0.0918358
0.0936082
0.0969477
0.104206
0.124877
0.228618
0.178701
0.114383
0.102433
0.0967482
0.0931459
0.0906716
0.0889529
0.0877777
0.086997
0.0864989
0.0862009
0.0860468
0.0860059
0.0860735
0.0862733
0.0866647
0.0873585
0.0885562
0.0906519
0.0945559
0.103035
0.129935
0.351156
0.052346
0.15195
0.220814
0.261262
0.283634
0.295431
0.301352
0.304124
0.305201
0.305228
0.304302
0.302064
0.297637
0.289468
0.275075
0.250684
0.210617
0.146766
0.0612254
0.0764206
0.102159
0.124882
0.138144
0.145289
0.148948
0.150733
0.151549
0.151863
0.15188
0.151633
0.151015
0.149753
0.147337
0.1429
0.13503
0.121547
0.09988
0.0788966
0.107608
0.101674
0.110425
0.115953
0.118931
0.120422
0.121125
0.121435
0.121554
0.121569
0.121496
0.121293
0.120842
0.11991
0.118069
0.114602
0.108465
0.0992453
0.105635
0.132239
0.105924
0.106066
0.10711
0.107764
0.108073
0.108189
0.108225
0.108239
0.108255
0.108282
0.108309
0.1083
0.108167
0.107724
0.10665
0.104598
0.10257
0.126058
0.154587
0.110992
0.104308
0.102103
0.101148
0.100647
0.10036
0.100206
0.100147
0.100168
0.100271
0.10047
0.100781
0.101211
0.101735
0.102305
0.103056
0.106009
0.142083
0.179926
0.116342
0.103317
0.0985905
0.0964606
0.0953718
0.0947894
0.094493
0.0943808
0.0944108
0.0945817
0.094924
0.0954939
0.0963655
0.0976295
0.0994335
0.10226
0.108894
0.154812
0.222626
0.121742
0.102321
0.0957147
0.0927616
0.0912564
0.0904583
0.0900566
0.0899069
0.0899496
0.090183
0.0906517
0.0914413
0.0926768
0.0945335
0.097302
0.101719
0.111163
0.164949
0.337135
0.125328
0.100727
0.093081
0.0896385
0.0878632
0.0869169
0.0864413
0.0862674
0.0863269
0.0866197
0.0872021
0.0881828
0.0897255
0.0920687
0.0956079
0.101269
0.112895
0.173011
0.189651
0.116854
0.102182
0.0949269
0.0903027
0.0871427
0.0849594
0.0834692
0.0824772
0.0818407
0.0814559
0.0812529
0.0811926
0.0812668
0.0815007
0.0819601
0.0827681
0.0841431
0.0864916
0.090662
0.0987249
0.116781
0.166854
0.198574
0.118669
0.101747
0.0931683
0.087648
0.0838579
0.0812261
0.079417
0.0782005
0.0774095
0.0769224
0.0766562
0.0765622
0.0766249
0.0768634
0.0773365
0.0781532
0.0794956
0.0816672
0.085195
0.0910417
0.100996
0.118042
0.203841
0.119625
0.101334
0.0919194
0.0858065
0.0815795
0.0786226
0.0765721
0.0751787
0.0742607
0.0736852
0.0733595
0.0732262
0.0732613
0.0734736
0.0739061
0.0746404
0.0758044
0.0775854
0.0802461
0.0841268
0.0895519
0.0963664
0.206871
0.120117
0.101002
0.0910573
0.084549
0.0800169
0.0768234
0.0745906
0.0730587
0.0720376
0.0713869
0.0710066
0.0708316
0.0708289
0.0709954
0.0713563
0.0719644
0.0728982
0.0742572
0.0761479
0.0786423
0.081674
0.0848161
0.208568
0.120364
0.100761
0.0904835
0.0837128
0.0789685
0.075604
0.0732349
0.0715963
0.070493
0.0697798
0.0693509
0.0691347
0.0690898
0.0692016
0.0694789
0.0699501
0.0706571
0.0716448
0.0729422
0.0745286
0.0762778
0.0778885
0.209495
0.120485
0.1006
0.0901163
0.0831736
0.078284
0.074798
0.0723291
0.07061
0.0694428
0.0686789
0.0682085
0.0679543
0.0678675
0.0679239
0.0681188
0.0684625
0.0689726
0.0696636
0.0705323
0.0715367
0.0725723
0.0734585
0.20999
0.120543
0.100498
0.0898901
0.0828372
0.0778503
0.07428
0.0717399
0.0699617
0.0687463
0.0679428
0.0674382
0.0671508
0.0670262
0.067032
0.0671538
0.067389
0.0677406
0.068208
0.0687772
0.0694094
0.0700321
0.070541
0.210249
0.120571
0.100438
0.0897557
0.082634
0.0775839
0.073957
0.0713675
0.0695473
0.0682967
0.0674633
0.0669317
0.066617
0.0664603
0.0664235
0.0664849
0.0666339
0.0668648
0.0671703
0.067535
0.0679289
0.0683052
0.0686038
0.210382
0.120584
0.100403
0.0896786
0.0825153
0.0774252
0.0737614
0.0711389
0.0692899
0.0680144
0.0671592
0.0666072
0.0662712
0.066089
0.0660184
0.066033
0.0661169
0.0662599
0.0664522
0.0666799
0.0669217
0.0671481
0.0673245
0.21045
0.12059
0.100384
0.0896357
0.0824478
0.0773334
0.0736464
0.0710025
0.0691344
0.067842
0.0669714
0.0664046
0.0660528
0.0658513
0.0657555
0.0657355
0.0657727
0.0658542
0.0659696
0.0661074
0.0662528
0.0663875
0.0664913
0.210483
0.120593
0.100374
0.0896125
0.0824106
0.0772818
0.0735806
0.0709234
0.069043
0.0677394
0.0668585
0.0662814
0.0659183
0.065703
0.065589
0.0655448
0.0655497
0.0655897
0.0656546
0.0657348
0.06582
0.0658987
0.0659592
0.2105
0.120594
0.100369
0.0896003
0.0823906
0.0772535
0.0735439
0.0708787
0.0689907
0.06768
0.0667923
0.0662083
0.0658374
0.0656126
0.0654863
0.0654257
0.0654091
0.0654222
0.0654548
0.0654989
0.0655472
0.0655921
0.0656269
0.210508
0.120595
0.100366
0.089594
0.0823801
0.0772384
0.073524
0.070854
0.0689614
0.0676463
0.0667543
0.0661658
0.0657898
0.0655588
0.0654243
0.0653531
0.0653228
0.0653189
0.0653315
0.0653537
0.0653797
0.0654047
0.0654243
0.210512
0.120595
0.100365
0.0895908
0.0823747
0.0772304
0.0735134
0.0708406
0.0689454
0.0676277
0.066733
0.0661418
0.0657625
0.0655274
0.0653878
0.0653099
0.0652712
0.0652569
0.0652575
0.0652666
0.0652796
0.0652929
0.0653039
0.210514
0.120595
0.100364
0.0895893
0.082372
0.0772264
0.0735079
0.0708336
0.0689368
0.0676176
0.0667213
0.0661283
0.0657471
0.0655096
0.0653668
0.0652849
0.065241
0.0652206
0.0652141
0.0652156
0.0652212
0.0652279
0.065234
0.210515
0.120595
0.100364
0.0895885
0.0823707
0.0772243
0.073505
0.0708299
0.0689323
0.0676122
0.066715
0.066121
0.0657386
0.0654996
0.0653549
0.0652706
0.0652238
0.0651998
0.0651893
0.0651866
0.0651879
0.065191
0.0651944
0.210516
0.120595
0.100364
0.0895881
0.08237
0.0772233
0.0735036
0.0708281
0.06893
0.0676094
0.0667117
0.0661171
0.065734
0.0654941
0.0653484
0.0652627
0.0652142
0.0651882
0.0651755
0.0651704
0.0651694
0.0651705
0.0651724
0.210516
0.120595
0.100364
0.089588
0.0823697
0.0772228
0.0735029
0.0708271
0.0689288
0.0676079
0.0667099
0.066115
0.0657315
0.0654911
0.0653448
0.0652583
0.0652089
0.0651818
0.0651679
0.0651615
0.0651593
0.0651594
0.0651605
0.210516
0.120595
0.100364
0.0895879
0.0823695
0.0772226
0.0735026
0.0708267
0.0689282
0.0676072
0.0667091
0.0661139
0.0657302
0.0654896
0.0653429
0.065256
0.0652061
0.0651784
0.0651638
0.0651568
0.0651539
0.0651534
0.0651541
0.210516
0.120595
0.100364
0.0895879
0.0823695
0.0772225
0.0735024
0.0708264
0.0689279
0.0676068
0.0667086
0.0661134
0.0657295
0.0654888
0.0653419
0.0652548
0.0652046
0.0651766
0.0651617
0.0651543
0.0651511
0.0651503
0.0651508
0.210516
0.120595
0.100364
0.0895878
0.0823694
0.0772224
0.0735023
0.0708263
0.0689278
0.0676066
0.0667084
0.0661131
0.0657292
0.0654883
0.0653414
0.0652541
0.0652038
0.0651757
0.0651606
0.065153
0.0651497
0.0651487
0.0651491
0.210516
0.120595
0.100364
0.0895878
0.0823694
0.0772224
0.0735023
0.0708263
0.0689277
0.0676065
0.0667083
0.066113
0.065729
0.0654881
0.0653411
0.0652538
0.0652034
0.0651752
0.06516
0.0651523
0.0651489
0.0651479
0.0651482
0.210516
0.120595
0.100364
0.0895878
0.0823694
0.0772224
0.0735023
0.0708263
0.0689277
0.0676065
0.0667082
0.0661129
0.0657289
0.065488
0.065341
0.0652537
0.0652032
0.065175
0.0651597
0.065152
0.0651485
0.0651475
0.0651478
0.210516
0.120595
0.100364
0.0895878
0.0823694
0.0772224
0.0735023
0.0708262
0.0689277
0.0676065
0.0667082
0.0661129
0.0657289
0.065488
0.0653409
0.0652536
0.0652031
0.0651748
0.0651596
0.0651518
0.0651484
0.0651473
0.0651476
0.210516
0.120595
0.100364
0.0895878
0.0823694
0.0772224
0.0735023
0.0708262
0.0689276
0.0676065
0.0667082
0.0661128
0.0657289
0.0654879
0.0653409
0.0652535
0.0652031
0.0651748
0.0651595
0.0651518
0.0651483
0.0651472
0.0651475
0.210516
0.120595
0.100364
0.0895878
0.0823694
0.0772224
0.0735023
0.0708262
0.0689276
0.0676065
0.0667082
0.0661128
0.0657289
0.0654879
0.0653409
0.0652535
0.0652031
0.0651748
0.0651595
0.0651517
0.0651482
0.0651472
0.0651475
0.210516
0.120595
0.100364
0.0895878
0.0823694
0.0772224
0.0735023
0.0708262
0.0689276
0.0676065
0.0667082
0.0661128
0.0657288
0.0654879
0.0653409
0.0652535
0.065203
0.0651747
0.0651595
0.0651517
0.0651482
0.0651471
0.0651474
0.210516
0.120595
0.100364
0.0895878
0.0823694
0.0772224
0.0735023
0.0708262
0.0689276
0.0676065
0.0667082
0.0661128
0.0657288
0.0654879
0.0653409
0.0652535
0.065203
0.0651747
0.0651595
0.0651517
0.0651482
0.0651471
0.0651474
0.210516
0.120595
0.100364
0.0895878
0.0823694
0.0772224
0.0735023
0.0708262
0.0689276
0.0676065
0.0667082
0.0661128
0.0657288
0.0654879
0.0653409
0.0652535
0.065203
0.0651747
0.0651595
0.0651517
0.0651482
0.0651471
0.0651474
0.210516
0.120595
0.100364
0.0895878
0.0823694
0.0772224
0.0735023
0.0708262
0.0689276
0.0676065
0.0667082
0.0661128
0.0657288
0.0654879
0.0653409
0.0652535
0.065203
0.0651747
0.0651595
0.0651517
0.0651482
0.0651471
0.0651474
0.210516
0.120595
0.100364
0.0895878
0.0823694
0.0772224
0.0735023
0.0708262
0.0689276
0.0676065
0.0667082
0.0661128
0.0657288
0.0654879
0.0653408
0.0652535
0.065203
0.0651747
0.0651594
0.0651517
0.0651482
0.0651471
0.0651474
0.210516
0.120595
0.100364
0.0895878
0.0823694
0.0772224
0.0735023
0.0708262
0.0689276
0.0676065
0.0667082
0.0661128
0.0657288
0.0654879
0.0653408
0.0652535
0.065203
0.0651747
0.0651594
0.0651517
0.0651482
0.0651471
0.0651474
0.210516
0.120595
0.100364
0.0895878
0.0823694
0.0772224
0.0735023
0.0708262
0.0689276
0.0676065
0.0667082
0.0661128
0.0657288
0.0654879
0.0653408
0.0652535
0.065203
0.0651747
0.0651594
0.0651517
0.0651482
0.0651471
0.0651474
0.210516
0.120595
0.100364
0.0895878
0.0823694
0.0772224
0.0735023
0.0708262
0.0689276
0.0676065
0.0667082
0.0661128
0.0657288
0.0654879
0.0653408
0.0652535
0.065203
0.0651747
0.0651594
0.0651517
0.0651482
0.0651471
0.0651474
0.210516
0.120595
0.100364
0.0895878
0.0823694
0.0772224
0.0735023
0.0708262
0.0689276
0.0676065
0.0667081
0.0661128
0.0657288
0.0654879
0.0653408
0.0652535
0.065203
0.0651747
0.0651594
0.0651516
0.0651481
0.0651471
0.0651473
0.210516
0.120595
0.100364
0.0895878
0.0823694
0.0772224
0.0735023
0.0708262
0.0689276
0.0676065
0.0667081
0.0661128
0.0657288
0.0654879
0.0653408
0.0652535
0.065203
0.0651747
0.0651594
0.0651516
0.0651481
0.065147
0.0651473
0.210516
0.120595
0.100364
0.0895878
0.0823694
0.0772224
0.0735023
0.0708262
0.0689276
0.0676065
0.0667081
0.0661128
0.0657288
0.0654879
0.0653408
0.0652535
0.065203
0.0651747
0.0651594
0.0651516
0.0651481
0.065147
0.0651472
0.210516
0.120595
0.100364
0.0895878
0.0823694
0.0772224
0.0735023
0.0708262
0.0689276
0.0676065
0.0667081
0.0661128
0.0657288
0.0654879
0.0653408
0.0652535
0.065203
0.0651747
0.0651594
0.0651516
0.065148
0.0651469
0.0651471
0.210516
0.120595
0.100364
0.0895878
0.0823694
0.0772224
0.0735023
0.0708262
0.0689276
0.0676065
0.0667081
0.0661128
0.0657288
0.0654879
0.0653408
0.0652535
0.065203
0.0651746
0.0651593
0.0651515
0.065148
0.0651468
0.0651471
0.210516
0.120595
0.100364
0.0895878
0.0823694
0.0772224
0.0735023
0.0708262
0.0689276
0.0676065
0.0667081
0.0661128
0.0657288
0.0654879
0.0653408
0.0652534
0.065203
0.0651746
0.0651593
0.0651515
0.0651479
0.0651468
0.0651469
0.210516
0.120595
0.100364
0.0895878
0.0823694
0.0772224
0.0735023
0.0708262
0.0689276
0.0676065
0.0667081
0.0661128
0.0657288
0.0654879
0.0653408
0.0652534
0.0652029
0.0651746
0.0651593
0.0651515
0.0651479
0.0651467
0.0651468
0.210516
0.120595
0.100364
0.0895878
0.0823694
0.0772224
0.0735023
0.0708262
0.0689276
0.0676065
0.0667081
0.0661128
0.0657288
0.0654879
0.0653408
0.0652534
0.0652029
0.0651746
0.0651593
0.0651514
0.0651479
0.0651466
0.0651468
0.38998
0.297662
0.296982
0.385979
0.137983
0.138772
0.138716
0.137869
0.1008
0.102045
0.102044
0.100805
0.086404
0.0869369
0.0869406
0.0864158
0.0786102
0.0788556
0.078859
0.0786206
0.0738316
0.0739575
0.0739601
0.0738394
0.070748
0.0708176
0.0708194
0.0707536
0.0687231
0.068763
0.0687644
0.0687271
0.0673943
0.0674177
0.0674187
0.0673973
0.0665323
0.0665461
0.0665469
0.0665347
0.0659831
0.0659914
0.065992
0.0659852
0.0656409
0.0656458
0.0656464
0.0656427
0.0654325
0.0654355
0.0654361
0.0654342
0.0653088
0.0653106
0.0653112
0.0653104
0.065237
0.0652383
0.0652388
0.0652386
0.0651963
0.0651973
0.0651978
0.0651979
0.0651738
0.0651745
0.065175
0.0651754
0.0651616
0.0651622
0.0651627
0.0651631
0.0651551
0.0651557
0.0651562
0.0651566
0.0651517
0.0651522
0.0651527
0.0651532
0.0651499
0.0651505
0.065151
0.0651515
0.065149
0.0651496
0.0651501
0.0651506
0.0651486
0.0651492
0.0651497
0.0651502
0.0651484
0.0651489
0.0651494
0.06515
0.0651483
0.0651488
0.0651493
0.0651498
0.0651482
0.0651488
0.0651493
0.0651498
0.0651482
0.0651488
0.0651493
0.0651498
0.0651482
0.0651488
0.0651493
0.0651498
0.0651482
0.0651487
0.0651492
0.0651498
0.0651482
0.0651487
0.0651492
0.0651498
0.0651482
0.0651487
0.0651492
0.0651497
0.0651482
0.0651487
0.0651492
0.0651497
0.0651482
0.0651487
0.0651492
0.0651497
0.0651481
0.0651487
0.0651492
0.0651497
0.0651481
0.0651487
0.0651492
0.0651497
0.065148
0.0651486
0.0651491
0.0651496
0.065148
0.0651485
0.065149
0.0651495
0.0651479
0.0651484
0.0651489
0.0651494
0.0651478
0.0651483
0.0651488
0.0651493
0.0651476
0.0651482
0.0651487
0.0651492
0.0651475
0.065148
0.0651485
0.0651491
0.0651474
0.0651479
0.0651484
0.0651489
0.16307
0.11369
0.0964899
0.0890611
0.0853461
0.0833472
0.0822607
0.0817124
0.0815203
0.081612
0.0819934
0.0827372
0.0839806
0.0859335
0.0889085
0.0934228
0.100622
0.114929
0.183073
0.116996
0.0993498
0.0894354
0.0838422
0.0806107
0.0787282
0.0776607
0.077118
0.07695
0.0771015
0.0775939
0.0785183
0.0800374
0.0823976
0.0859667
0.091351
0.0998604
0.116387
0.191257
0.0960745
0.0887155
0.083087
0.0792382
0.0767298
0.0751559
0.0742271
0.073758
0.0736484
0.0738708
0.0744654
0.0755401
0.0772751
0.0799386
0.0839288
0.089899
0.0992464
0.117132
0.196081
0.084725
0.0812403
0.0779949
0.075446
0.0736192
0.0724002
0.0716601
0.0713
0.0712679
0.0715657
0.0722528
0.0734517
0.0753553
0.0782452
0.0825359
0.088904
0.0987903
0.117502
0.198855
0.077857
0.0760443
0.0741311
0.0724738
0.0711979
0.0703068
0.0697603
0.0695194
0.0695711
0.0699426
0.0707109
0.0720108
0.0740446
0.0771023
0.0816064
0.0882439
0.0984743
0.117679
0.200408
0.0734472
0.0724427
0.0712948
0.0702309
0.069369
0.0687502
0.068378
0.0682503
0.0683821
0.0688209
0.069658
0.0710381
0.0731707
0.0763504
0.0810037
0.087821
0.0982682
0.117761
0.201257
0.0705373
0.0699594
0.0692648
0.0685913
0.068028
0.0676212
0.0673934
0.0673638
0.0675661
0.0680626
0.0689558
0.0703978
0.0726032
0.0758696
0.080625
0.0875597
0.0981404
0.117798
0.201711
0.0686035
0.0682651
0.0678455
0.0674274
0.0670731
0.0668238
0.0667088
0.0667586
0.0670189
0.0675623
0.0684991
0.0699873
0.0722449
0.0755712
0.0803944
0.0874037
0.0980647
0.117815
0.201949
0.0673258
0.0671273
0.0668769
0.0666245
0.0664129
0.0662761
0.0662448
0.0663555
0.0666609
0.0672404
0.0682099
0.0697314
0.0720251
0.0753914
0.0802582
0.0873136
0.0980215
0.117822
0.202072
0.0664935
0.0663783
0.0662323
0.0660862
0.0659696
0.0659104
0.0659387
0.0660937
0.0664324
0.0670385
0.0680315
0.069576
0.0718938
0.075286
0.08018
0.0872631
0.0979977
0.117825
0.202134
0.0659619
0.0658966
0.0658146
0.0657354
0.0656805
0.065673
0.065742
0.0659279
0.0662901
0.0669149
0.0679241
0.069484
0.0718176
0.075226
0.0801365
0.0872355
0.097985
0.117827
0.202166
0.0656299
0.0655943
0.065551
0.0655133
0.0654972
0.0655231
0.0656189
0.0658255
0.0662036
0.066841
0.067861
0.069431
0.0717743
0.0751926
0.0801127
0.0872209
0.0979784
0.117827
0.202181
0.0654275
0.0654093
0.0653891
0.0653764
0.0653842
0.065431
0.0655438
0.0657638
0.0661522
0.0667978
0.0678248
0.069401
0.0717504
0.0751744
0.0801001
0.0872132
0.0979751
0.117828
0.202189
0.0653072
0.0652991
0.0652922
0.0652942
0.0653164
0.0653758
0.0654992
0.0657274
0.0661223
0.0667731
0.0678044
0.0693844
0.0717374
0.0751647
0.0800935
0.0872094
0.0979734
0.117828
0.202193
0.0652374
0.0652349
0.0652357
0.0652462
0.0652767
0.0653436
0.0654732
0.0657065
0.0661053
0.0667593
0.0677932
0.0693755
0.0717304
0.0751597
0.0800901
0.0872074
0.0979726
0.117828
0.202194
0.0651978
0.0651984
0.0652035
0.0652188
0.065254
0.0653252
0.0654584
0.0656946
0.0660958
0.0667516
0.0677871
0.0693707
0.0717268
0.0751571
0.0800884
0.0872065
0.0979722
0.117828
0.202195
0.0651758
0.0651782
0.0651856
0.0652035
0.0652413
0.0653149
0.0654502
0.0656881
0.0660906
0.0667475
0.0677838
0.0693682
0.0717249
0.0751558
0.0800876
0.087206
0.097972
0.117828
0.202196
0.0651639
0.0651672
0.0651758
0.0651951
0.0652343
0.0653092
0.0654457
0.0656845
0.0660878
0.0667453
0.0677821
0.0693669
0.071724
0.0751551
0.0800872
0.0872058
0.0979719
0.117828
0.202196
0.0651575
0.0651613
0.0651706
0.0651906
0.0652306
0.0653062
0.0654432
0.0656826
0.0660863
0.0667442
0.0677812
0.0693662
0.0717235
0.0751548
0.080087
0.0872057
0.0979719
0.117828
0.202196
0.0651542
0.0651582
0.0651678
0.0651883
0.0652286
0.0653046
0.065442
0.0656816
0.0660856
0.0667436
0.0677808
0.0693659
0.0717233
0.0751547
0.0800869
0.0872056
0.0979719
0.117828
0.202196
0.0651525
0.0651567
0.0651664
0.065187
0.0652276
0.0653038
0.0654413
0.0656811
0.0660852
0.0667433
0.0677806
0.0693657
0.0717232
0.0751546
0.0800869
0.0872056
0.0979718
0.117828
0.202196
0.0651517
0.0651559
0.0651657
0.0651864
0.0652271
0.0653034
0.065441
0.0656809
0.066085
0.0667431
0.0677804
0.0693656
0.0717231
0.0751545
0.0800868
0.0872056
0.0979718
0.117828
0.202196
0.0651512
0.0651555
0.0651654
0.0651861
0.0652268
0.0653032
0.0654408
0.0656807
0.0660849
0.0667431
0.0677804
0.0693656
0.0717231
0.0751545
0.0800868
0.0872056
0.0979718
0.117828
0.202196
0.065151
0.0651553
0.0651652
0.065186
0.0652267
0.065303
0.0654407
0.0656807
0.0660848
0.066743
0.0677804
0.0693656
0.0717231
0.0751545
0.0800868
0.0872056
0.0979718
0.117828
0.202196
0.0651509
0.0651552
0.0651651
0.0651859
0.0652267
0.065303
0.0654407
0.0656806
0.0660848
0.066743
0.0677803
0.0693656
0.0717231
0.0751545
0.0800868
0.0872056
0.0979718
0.117828
0.202196
0.0651509
0.0651551
0.065165
0.0651858
0.0652266
0.065303
0.0654407
0.0656806
0.0660848
0.066743
0.0677803
0.0693656
0.0717231
0.0751545
0.0800868
0.0872056
0.0979718
0.117828
0.202196
0.0651508
0.0651551
0.065165
0.0651858
0.0652266
0.065303
0.0654407
0.0656806
0.0660848
0.066743
0.0677803
0.0693656
0.0717231
0.0751545
0.0800868
0.0872056
0.0979718
0.117828
0.202196
0.0651508
0.0651551
0.065165
0.0651858
0.0652266
0.065303
0.0654407
0.0656806
0.0660848
0.066743
0.0677803
0.0693656
0.0717231
0.0751545
0.0800868
0.0872056
0.0979718
0.117828
0.202196
0.0651508
0.0651551
0.065165
0.0651858
0.0652266
0.0653029
0.0654407
0.0656806
0.0660848
0.066743
0.0677803
0.0693656
0.0717231
0.0751545
0.0800868
0.0872056
0.0979718
0.117828
0.202196
0.0651508
0.0651551
0.065165
0.0651858
0.0652266
0.0653029
0.0654407
0.0656806
0.0660848
0.066743
0.0677803
0.0693656
0.0717231
0.0751545
0.0800868
0.0872056
0.0979718
0.117828
0.202196
0.0651508
0.0651551
0.065165
0.0651858
0.0652266
0.0653029
0.0654407
0.0656806
0.0660848
0.066743
0.0677803
0.0693656
0.0717231
0.0751545
0.0800868
0.0872056
0.0979718
0.117828
0.202196
0.0651508
0.0651551
0.065165
0.0651858
0.0652266
0.0653029
0.0654407
0.0656806
0.0660848
0.066743
0.0677803
0.0693656
0.0717231
0.0751545
0.0800868
0.0872056
0.0979718
0.117828
0.202196
0.0651508
0.0651551
0.065165
0.0651858
0.0652266
0.0653029
0.0654406
0.0656806
0.0660848
0.066743
0.0677803
0.0693656
0.0717231
0.0751545
0.0800868
0.0872056
0.0979718
0.117828
0.202196
0.0651508
0.065155
0.065165
0.0651858
0.0652266
0.0653029
0.0654406
0.0656806
0.0660848
0.066743
0.0677803
0.0693656
0.0717231
0.0751545
0.0800868
0.0872056
0.0979718
0.117828
0.202196
0.0651507
0.065155
0.065165
0.0651858
0.0652266
0.0653029
0.0654406
0.0656806
0.0660848
0.066743
0.0677803
0.0693656
0.0717231
0.0751545
0.0800868
0.0872056
0.0979718
0.117828
0.202196
0.0651507
0.065155
0.0651649
0.0651857
0.0652265
0.0653029
0.0654406
0.0656806
0.0660848
0.066743
0.0677803
0.0693656
0.0717231
0.0751545
0.0800868
0.0872056
0.0979718
0.117828
0.202196
0.0651506
0.0651549
0.0651649
0.0651857
0.0652265
0.0653029
0.0654406
0.0656806
0.0660847
0.066743
0.0677803
0.0693656
0.0717231
0.0751545
0.0800868
0.0872056
0.0979718
0.117828
0.202196
0.0651505
0.0651548
0.0651648
0.0651857
0.0652265
0.0653029
0.0654406
0.0656806
0.0660847
0.066743
0.0677803
0.0693656
0.0717231
0.0751545
0.0800868
0.0872056
0.0979718
0.117828
0.202196
0.0651504
0.0651548
0.0651648
0.0651856
0.0652265
0.0653029
0.0654406
0.0656806
0.0660847
0.066743
0.0677803
0.0693656
0.0717231
0.0751545
0.0800868
0.0872056
0.0979718
0.117828
0.202196
0.0651503
0.0651547
0.0651647
0.0651856
0.0652264
0.0653028
0.0654406
0.0656806
0.0660847
0.066743
0.0677803
0.0693656
0.0717231
0.0751545
0.0800868
0.0872056
0.0979718
0.117828
0.202196
0.0651502
0.0651546
0.0651646
0.0651856
0.0652264
0.0653028
0.0654406
0.0656806
0.0660847
0.066743
0.0677803
0.0693656
0.0717231
0.0751545
0.0800868
0.0872056
0.0979718
0.117828
0.202196
0.0651501
0.0651545
0.0651646
0.0651855
0.0652264
0.0653028
0.0654406
0.0656805
0.0660847
0.066743
0.0677803
0.0693655
0.0717231
0.0751545
0.0800868
0.0872056
0.0979718
0.117828
0.202196
)
;

boundaryField
{
    leftWall
    {
        type            epsilonWallFunction;
        blending        stepwise;
        value           nonuniform List<scalar> 
50
(
0.0560351
0.0778213
0.10591
0.127794
0.145121
0.158929
0.169938
0.178701
0.189651
0.198574
0.203841
0.206871
0.208568
0.209495
0.20999
0.210249
0.210382
0.21045
0.210483
0.2105
0.210508
0.210512
0.210514
0.210515
0.210516
0.210516
0.210516
0.210516
0.210516
0.210516
0.210516
0.210516
0.210516
0.210516
0.210516
0.210516
0.210516
0.210516
0.210516
0.210516
0.210516
0.210516
0.210516
0.210516
0.210516
0.210516
0.210516
0.210516
0.210516
0.210516
)
;
    }
    rightWall
    {
        type            epsilonWallFunction;
        blending        stepwise;
        value           nonuniform List<scalar> 
50
(
0.0612254
0.0788966
0.105635
0.126058
0.142083
0.154812
0.164949
0.173011
0.183073
0.191257
0.196081
0.198855
0.200408
0.201257
0.201711
0.201949
0.202072
0.202134
0.202166
0.202181
0.202189
0.202193
0.202194
0.202195
0.202196
0.202196
0.202196
0.202196
0.202196
0.202196
0.202196
0.202196
0.202196
0.202196
0.202196
0.202196
0.202196
0.202196
0.202196
0.202196
0.202196
0.202196
0.202196
0.202196
0.202196
0.202196
0.202196
0.202196
0.202196
0.202196
)
;
    }
    lowerWall
    {
        type            epsilonWallFunction;
        blending        stepwise;
        value           nonuniform List<scalar> 
62
(
0.0560351
0.137135
0.199782
0.240781
0.267037
0.283499
0.293532
0.299453
0.302831
0.304687
0.305649
0.306068
0.306095
0.305713
0.304712
0.302605
0.29846
0.290635
0.276398
0.251422
0.209258
0.14157
0.0480461
0.0480461
0.0760382
0.108396
0.13452
0.158351
0.184872
0.228618
0.351156
0.38998
0.297662
0.296982
0.385979
0.052346
0.0764206
0.107608
0.132239
0.154587
0.179926
0.222626
0.337135
0.052346
0.15195
0.220814
0.261262
0.283634
0.295431
0.301352
0.304124
0.305201
0.305228
0.304302
0.302064
0.297637
0.289468
0.275075
0.250684
0.210617
0.146766
0.0612254
)
;
    }
    atmosphere
    {
        type            inletOutlet;
        inletValue      uniform 0.1;
        value           nonuniform List<scalar> 
46
(
0.210516
0.120595
0.100364
0.0895878
0.0823694
0.0772224
0.0735023
0.0708262
0.0689276
0.0676065
0.0667081
0.0661128
0.0657288
0.0654879
0.0653408
0.0652534
0.0652029
0.0651746
0.0651593
0.0651514
0.0651479
0.0651466
0.0651468
0.0651474
0.0651479
0.0651484
0.0651489
0.0651501
0.0651545
0.0651646
0.0651855
0.0652264
0.0653028
0.0654406
0.0656805
0.0660847
0.066743
0.0677803
0.0693655
0.0717231
0.0751545
0.0800868
0.0872056
0.0979718
0.117828
0.202196
)
;
    }
    defaultFaces
    {
        type            empty;
    }
}


// ************************************************************************* //
