/*--------------------------------*- C++ -*----------------------------------*\
| =========                 |                                                 |
| \\      /  F ield         | OpenFOAM: The Open Source CFD Toolbox           |
|  \\    /   O peration     | Version:  2406                                  |
|   \\  /    A nd           | Website:  www.openfoam.com                      |
|    \\/     M anipulation  |                                                 |
\*---------------------------------------------------------------------------*/
FoamFile
{
    version     2.0;
    format      ascii;
    arch        "LSB;label=32;scalar=64";
    class       volScalarField;
    location    "0.25";
    object      epsilon;
}
// * * * * * * * * * * * * * * * * * * * * * * * * * * * * * * * * * * * * * //

dimensions      [0 2 -3 0 0 0 0];

internalField   nonuniform List<scalar> 
2268
(
3.11056
4.22461
4.22461
4.22461
4.22461
4.22461
4.22461
4.22461
4.22461
4.22461
4.22461
4.22461
4.22461
0.161563
0.170714
0.21915
0.247119
0.259029
0.256622
0.238767
0.201527
0.138397
0.0479218
1.99652
3.53904
3.87395
3.99094
4.04704
4.07914
4.09939
4.11283
4.12192
4.12796
4.13166
4.13343
4.13343
0.226098
0.125001
0.131807
0.139371
0.142662
0.14148
0.135106
0.121709
0.0989478
0.075399
1.99652
3.12319
3.57196
3.77086
3.87483
3.93633
3.9757
4.00204
4.01992
4.03183
4.03915
4.04264
4.04264
0.267982
0.132137
0.123855
0.124548
0.125038
0.124067
0.120885
0.114248
0.103152
0.106621
1.99652
2.85875
3.32578
3.57199
3.71211
3.79846
3.85491
3.89313
3.91925
3.93672
3.94749
3.95264
3.95264
0.295927
0.141899
0.124204
0.120403
0.119029
0.118095
0.116808
0.11434
0.110601
0.13138
1.99652
2.68257
3.12893
3.39682
3.5614
3.66727
3.7382
3.78691
3.82052
3.84312
3.85709
3.86378
3.86378
0.315377
0.150099
0.125725
0.118508
0.115649
0.114661
0.114741
0.115515
0.118006
0.153821
1.99652
2.55993
2.97192
3.24472
3.42379
3.54389
3.62645
3.68408
3.72425
3.75144
3.76832
3.77642
3.77642
0.329244
0.156277
0.126908
0.117002
0.11291
0.111786
0.112857
0.11632
0.125155
0.178979
1.99652
2.47111
2.84601
3.11356
3.29936
3.42889
3.52026
3.58514
3.63088
3.66206
3.68151
3.69086
3.69086
0.339249
0.160594
0.127358
0.115332
0.110214
0.108868
0.110556
0.116127
0.132064
0.221208
1.99652
2.40455
2.74407
3.00066
3.18749
3.32242
3.41999
3.49048
3.54076
3.5753
3.59696
3.6074
3.6074
0.34645
0.163181
0.126901
0.113261
0.107312
0.105657
0.107538
0.11425
0.136755
0.340402
0.052253
0.149363
0.21504
0.25394
0.275491
0.286669
0.292095
0.294534
0.295452
0.295487
0.294742
0.29287
0.289005
0.281553
0.267951
0.244434
0.205701
0.144371
0.0611519
0.0760003
0.102735
0.126389
0.140028
0.147253
0.150871
0.15259
0.153356
0.153645
0.153661
0.153436
0.152866
0.151679
0.14935
0.144964
0.137018
0.123195
0.100761
0.0785258
0.106419
0.105032
0.116501
0.12299
0.12622
0.127762
0.128481
0.128806
0.128931
0.12894
0.128845
0.128605
0.128112
0.127135
0.125213
0.121475
0.114445
0.102824
0.10461
0.130161
0.111344
0.115081
0.117179
0.118027
0.118353
0.118491
0.11856
0.118591
0.118594
0.118572
0.118521
0.118429
0.118234
0.117748
0.116476
0.113441
0.108113
0.124312
0.151708
0.117776
0.115
0.11371
0.112807
0.112251
0.111965
0.111843
0.111803
0.111804
0.11184
0.111939
0.112156
0.112557
0.113147
0.113706
0.113616
0.112855
0.139725
0.176432
0.123847
0.114633
0.11059
0.108371
0.107161
0.106554
0.106284
0.106188
0.106189
0.106281
0.106513
0.106996
0.107888
0.10934
0.111345
0.113575
0.116445
0.152031
0.218686
0.129358
0.113339
0.1072
0.104074
0.102414
0.101578
0.101196
0.101057
0.101064
0.10121
0.101565
0.10228
0.10358
0.105718
0.10885
0.112912
0.118811
0.161996
0.332237
0.132401
0.110573
0.103285
0.099684
0.0977734
0.0967963
0.0963396
0.096172
0.0961899
0.0963894
0.0968563
0.0977683
0.09939
0.102036
0.105977
0.111403
0.119876
0.170233
1.99652
2.32441
2.61365
2.84849
3.03071
3.16899
3.27268
3.34954
3.40534
3.44416
3.46868
3.48055
3.48055
0.353996
0.164465
0.12465
0.109259
0.102318
0.100057
0.101548
0.107573
0.122681
0.167897
1.99652
2.25443
2.4912
2.69466
2.86183
2.99521
3.09939
3.17907
3.2383
3.28018
3.30694
3.31998
3.31998
0.359414
0.166211
0.123474
0.10639
0.0983107
0.0951036
0.0954767
0.0993242
0.107674
0.123278
1.99652
2.20583
2.40242
2.57748
2.72708
2.85095
2.95084
3.02927
3.08878
3.1315
3.15907
3.17259
3.17259
0.362106
0.167615
0.123064
0.104757
0.0957216
0.0915837
0.0907732
0.0926653
0.0970714
0.103898
1.99652
2.17008
2.33538
2.48604
2.61835
2.73091
2.82397
2.89861
2.95621
2.99811
3.02541
3.03886
3.03886
0.363299
0.168568
0.122847
0.103673
0.0938807
0.0889392
0.0871094
0.0875306
0.0896644
0.0930424
1.99652
2.14267
2.28313
2.41316
2.52955
2.63059
2.71573
2.78517
2.83952
2.87949
2.90573
2.91872
2.91872
0.363677
0.169226
0.122714
0.102923
0.0925571
0.0869827
0.0843699
0.0837674
0.0845643
0.086309
1.99652
2.12103
2.2414
2.35405
2.45628
2.54634
2.62334
2.68698
2.73735
2.77474
2.79944
2.81172
2.81172
0.363606
0.169709
0.122643
0.102414
0.0916317
0.0855944
0.0824255
0.0811474
0.0811554
0.0820583
1.99652
2.10357
2.20749
2.30548
2.39529
2.47529
2.54444
2.60219
2.64832
2.6828
2.70571
2.71713
2.71713
0.363289
0.170082
0.122621
0.102085
0.0910143
0.0846598
0.081121
0.0794186
0.078971
0.0794373
1.99652
2.08927
2.17957
2.26519
2.34422
2.4152
2.47707
2.52916
2.57106
2.60256
2.62358
2.63409
2.63409
0.362843
0.170384
0.122637
0.101886
0.0906242
0.084065
0.0802952
0.0783399
0.0776396
0.0778884
1.99652
2.07744
2.15639
2.23154
2.30128
2.3643
2.41959
2.46643
2.50431
2.53292
2.55207
2.56167
2.56167
0.362339
0.170633
0.122675
0.101775
0.0903907
0.0837068
0.0798012
0.0777039
0.076871
0.0770191
1.99652
2.0676
2.13706
2.20337
2.26514
2.32122
2.37066
2.41274
2.44692
2.47283
2.49022
2.49895
2.49895
0.361823
0.170841
0.122723
0.101719
0.090257
0.083501
0.0795208
0.0773487
0.076451
0.0765574
1.99652
2.0594
2.12092
2.17977
2.23476
2.28485
2.32918
2.36704
2.39789
2.42135
2.43713
2.44506
2.44506
0.361327
0.171017
0.122774
0.101692
0.0901811
0.0833853
0.079367
0.0771591
0.0762328
0.0763251
1.99652
2.05258
2.10747
2.16007
2.20932
2.25431
2.29422
2.32841
2.35635
2.37763
2.39197
2.39919
2.39919
0.360877
0.17117
0.122821
0.101677
0.0901328
0.0833159
0.0792808
0.0770588
0.0761229
0.0762133
1.99652
2.04695
2.09635
2.14375
2.1882
2.22888
2.26506
2.29611
2.32153
2.34093
2.35402
2.36061
2.3606
0.360502
0.171311
0.122861
0.101658
0.0900885
0.0832614
0.0792228
0.0769998
0.076065
0.0761596
1.99652
2.04235
2.08727
2.13039
2.1709
2.20802
2.24108
2.2695
2.2928
2.31061
2.32263
2.32869
2.32869
0.36026
0.171462
0.122888
0.101616
0.0900226
0.0831946
0.0791643
0.0769515
0.0760263
0.0761298
1.99652
2.03867
2.07999
2.11969
2.15702
2.19126
2.22179
2.24806
2.26963
2.28613
2.29728
2.3029
2.30289
0.360276
0.17166
0.122879
0.101511
0.0898968
0.0830835
0.079079
0.0768914
0.0759865
0.0761052
1.99652
2.03582
2.07436
2.1114
2.14625
2.17824
2.20679
2.23139
2.2516
2.26706
2.27751
2.28278
2.28278
0.360869
0.171947
0.122761
0.101256
0.0896437
0.0828821
0.0789368
0.0767992
0.0759311
0.076075
1.99652
2.03373
2.07024
2.10534
2.13837
2.16871
2.1958
2.21916
2.23835
2.25305
2.26299
2.268
2.268
0.36274
0.172219
0.122285
0.100663
0.0891475
0.0825249
0.0787018
0.076655
0.0758486
0.0760321
1.99652
2.03237
2.06754
2.10136
2.1332
2.16246
2.18859
2.21113
2.22966
2.24385
2.25345
2.25829
2.25829
0.366197
0.171349
0.120705
0.0993578
0.0882341
0.0819321
0.078337
0.0764415
0.0757305
0.0759723
1.99652
2.03169
2.06621
2.0994
2.13064
2.15936
2.18502
2.20715
2.22535
2.23929
2.24872
2.25348
2.25348
0.356038
0.163714
0.116266
0.096783
0.0867187
0.0810404
0.0778206
0.0761512
0.0755744
0.0758946
1.99652
2.03169
2.06621
2.0994
2.13064
2.15936
2.18502
2.20715
2.22535
2.23929
2.24872
2.25348
0.460609
0.205048
0.135572
0.10707
0.0926686
0.0845839
0.0798672
0.077169
0.0757948
0.0753864
0.0758022
0.23408
0.286582
0.318611
0.335882
0.345514
0.351031
0.354301
0.356445
0.358344
0.361012
0.364897
0.354772
0.20478
0.144031
0.114418
0.0979557
0.0881733
0.0821929
0.0785537
0.0764452
0.0754027
0.0751812
0.075702
0.153144
0.142604
0.15494
0.162771
0.166999
0.169169
0.170278
0.170903
0.171363
0.171684
0.17079
0.163126
0.135293
0.114318
0.100057
0.0904721
0.0840845
0.0799039
0.0772661
0.0757288
0.0750134
0.0749775
0.0756026
0.171121
0.124428
0.123053
0.123774
0.123979
0.123769
0.123424
0.123081
0.122717
0.122077
0.120395
0.115926
0.106832
0.0978214
0.0904156
0.0847897
0.0807288
0.0779346
0.0761275
0.0750854
0.0746608
0.0747922
0.0755122
0.186486
0.121851
0.112962
0.109311
0.106832
0.104946
0.103539
0.102501
0.101653
0.100709
0.0992139
0.0965651
0.0924689
0.0880242
0.0839886
0.0806809
0.0781623
0.0763707
0.0752009
0.0745535
0.0743664
0.0746365
0.075436
0.196115
0.121798
0.108788
0.102511
0.0982858
0.0952437
0.0930764
0.0915493
0.0904154
0.0894006
0.0882066
0.0865629
0.0843951
0.0820179
0.0797602
0.077828
0.076308
0.0752081
0.074498
0.0741444
0.0741378
0.0745149
0.0753763
0.201802
0.122076
0.106789
0.098953
0.0936165
0.0897961
0.0871
0.0852349
0.0839256
0.0829099
0.0819534
0.0808818
0.0796372
0.0783098
0.0770354
0.0759232
0.0750351
0.074393
0.0739974
0.0738496
0.0739717
0.074426
0.0753327
0.205024
0.122307
0.105771
0.0970251
0.0909979
0.0866691
0.0836161
0.0815221
0.0801009
0.0790969
0.0782994
0.077559
0.0768055
0.0760463
0.0753283
0.074702
0.0742032
0.073852
0.0736613
0.0736499
0.0738584
0.0743653
0.075303
0.206783
0.122457
0.105251
0.0959875
0.0895443
0.0848946
0.0816093
0.0793642
0.07787
0.0768746
0.0761746
0.0756251
0.0751429
0.0746983
0.0742957
0.0739521
0.0736857
0.073512
0.0734483
0.0735227
0.0737862
0.0743267
0.0752844
0.207716
0.122549
0.104994
0.0954467
0.0887626
0.0839189
0.0804883
0.0781469
0.0766054
0.0756133
0.0749692
0.0745271
0.0741944
0.0739233
0.0736964
0.073513
0.0733803
0.0733102
0.0733217
0.0734474
0.073744
0.0743048
0.0752746
0.208202
0.122606
0.104875
0.0951792
0.088362
0.0834067
0.0798899
0.0774897
0.0759183
0.0749261
0.074312
0.073928
0.0736759
0.0734982
0.0733664
0.0732707
0.073212
0.0731998
0.0732535
0.0734083
0.0737237
0.0742959
0.0752721
0.208463
0.122644
0.104828
0.0950581
0.0881718
0.0831562
0.0795913
0.0771574
0.0755682
0.0745746
0.0739756
0.0736217
0.0734114
0.0732822
0.0732002
0.0731505
0.073131
0.0731496
0.0732259
0.0733961
0.0737212
0.0742989
0.0752774
0.208629
0.122678
0.104821
0.0950162
0.0880973
0.0830521
0.0794629
0.0770117
0.0754129
0.0744183
0.0738267
0.0734878
0.0732983
0.0731933
0.0731362
0.0731097
0.0731098
0.0731438
0.0732313
0.0734087
0.0737378
0.0743168
0.075294
0.20879
0.122723
0.104843
0.0950247
0.0880933
0.0830369
0.0794384
0.0769806
0.0753785
0.0743843
0.0737967
0.0734653
0.0732859
0.0731925
0.0731472
0.0731316
0.0731408
0.0731818
0.0732739
0.0734536
0.0737826
0.074359
0.0753306
0.209047
0.122809
0.104906
0.0950823
0.0881494
0.0830931
0.0794958
0.0770398
0.0754401
0.0744488
0.0738648
0.0735378
0.0733634
0.0732755
0.0732355
0.0732245
0.0732374
0.0732807
0.0733734
0.0735517
0.0738768
0.074446
0.0754057
0.209572
0.122996
0.105049
0.0952158
0.0882848
0.0832362
0.0796495
0.0772041
0.0756137
0.0746297
0.0740514
0.0737285
0.0735576
0.0734724
0.0734346
0.0734251
0.0734387
0.0734814
0.0735719
0.0737455
0.0740624
0.0746177
0.0755553
0.210744
0.123431
0.105366
0.0954917
0.0885519
0.0835153
0.0799504
0.0775286
0.0759584
0.0749896
0.0744214
0.074105
0.0739379
0.0738548
0.0738179
0.0738085
0.0738211
0.0738613
0.0739469
0.0741122
0.0744148
0.0749467
0.0758466
0.213449
0.124478
0.106073
0.0960424
0.0890478
0.0840207
0.080495
0.0781183
0.076587
0.0756468
0.0750974
0.0747922
0.0746311
0.0745508
0.0745148
0.0745047
0.0745152
0.0745513
0.0746296
0.074782
0.0750627
0.075558
0.0763978
0.219877
0.127065
0.107634
0.0970975
0.0899213
0.0848928
0.0814386
0.0791461
0.0776857
0.0767963
0.0762796
0.0759934
0.0758424
0.0757668
0.0757323
0.0757216
0.0757294
0.0757601
0.0758284
0.075963
0.0762126
0.0766549
0.0774063
0.235657
0.133501
0.110894
0.09895
0.0913434
0.0863194
0.0830101
0.0808744
0.0795388
0.0787352
0.0782718
0.0780162
0.0778814
0.0778136
0.077782
0.0777712
0.0777762
0.0778005
0.0778565
0.0779683
0.0781771
0.0785484
0.0791795
0.277286
0.148953
0.116752
0.101641
0.0933833
0.0885131
0.0855276
0.0836824
0.0825577
0.0818912
0.0815103
0.0813009
0.0811904
0.0811344
0.0811078
0.0810979
0.0811005
0.0811179
0.0811596
0.0812442
0.0814031
0.0816862
0.0821664
0.425687
0.181686
0.123606
0.104039
0.0958027
0.091708
0.0894356
0.0881046
0.0873159
0.0868551
0.0865935
0.0864499
0.0863738
0.0863349
0.0863161
0.0863086
0.0863094
0.0863198
0.0863458
0.0863993
0.0865003
0.0866806
0.0869852
1.58282
0.214354
0.119415
0.102931
0.0982199
0.09635
0.0954196
0.0948982
0.0945939
0.0944169
0.0943161
0.0942605
0.0942308
0.0942153
0.0942077
0.0942045
0.0942044
0.0942079
0.094217
0.094236
0.094272
0.0943367
0.0944469
0.379124
0.288944
0.288852
0.378154
0.143488
0.145321
0.145405
0.144215
0.109851
0.11209
0.112048
0.110001
0.0959095
0.0971426
0.0970466
0.0958022
0.0879798
0.088711
0.0886007
0.0877735
0.0831783
0.0836782
0.0835652
0.0829376
0.080306
0.0807059
0.0805926
0.0800543
0.0786537
0.0790163
0.078902
0.0783977
0.07775
0.0781029
0.0779872
0.0774911
0.0772826
0.0776359
0.0775187
0.077021
0.077054
0.0774104
0.0772921
0.0767906
0.0769478
0.0773073
0.0771885
0.0766839
0.0768997
0.0772618
0.0771433
0.0766369
0.076876
0.077241
0.0771235
0.0766166
0.0768596
0.0772285
0.0771131
0.0766071
0.0768417
0.0772164
0.0771046
0.0766006
0.0768172
0.0772005
0.0770943
0.0765937
0.0767833
0.0771787
0.0770804
0.0765847
0.0767395
0.0771506
0.0770625
0.0765732
0.0766876
0.0771173
0.0770413
0.0765597
0.0766315
0.0770814
0.0770185
0.0765451
0.0765759
0.077046
0.076996
0.0765307
0.0765254
0.0770138
0.0769757
0.0765177
0.076483
0.0769869
0.0769587
0.0765068
0.0764499
0.076966
0.0769456
0.0764986
0.0764259
0.076951
0.0769362
0.0764927
0.0764097
0.076941
0.0769302
0.0764891
0.0763998
0.0769351
0.0769268
0.0764874
0.0763951
0.0769326
0.0769259
0.0764876
0.0763948
0.0769335
0.0769277
0.0764902
0.0764
0.0769387
0.0769334
0.0764967
0.0764137
0.0769511
0.0769461
0.0765107
0.0764434
0.0769778
0.0769727
0.0765396
0.0765048
0.0770331
0.0770278
0.076599
0.0766294
0.0771463
0.0771406
0.0767197
0.0768776
0.0773747
0.0773681
0.0769611
0.0773596
0.0778241
0.0778162
0.0774324
0.0782645
0.0786796
0.0786701
0.0783224
0.0798953
0.0802417
0.0802312
0.0799355
0.0827033
0.082963
0.0829528
0.0827258
0.0873162
0.0874762
0.0874685
0.0873243
0.0945616
0.0946146
0.094611
0.0945585
0.164362
0.118911
0.103338
0.0963147
0.0926193
0.0905998
0.0895305
0.0890125
0.0888232
0.0888651
0.0891447
0.0897634
0.0909172
0.0928894
0.0960249
0.100695
0.107465
0.119318
0.181253
0.121953
0.104446
0.0949063
0.0894521
0.0862465
0.0843838
0.0833524
0.0828387
0.0826619
0.0827498
0.0831293
0.0839236
0.0853508
0.0877175
0.0914029
0.0968689
0.104949
0.119468
0.189899
0.102762
0.0942213
0.0883038
0.0843646
0.0818318
0.080275
0.0793807
0.0789309
0.0787969
0.0789387
0.0794071
0.0803465
0.0819956
0.0846817
0.0888113
0.0948968
0.103888
0.119923
0.194639
0.0919554
0.0870694
0.0833037
0.0805615
0.0786827
0.0774763
0.0767649
0.0764114
0.076337
0.0765343
0.0770774
0.0781294
0.0799448
0.0828656
0.087313
0.0938209
0.103379
0.12025
0.197219
0.0852642
0.0821459
0.0796769
0.0778008
0.076466
0.0755843
0.0750583
0.0748088
0.0747978
0.0750465
0.0756491
0.0767839
0.0787172
0.0817995
0.086459
0.0932352
0.103127
0.120445
0.198603
0.0810471
0.0788491
0.0771603
0.0758757
0.0749517
0.0743353
0.0739706
0.0738158
0.0738627
0.0741548
0.0748022
0.0759949
0.0780071
0.0811945
0.0859873
0.0929242
0.103003
0.120555
0.199332
0.078443
0.0767239
0.0754937
0.0745927
0.0739563
0.0735374
0.0732987
0.0732206
0.0733148
0.0736406
0.0743199
0.0755509
0.0776133
0.0808652
0.0857371
0.0927654
0.102944
0.120614
0.199709
0.0768959
0.0754144
0.074443
0.0737776
0.0733297
0.0730468
0.0728983
0.0728768
0.0730062
0.0733563
0.0740571
0.0753122
0.0774046
0.0806941
0.0856104
0.0926881
0.102919
0.120647
0.199901
0.0760199
0.0746467
0.0738134
0.073285
0.072953
0.0727573
0.0726688
0.0726858
0.0728394
0.0732059
0.0739203
0.0751897
0.0772992
0.0806094
0.0855495
0.0926525
0.102908
0.120664
0.199998
0.0755493
0.0742195
0.0734554
0.0730019
0.072737
0.0725938
0.0725425
0.0725838
0.072753
0.0731298
0.0738523
0.0751298
0.0772486
0.0805696
0.0855217
0.0926371
0.102905
0.120673
0.200045
0.07531
0.0739941
0.0732622
0.0728474
0.072619
0.0725055
0.0724757
0.0725316
0.07271
0.0730929
0.0738202
0.075102
0.0772256
0.0805519
0.0855098
0.092631
0.102904
0.120678
0.200069
0.0751949
0.0738816
0.0731633
0.0727672
0.0725576
0.0724599
0.072442
0.0725059
0.0726896
0.073076
0.0738057
0.0750898
0.0772157
0.0805445
0.0855051
0.0926288
0.102904
0.120681
0.20008
0.0751424
0.0738283
0.0731154
0.0727278
0.0725272
0.0724375
0.0724257
0.0724939
0.0726804
0.0730686
0.0737996
0.0750848
0.0772118
0.0805417
0.0855034
0.0926281
0.102904
0.120682
0.200086
0.0751197
0.0738045
0.0730934
0.0727094
0.072513
0.0724271
0.0724182
0.0724885
0.0726764
0.0730656
0.0737972
0.0750829
0.0772103
0.0805408
0.0855029
0.092628
0.102904
0.120683
0.200088
0.0751098
0.0737943
0.0730839
0.0727013
0.0725067
0.0724225
0.072415
0.0724863
0.0726749
0.0730644
0.0737964
0.0750823
0.0772099
0.0805405
0.0855028
0.0926281
0.102905
0.120683
0.200089
0.0751049
0.0737899
0.0730799
0.072698
0.0725041
0.0724206
0.0724137
0.0724855
0.0726743
0.0730641
0.0737961
0.0750821
0.0772098
0.0805405
0.0855028
0.0926281
0.102905
0.120683
0.20009
0.075101
0.0737876
0.0730782
0.0726967
0.0725031
0.0724199
0.0724133
0.0724852
0.0726742
0.073064
0.0737961
0.0750821
0.0772098
0.0805405
0.0855028
0.0926282
0.102905
0.120683
0.20009
0.0750968
0.0737859
0.0730774
0.0726962
0.0725028
0.0724197
0.0724132
0.0724851
0.0726742
0.073064
0.0737961
0.0750822
0.0772099
0.0805405
0.0855029
0.0926282
0.102905
0.120683
0.20009
0.0750916
0.073784
0.0730767
0.0726959
0.0725027
0.0724196
0.0724132
0.0724852
0.0726742
0.073064
0.0737962
0.0750822
0.0772099
0.0805406
0.0855029
0.0926282
0.102905
0.120683
0.200091
0.0750854
0.0737818
0.073076
0.0726958
0.0725026
0.0724197
0.0724132
0.0724852
0.0726742
0.0730641
0.0737962
0.0750822
0.0772099
0.0805406
0.0855029
0.0926282
0.102905
0.120683
0.200091
0.0750788
0.0737795
0.0730752
0.0726956
0.0725026
0.0724197
0.0724132
0.0724852
0.0726743
0.0730641
0.0737962
0.0750822
0.0772099
0.0805406
0.0855029
0.0926282
0.102905
0.120683
0.200091
0.0750723
0.0737772
0.0730745
0.0726954
0.0725026
0.0724197
0.0724133
0.0724853
0.0726743
0.0730641
0.0737962
0.0750823
0.07721
0.0805406
0.0855029
0.0926282
0.102905
0.120683
0.200091
0.0750664
0.0737751
0.0730739
0.0726952
0.0725026
0.0724198
0.0724133
0.0724853
0.0726743
0.0730641
0.0737963
0.0750823
0.07721
0.0805406
0.0855029
0.0926283
0.102905
0.120683
0.200091
0.0750616
0.0737734
0.0730734
0.0726951
0.0725026
0.0724198
0.0724134
0.0724853
0.0726744
0.0730642
0.0737963
0.0750823
0.07721
0.0805406
0.0855029
0.0926283
0.102905
0.120683
0.200091
0.0750579
0.0737723
0.0730731
0.0726951
0.0725028
0.07242
0.0724135
0.0724855
0.0726745
0.0730643
0.0737964
0.0750824
0.07721
0.0805407
0.085503
0.0926283
0.102905
0.120683
0.200091
0.0750555
0.0737716
0.0730731
0.0726954
0.072503
0.0724202
0.0724137
0.0724857
0.0726746
0.0730644
0.0737965
0.0750825
0.0772101
0.0805407
0.085503
0.0926283
0.102905
0.120683
0.200091
0.0750543
0.0737716
0.0730735
0.0726959
0.0725036
0.0724207
0.0724142
0.0724861
0.072675
0.0730648
0.0737968
0.0750827
0.0772103
0.0805409
0.0855031
0.0926284
0.102905
0.120683
0.200091
0.0750543
0.0737725
0.0730747
0.0726971
0.0725047
0.0724218
0.0724152
0.072487
0.0726758
0.0730655
0.0737974
0.0750832
0.0772107
0.0805412
0.0855033
0.0926285
0.102905
0.120683
0.200091
0.0750559
0.0737748
0.0730772
0.0726996
0.0725071
0.072424
0.0724172
0.0724888
0.0726775
0.073067
0.0737987
0.0750843
0.0772116
0.0805419
0.0855038
0.0926288
0.102905
0.120684
0.200092
0.07506
0.0737799
0.0730824
0.0727047
0.072512
0.0724286
0.0724215
0.0724928
0.0726811
0.0730702
0.0738015
0.0750867
0.0772135
0.0805434
0.0855049
0.0926295
0.102906
0.120684
0.200093
0.0750688
0.0737902
0.0730932
0.0727154
0.0725223
0.0724384
0.0724306
0.0725012
0.0726888
0.073077
0.0738075
0.0750918
0.0772178
0.0805466
0.0855072
0.0926311
0.102907
0.120685
0.200097
0.075087
0.0738115
0.0731154
0.0727375
0.0725438
0.0724589
0.07245
0.0725192
0.0727053
0.0730919
0.0738207
0.0751031
0.077227
0.0805538
0.0855124
0.0926346
0.102909
0.120687
0.200104
0.075124
0.0738547
0.0731608
0.0727831
0.0725884
0.0725018
0.0724907
0.0725573
0.0727405
0.073124
0.0738492
0.0751277
0.0772474
0.0805697
0.085524
0.0926425
0.102915
0.120692
0.200121
0.0751987
0.0739414
0.0732523
0.0728756
0.0726795
0.0725901
0.0725752
0.0726373
0.0728151
0.0731925
0.0739107
0.0751813
0.0772922
0.0806052
0.0855502
0.0926606
0.102927
0.120705
0.20016
0.0753473
0.0741129
0.0734335
0.0730595
0.0728618
0.0727682
0.0727471
0.0728014
0.0729699
0.0733362
0.0740414
0.0752967
0.0773898
0.0806832
0.0856084
0.0927013
0.102956
0.120734
0.20025
0.0756377
0.0744441
0.0737831
0.0734153
0.0732165
0.0731171
0.0730869
0.0731291
0.0732826
0.0736303
0.0743124
0.0755392
0.0775981
0.0808523
0.0857363
0.0927924
0.103024
0.120805
0.20047
0.07619
0.0750644
0.0744356
0.0740806
0.0738828
0.073777
0.073735
0.0737606
0.073892
0.0742107
0.0748549
0.0760323
0.0780286
0.0812075
0.0860093
0.0929908
0.10318
0.120985
0.20102
0.0772043
0.0761843
0.0756078
0.0752761
0.0750845
0.074974
0.0749195
0.0749254
0.0750283
0.0753066
0.0758937
0.0769914
0.07888
0.0819216
0.0865664
0.0934053
0.103536
0.121473
0.20249
0.0789933
0.0781243
0.0776258
0.0773327
0.0771566
0.0770475
0.0769842
0.0769715
0.0770432
0.0772713
0.0777797
0.0787576
0.0804713
0.0832745
0.087632
0.0942159
0.104348
0.12295
0.20677
0.0820114
0.0813411
0.0809497
0.0807145
0.0805679
0.0804715
0.0804092
0.0803855
0.0804291
0.0806015
0.0810085
0.0818144
0.0832549
0.0856568
0.0894991
0.0956431
0.106176
0.128142
0.221312
0.0868791
0.0864507
0.0861956
0.0860396
0.0859396
0.0858712
0.0858242
0.0858023
0.085826
0.0859391
0.0862177
0.0867811
0.0878037
0.0895419
0.0924514
0.0977297
0.109738
0.146852
0.295389
0.0944043
0.0942525
0.0941603
0.0941034
0.0940665
0.0940408
0.0940231
0.0940149
0.0940245
0.0940696
0.0941808
0.0944056
0.0948134
0.0955115
0.0967566
0.0997243
0.111963
0.193765
1.24234
)
;

boundaryField
{
    leftWall
    {
        type            epsilonWallFunction;
        blending        stepwise;
        value           nonuniform List<scalar> 
50
(
3.11056
1.99652
1.99652
1.99652
1.99652
1.99652
1.99652
1.99652
1.99652
1.99652
1.99652
1.99652
1.99652
1.99652
1.99652
1.99652
1.99652
1.99652
1.99652
1.99652
1.99652
1.99652
1.99652
1.99652
1.99652
1.99652
1.99652
1.99652
0.23408
0.153144
0.171121
0.186486
0.196115
0.201802
0.205024
0.206783
0.207716
0.208202
0.208463
0.208629
0.20879
0.209047
0.209572
0.210744
0.213449
0.219877
0.235657
0.277286
0.425687
1.58282
)
;
    }
    rightWall
    {
        type            epsilonWallFunction;
        blending        stepwise;
        value           nonuniform List<scalar> 
50
(
0.0611519
0.0785258
0.10461
0.124312
0.139725
0.152031
0.161996
0.170233
0.181253
0.189899
0.194639
0.197219
0.198603
0.199332
0.199709
0.199901
0.199998
0.200045
0.200069
0.20008
0.200086
0.200088
0.200089
0.20009
0.20009
0.20009
0.200091
0.200091
0.200091
0.200091
0.200091
0.200091
0.200091
0.200091
0.200091
0.200091
0.200092
0.200093
0.200097
0.200104
0.200121
0.20016
0.20025
0.20047
0.20102
0.20249
0.20677
0.221312
0.295389
1.24234
)
;
    }
    lowerWall
    {
        type            epsilonWallFunction;
        blending        stepwise;
        value           nonuniform List<scalar> 
62
(
3.11056
4.22461
4.22461
4.22461
4.22461
4.22461
4.22461
4.22461
4.22461
4.22461
4.22461
4.22461
4.22461
0.161563
0.170714
0.21915
0.247119
0.259029
0.256622
0.238767
0.201527
0.138397
0.0479218
0.0479218
0.075399
0.106621
0.13138
0.153821
0.178979
0.221208
0.340402
0.379124
0.288944
0.288852
0.378154
0.052253
0.0760003
0.106419
0.130161
0.151708
0.176432
0.218686
0.332237
0.052253
0.149363
0.21504
0.25394
0.275491
0.286669
0.292095
0.294534
0.295452
0.295487
0.294742
0.29287
0.289005
0.281553
0.267951
0.244434
0.205701
0.144371
0.0611519
)
;
    }
    atmosphere
    {
        type            inletOutlet;
        inletValue      uniform 0.1;
        value           uniform 0.1;
    }
    defaultFaces
    {
        type            empty;
    }
}


// ************************************************************************* //
