/*--------------------------------*- C++ -*----------------------------------*\
| =========                 |                                                 |
| \\      /  F ield         | OpenFOAM: The Open Source CFD Toolbox           |
|  \\    /   O peration     | Version:  2406                                  |
|   \\  /    A nd           | Website:  www.openfoam.com                      |
|    \\/     M anipulation  |                                                 |
\*---------------------------------------------------------------------------*/
FoamFile
{
    version     2.0;
    format      ascii;
    arch        "LSB;label=32;scalar=64";
    class       volScalarField;
    location    "0.25";
    object      k;
}
// * * * * * * * * * * * * * * * * * * * * * * * * * * * * * * * * * * * * * //

dimensions      [0 2 -2 0 0 0 0];

internalField   nonuniform List<scalar> 
2268
(
0.1
0.1
0.1
0.1
0.1
0.1
0.1
0.1
0.1
0.1
0.1
0.1
0.1
0.0106252
0.0106944
0.0127621
0.0139052
0.0143928
0.0143155
0.0136265
0.0121283
0.00936894
0.00442349
0.1
0.1
0.1
0.1
0.1
0.1
0.1
0.1
0.1
0.1
0.1
0.1
0.1
0.0202608
0.0248472
0.0288573
0.0311525
0.0321474
0.031999
0.0305995
0.0275225
0.021792
0.0100342
0.1
0.1
0.1
0.1
0.1
0.1
0.1
0.1
0.1
0.1
0.1
0.1
0.1
0.0259698
0.0319795
0.0366715
0.0393908
0.0405956
0.0404491
0.0388142
0.0351633
0.0282145
0.0127919
0.1
0.1
0.1
0.1
0.1
0.1
0.1
0.1
0.1
0.1
0.1
0.1
0.1
0.0300248
0.0369278
0.0419754
0.044906
0.0462323
0.0461234
0.0444268
0.0405455
0.0329133
0.0148348
0.1
0.1
0.1
0.1
0.1
0.1
0.1
0.1
0.1
0.1
0.1
0.1
0.1
0.0330877
0.0406739
0.0459819
0.0490506
0.0504699
0.0504276
0.0487714
0.0448602
0.0368608
0.016607
0.1
0.1
0.1
0.1
0.1
0.1
0.1
0.1
0.1
0.1
0.1
0.1
0.1
0.0354912
0.0436146
0.0491411
0.0523199
0.0538253
0.0538765
0.05234
0.0485731
0.0405507
0.0185159
0.1
0.1
0.1
0.1
0.1
0.1
0.1
0.1
0.1
0.1
0.1
0.1
0.1
0.0374346
0.0459774
0.0516914
0.0549683
0.0565615
0.0567299
0.0553797
0.0519289
0.0443684
0.0215231
0.1
0.1
0.1
0.1
0.1
0.1
0.1
0.1
0.1
0.1
0.1
0.1
0.1
0.0390507
0.04791
0.0537811
0.0571494
0.0588348
0.0591393
0.0580249
0.0550393
0.0485882
0.0289962
0.00469773
0.00989324
0.012729
0.0143017
0.0151646
0.0156213
0.015851
0.0159583
0.0159996
0.0159999
0.0159632
0.0158751
0.0157012
0.0153802
0.014815
0.0138576
0.0122701
0.00960178
0.00651228
0.0108236
0.022934
0.0288453
0.0321006
0.0338885
0.0348448
0.0353349
0.0355687
0.0356596
0.0356584
0.0355726
0.0353725
0.0349873
0.0342932
0.033093
0.0310802
0.0277505
0.0221228
0.011015
0.0137045
0.0296707
0.0368697
0.0407818
0.042942
0.044116
0.0447311
0.045031
0.0451483
0.045143
0.0450229
0.0447507
0.0442407
0.043345
0.0418307
0.0393336
0.0352443
0.0283206
0.0134714
0.0158212
0.0346114
0.0425331
0.0467426
0.0490708
0.0503542
0.0510402
0.0513812
0.0515145
0.0515025
0.0513519
0.0510206
0.0504148
0.0493753
0.0476525
0.0448528
0.0403005
0.0325501
0.0152224
0.0176701
0.0387699
0.0470744
0.0513715
0.0537505
0.0550798
0.0558038
0.0561694
0.0563113
0.0562901
0.0561103
0.0557263
0.0550394
0.0538847
0.0520042
0.0489843
0.0440961
0.035717
0.0165459
0.019712
0.0426334
0.0509606
0.0551714
0.0575142
0.0588431
0.0595799
0.059957
0.060101
0.0600682
0.0598601
0.059428
0.0586705
0.0574199
0.055413
0.0522217
0.0470705
0.0381834
0.0175837
0.0229791
0.0465506
0.0544264
0.0583905
0.0606284
0.0619212
0.0626508
0.0630282
0.0631687
0.0631223
0.0628866
0.0624106
0.0615909
0.0602588
0.0581479
0.0548179
0.0494544
0.0401511
0.0184195
0.0307097
0.0507335
0.0575778
0.0611652
0.0632488
0.0644793
0.0651862
0.0655547
0.0656867
0.0656248
0.0653625
0.0648464
0.0639719
0.0625696
0.0603707
0.0569256
0.0513884
0.0417473
0.0191135
0.1
0.1
0.1
0.1
0.1
0.1
0.1
0.1
0.1
0.1
0.1
0.1
0.1
0.041207
0.0504076
0.0564776
0.0599818
0.061818
0.0623524
0.0616451
0.0594874
0.055261
0.0473405
0.1
0.1
0.1
0.1
0.1
0.1
0.1
0.1
0.1
0.1
0.1
0.1
0.1
0.0432513
0.0526469
0.058935
0.0626312
0.0646908
0.0655519
0.0653872
0.0642157
0.0619723
0.0586415
0.1
0.1
0.1
0.1
0.1
0.1
0.1
0.1
0.1
0.1
0.1
0.1
0.1
0.0447775
0.0541812
0.0606381
0.0645192
0.0667983
0.0679622
0.0682571
0.0678221
0.0667884
0.0654143
0.1
0.1
0.1
0.1
0.1
0.1
0.1
0.1
0.1
0.1
0.1
0.1
0.1
0.0459942
0.0552799
0.0618506
0.065891
0.0683653
0.0697855
0.0704368
0.0705079
0.0701754
0.0696765
0.1
0.1
0.1
0.1
0.1
0.1
0.1
0.1
0.1
0.1
0.1
0.1
0.1
0.0470068
0.0560964
0.0627303
0.066896
0.069531
0.0711545
0.0720683
0.0724757
0.0725506
0.0724793
0.1
0.1
0.1
0.1
0.1
0.1
0.1
0.1
0.1
0.1
0.1
0.1
0.1
0.0478719
0.0567217
0.0633768
0.0676328
0.0703916
0.0721691
0.0732703
0.073899
0.0742166
0.0743721
0.1
0.1
0.1
0.1
0.1
0.1
0.1
0.1
0.1
0.1
0.1
0.1
0.1
0.0486221
0.0572125
0.0638564
0.0681712
0.0710197
0.0729089
0.074141
0.0749154
0.0753815
0.0756658
0.1
0.1
0.1
0.1
0.1
0.1
0.1
0.1
0.1
0.1
0.1
0.1
0.1
0.0492776
0.0576057
0.0642156
0.068563
0.0714724
0.0734394
0.0747609
0.0756307
0.0761896
0.0765503
0.1
0.1
0.1
0.1
0.1
0.1
0.1
0.1
0.1
0.1
0.1
0.1
0.1
0.0498519
0.0579266
0.0644881
0.0688482
0.0717956
0.0738141
0.0751947
0.0761264
0.0767432
0.0771501
0.1
0.1
0.1
0.1
0.1
0.1
0.1
0.1
0.1
0.1
0.1
0.1
0.1
0.0503547
0.0581934
0.0646993
0.0690584
0.0720266
0.0740769
0.0754948
0.0764651
0.0771175
0.0775521
0.1
0.1
0.1
0.1
0.1
0.1
0.1
0.1
0.1
0.1
0.1
0.1
0.1
0.0507941
0.05842
0.0648694
0.0692188
0.0721955
0.0742631
0.0757026
0.0766953
0.0773682
0.0778184
0.1
0.1
0.1
0.1
0.1
0.1
0.1
0.1
0.1
0.1
0.1
0.1
0.1
0.0511783
0.0586195
0.0650159
0.0693509
0.0723275
0.0744015
0.0758507
0.0768541
0.0775369
0.0779943
0.1
0.1
0.1
0.1
0.1
0.1
0.1
0.1
0.1
0.1
0.1
0.1
0.1
0.0515174
0.0588072
0.065158
0.0694758
0.072445
0.0745161
0.0759651
0.0769698
0.0776542
0.0781125
0.1
0.1
0.1
0.1
0.1
0.1
0.1
0.1
0.1
0.1
0.1
0.1
0.1
0.0518293
0.0590078
0.0653212
0.0696179
0.0725705
0.0746285
0.0760672
0.0770642
0.0777428
0.0781964
0.1
0.1
0.1
0.1
0.1
0.1
0.1
0.1
0.1
0.1
0.1
0.1
0.1
0.052151
0.0592669
0.0655462
0.0698091
0.0727294
0.0747593
0.0761752
0.0771544
0.0778193
0.0782626
0.1
0.1
0.1
0.1
0.1
0.1
0.1
0.1
0.1
0.1
0.1
0.1
0.1
0.0525701
0.059674
0.0658985
0.0700935
0.072951
0.0749292
0.0763048
0.0772536
0.0778958
0.0783225
0.1
0.1
0.1
0.1
0.1
0.1
0.1
0.1
0.1
0.1
0.1
0.1
0.1
0.0533061
0.060401
0.0664785
0.0705264
0.0732666
0.0751574
0.0764692
0.0773717
0.0779807
0.0783837
0.1
0.1
0.1
0.1
0.1
0.1
0.1
0.1
0.1
0.1
0.1
0.1
0.1
0.0549048
0.0617343
0.0674075
0.07116
0.073701
0.0754572
0.0766765
0.0775147
0.0780789
0.0784506
0.1
0.1
0.1
0.1
0.1
0.1
0.1
0.1
0.1
0.1
0.1
0.1
0.1
0.0583214
0.0639342
0.068743
0.0720074
0.0742576
0.0758298
0.0769276
0.0776837
0.0781916
0.078525
0.1
0.1
0.1
0.1
0.1
0.1
0.1
0.1
0.1
0.1
0.1
0.1
0.0572955
0.0611503
0.06649
0.0703218
0.0730068
0.0749088
0.0762611
0.0772149
0.0778744
0.078317
0.0786061
0.0230105
0.0378398
0.0444956
0.0481271
0.0501888
0.0513575
0.052016
0.0524206
0.0527958
0.0534475
0.0549734
0.0583465
0.0611677
0.0655021
0.0691857
0.071992
0.0740762
0.0756097
0.076726
0.0775238
0.0780784
0.07845
0.0786914
0.0165355
0.0369612
0.0459147
0.0511181
0.0543276
0.0563508
0.0576554
0.0585594
0.0593286
0.0602503
0.0616831
0.0639257
0.0664948
0.0691883
0.0715924
0.0735665
0.0751193
0.0763073
0.0771937
0.0778361
0.0782848
0.0785845
0.0787773
0.0178908
0.0398863
0.0495788
0.0553335
0.0590133
0.0614333
0.0630635
0.0642211
0.0651539
0.0660852
0.067218
0.0686628
0.0702942
0.0719851
0.073566
0.0749364
0.0760641
0.0769557
0.0776355
0.0781339
0.0784827
0.0787137
0.0788599
0.0190801
0.0422306
0.0523586
0.0583878
0.0623031
0.0649338
0.0667446
0.0680393
0.0690417
0.0699304
0.0708435
0.0718538
0.0729419
0.0740551
0.0751172
0.0760674
0.0768731
0.0775254
0.0780306
0.0784034
0.0786633
0.0788323
0.0789361
0.0198356
0.0438264
0.0542871
0.0605064
0.0645698
0.0673294
0.0692493
0.0706232
0.0716571
0.0725044
0.0732766
0.0740395
0.0748106
0.0755769
0.0763066
0.0769673
0.0775364
0.0780033
0.0783677
0.0786364
0.078821
0.0789368
0.0790038
0.0202938
0.0448564
0.0555791
0.0619525
0.0661282
0.0689791
0.0709726
0.0723971
0.0734479
0.074265
0.0749484
0.0755627
0.0761404
0.0766894
0.0772017
0.0776633
0.0780616
0.0783892
0.0786443
0.0788302
0.0789539
0.0790261
0.0790626
0.0205629
0.0454986
0.056421
0.062922
0.0671903
0.070113
0.0721616
0.0736225
0.0746853
0.075483
0.0761103
0.076632
0.0770875
0.0774966
0.0778645
0.0781892
0.0784661
0.0786917
0.0788649
0.0789873
0.0790636
0.0791015
0.0791137
0.0207161
0.0458872
0.0569556
0.0635589
0.0679039
0.0708857
0.0729786
0.0744683
0.0755417
0.0763283
0.0769204
0.0773832
0.0777602
0.0780777
0.0783493
0.0785805
0.0787725
0.0789252
0.0790386
0.0791141
0.0791547
0.0791665
0.07916
0.020801
0.0461165
0.0572875
0.0639699
0.0683771
0.0714077
0.0735373
0.0750512
0.076135
0.0769165
0.077487
0.0779124
0.0782385
0.078496
0.0787036
0.0788716
0.0790053
0.079107
0.0791781
0.0792198
0.0792345
0.0792269
0.0792065
0.0208475
0.0462505
0.0574925
0.0642346
0.0686917
0.0717626
0.0739229
0.0754577
0.0765518
0.0773323
0.0778902
0.0782921
0.0785857
0.0788042
0.0789696
0.0790956
0.07919
0.0792569
0.0792987
0.0793168
0.0793131
0.0792916
0.0792609
0.0208739
0.046332
0.0576247
0.0644133
0.0689113
0.0720164
0.0742033
0.0757567
0.0768609
0.077643
0.0781942
0.0785818
0.0788548
0.0790483
0.0791864
0.0792849
0.0793533
0.079397
0.0794191
0.0794209
0.0794043
0.0793728
0.0793345
0.0208915
0.0463908
0.0577254
0.0645548
0.0690898
0.0722259
0.0744371
0.0760075
0.0771216
0.0779067
0.0784549
0.0788339
0.079094
0.0792716
0.0793922
0.079473
0.0795244
0.0795529
0.0795618
0.0795527
0.0795271
0.0794885
0.0794444
0.0209092
0.0464518
0.0578321
0.0647054
0.0692793
0.0724469
0.0746815
0.0762677
0.077391
0.0781794
0.078726
0.0790996
0.0793513
0.0795186
0.079628
0.0796972
0.0797378
0.0797563
0.0797565
0.07974
0.0797082
0.0796644
0.0796159
0.0209366
0.0465452
0.0579903
0.0649214
0.0695417
0.0727435
0.0750011
0.0766012
0.0777311
0.0785211
0.0790655
0.0794343
0.0796797
0.0798397
0.0799413
0.0800029
0.0800362
0.0800483
0.0800427
0.0800213
0.0799853
0.0799377
0.0798859
0.0209904
0.0467207
0.0582722
0.0652863
0.0699645
0.0732021
0.0754787
0.0770862
0.0782166
0.0790029
0.0795416
0.0799039
0.0801424
0.0802958
0.0803912
0.0804472
0.0804756
0.0804833
0.0804741
0.0804496
0.080411
0.0803611
0.0803069
0.0211047
0.0470763
0.0588082
0.0659394
0.0706816
0.0739457
0.076226
0.0778252
0.078942
0.0797138
0.080239
0.0805896
0.0808186
0.0809642
0.0810535
0.0811046
0.0811291
0.081134
0.0811226
0.0810967
0.0810571
0.0810065
0.0809516
0.0213562
0.0478149
0.0598419
0.0671145
0.0718984
0.07515
0.077394
0.0789507
0.0800274
0.0807652
0.0812634
0.0815936
0.0818077
0.0819426
0.0820244
0.0820704
0.0820917
0.0820946
0.0820825
0.0820567
0.0820183
0.0819692
0.0819159
0.02192
0.04936
0.0618157
0.069186
0.0739108
0.0770488
0.079174
0.0806265
0.0816194
0.0822933
0.0827447
0.0830418
0.0832331
0.083353
0.083425
0.083465
0.0834829
0.0834846
0.083473
0.0834494
0.0834145
0.0833702
0.0833219
0.0232047
0.0525638
0.0654681
0.0726831
0.077089
0.0799142
0.0817821
0.0830378
0.0838862
0.0844569
0.0848366
0.0850851
0.0852443
0.0853436
0.0854029
0.0854356
0.08545
0.0854511
0.0854412
0.0854216
0.085393
0.0853569
0.0853177
0.0262534
0.0590398
0.0718323
0.0781834
0.0817804
0.0839923
0.0854221
0.0863711
0.0870076
0.0874338
0.0877164
0.0879008
0.0880188
0.0880922
0.088136
0.08816
0.0881705
0.0881713
0.0881642
0.0881503
0.0881302
0.0881053
0.0880788
0.0354445
0.071657
0.0818412
0.0859567
0.0881098
0.0894043
0.0902387
0.0907942
0.0911683
0.0914198
0.0915872
0.0916968
0.0917671
0.0918109
0.0918371
0.0918515
0.0918578
0.0918584
0.0918546
0.091847
0.0918365
0.091824
0.0918117
0.0856461
0.0936724
0.0947442
0.0953456
0.0957785
0.0960874
0.0963053
0.0964581
0.0965646
0.0966381
0.0966879
0.096721
0.0967426
0.0967561
0.0967643
0.0967688
0.0967708
0.0967712
0.0967702
0.0967684
0.0967662
0.0967642
0.0967633
0.0315268
0.0263241
0.0263339
0.0315382
0.0557333
0.0545975
0.0546804
0.0559954
0.0645978
0.0643284
0.0644286
0.0649041
0.0694459
0.0694079
0.0695125
0.0697639
0.0724754
0.0725204
0.0726277
0.0728012
0.0744746
0.0745575
0.0746673
0.0748076
0.075825
0.0759281
0.07604
0.0761644
0.0767419
0.0768568
0.0769704
0.0770866
0.0773611
0.0774829
0.0775979
0.0777095
0.0777744
0.0779003
0.078016
0.078125
0.0780468
0.0781748
0.0782907
0.0783979
0.0782251
0.0783537
0.0784692
0.078575
0.0783428
0.0784708
0.0785851
0.0786893
0.0784236
0.0785495
0.0786619
0.0787641
0.0784839
0.0786065
0.0787158
0.0788153
0.0785348
0.0786525
0.0787576
0.0788536
0.0785837
0.0786947
0.0787943
0.0788857
0.0786348
0.0787374
0.07883
0.0789157
0.0786901
0.0787825
0.0788668
0.0789458
0.0787493
0.0788302
0.0789052
0.0789767
0.0788111
0.0788797
0.0789446
0.0790081
0.0788731
0.0789291
0.0789839
0.0790392
0.0789327
0.0789767
0.0790217
0.0790692
0.0789879
0.0790208
0.0790568
0.0790971
0.0790373
0.0790605
0.0790887
0.0791227
0.0790809
0.0790959
0.0791175
0.0791462
0.0791196
0.0791282
0.0791444
0.0791687
0.0791564
0.0791598
0.0791718
0.0791927
0.0791956
0.0791951
0.0792039
0.0792222
0.0792444
0.079241
0.0792473
0.0792636
0.0793139
0.0793081
0.0793125
0.0793272
0.0794205
0.0794129
0.0794157
0.0794291
0.0795893
0.0795801
0.0795815
0.0795937
0.0798569
0.0798463
0.0798465
0.0798574
0.0802761
0.0802643
0.0802632
0.0802729
0.0809197
0.080907
0.0809048
0.080913
0.0818845
0.0818715
0.0818683
0.0818749
0.0832931
0.0832808
0.083277
0.0832817
0.0852941
0.0852837
0.0852798
0.0852825
0.0880629
0.0880556
0.0880522
0.0880527
0.0918046
0.0918011
0.0917987
0.0917975
0.0967635
0.0967633
0.0967625
0.0967609
0.0485129
0.0571676
0.0620085
0.0649206
0.0667206
0.0678274
0.0684809
0.0688241
0.0689366
0.0688485
0.0685465
0.0679735
0.0670232
0.0655253
0.0632075
0.0596079
0.0538451
0.0437826
0.0200447
0.0594795
0.0636203
0.0666378
0.0687231
0.070122
0.0710285
0.0715802
0.0718673
0.0719402
0.0718126
0.0714611
0.0708233
0.0697901
0.0681885
0.0657406
0.0619712
0.0559664
0.0454889
0.0207922
0.0661518
0.0682822
0.0701524
0.0716012
0.0726475
0.073358
0.0737993
0.0740206
0.0740475
0.0738784
0.0734809
0.0727869
0.0716839
0.0699954
0.067438
0.0635254
0.0573203
0.0465258
0.0212143
0.0703886
0.0715945
0.0727777
0.0737741
0.0745372
0.0750746
0.07541
0.0755641
0.0755433
0.0753334
0.0748936
0.0741506
0.0729881
0.0712261
0.0685764
0.0645443
0.0581782
0.0471499
0.0214524
0.0731908
0.0739393
0.0747127
0.075399
0.0759463
0.0763398
0.0765809
0.0766718
0.0766053
0.0763571
0.0758795
0.0750941
0.0738814
0.072058
0.0693321
0.0652036
0.0587134
0.0475199
0.0215855
0.0750912
0.0755966
0.0761217
0.0765984
0.076986
0.077265
0.0774262
0.0774613
0.0773535
0.0770711
0.0765606
0.0757397
0.0744855
0.0726123
0.0698255
0.0656225
0.0590409
0.0477352
0.0216586
0.0763941
0.0767627
0.077134
0.0774695
0.0777415
0.0779322
0.0780288
0.078017
0.0778738
0.0775621
0.0770241
0.0761741
0.0748868
0.0729746
0.0701413
0.0658831
0.0592372
0.0478581
0.021698
0.0772868
0.0775751
0.0778496
0.0780904
0.0782802
0.078405
0.0784513
0.0784016
0.0782295
0.0778938
0.0773337
0.0764608
0.0751481
0.0732065
0.070339
0.0660418
0.0593524
0.047927
0.021719
0.077893
0.0781328
0.0783461
0.0785238
0.0786562
0.0787332
0.0787417
0.078663
0.0784682
0.0781137
0.0775364
0.0766462
0.0753146
0.0733517
0.0704602
0.0661363
0.0594186
0.0479649
0.0217299
0.0782987
0.078509
0.0786834
0.0788195
0.0789129
0.0789561
0.0789373
0.078837
0.0786252
0.0782566
0.0776665
0.0767636
0.0754185
0.0734407
0.0705328
0.0661914
0.059456
0.0479854
0.0217356
0.0785655
0.0787577
0.0789076
0.0790168
0.0790841
0.0791043
0.0790663
0.0789506
0.0787264
0.0783476
0.0777483
0.0768365
0.075482
0.0734942
0.0705756
0.0662231
0.0594768
0.0479963
0.0217385
0.0787384
0.078919
0.0790535
0.0791454
0.0791958
0.0792006
0.0791496
0.0790233
0.0787905
0.0784045
0.0777989
0.0768809
0.0755201
0.0735257
0.0706003
0.0662409
0.0594881
0.0480021
0.0217399
0.0788492
0.0790222
0.0791468
0.0792277
0.0792671
0.079262
0.0792024
0.079069
0.0788304
0.0784395
0.0778295
0.0769074
0.0755426
0.073544
0.0706143
0.0662508
0.0594942
0.0480051
0.0217407
0.0789206
0.0790878
0.0792057
0.0792795
0.0793119
0.0793004
0.0792352
0.0790972
0.0788547
0.0784606
0.0778478
0.0769231
0.0755556
0.0735544
0.0706221
0.0662562
0.0594975
0.0480066
0.021741
0.0789677
0.0791299
0.0792428
0.0793119
0.0793397
0.079324
0.0792553
0.0791143
0.0788693
0.0784731
0.0778585
0.0769321
0.0755631
0.0735603
0.0706265
0.0662591
0.0594992
0.0480074
0.0217412
0.0790009
0.0791579
0.0792667
0.0793321
0.0793568
0.0793384
0.0792674
0.0791245
0.078878
0.0784805
0.0778647
0.0769373
0.0755673
0.0735635
0.0706288
0.0662607
0.0595001
0.0480078
0.0217413
0.0790267
0.0791779
0.0792827
0.0793451
0.0793675
0.0793473
0.0792747
0.0791306
0.0788831
0.0784848
0.0778683
0.0769403
0.0755696
0.0735653
0.0706301
0.0662615
0.0595006
0.048008
0.0217413
0.079049
0.0791936
0.0792942
0.0793539
0.0793744
0.0793527
0.0792792
0.0791342
0.0788861
0.0784873
0.0778703
0.0769419
0.0755709
0.0735663
0.0706308
0.0662619
0.0595008
0.0480081
0.0217414
0.0790701
0.0792072
0.0793033
0.0793603
0.0793791
0.0793563
0.0792819
0.0791364
0.0788879
0.0784887
0.0778715
0.0769428
0.0755716
0.0735668
0.0706312
0.0662622
0.059501
0.0480082
0.0217414
0.079091
0.0792198
0.0793112
0.0793654
0.0793825
0.0793587
0.0792837
0.0791378
0.0788889
0.0784895
0.0778722
0.0769434
0.075572
0.0735671
0.0706314
0.0662623
0.059501
0.0480082
0.0217414
0.0791117
0.079232
0.0793184
0.0793698
0.0793853
0.0793605
0.079285
0.0791387
0.0788896
0.0784901
0.0778726
0.0769437
0.0755723
0.0735673
0.0706315
0.0662623
0.0595011
0.0480082
0.0217414
0.0791321
0.0792437
0.0793252
0.0793738
0.0793877
0.0793621
0.079286
0.0791395
0.0788902
0.0784905
0.0778729
0.0769439
0.0755725
0.0735674
0.0706316
0.0662624
0.0595011
0.0480082
0.0217414
0.0791517
0.0792549
0.0793317
0.0793777
0.0793901
0.0793636
0.0792871
0.0791402
0.0788908
0.078491
0.0778733
0.0769442
0.0755727
0.0735676
0.0706317
0.0662625
0.0595011
0.0480082
0.0217414
0.0791701
0.0792656
0.0793381
0.0793816
0.0793926
0.0793654
0.0792884
0.0791412
0.0788916
0.0784917
0.0778739
0.0769447
0.0755731
0.0735678
0.0706319
0.0662626
0.0595012
0.0480083
0.0217414
0.0791872
0.079276
0.0793446
0.0793859
0.0793956
0.0793677
0.0792903
0.0791428
0.078893
0.0784928
0.0778749
0.0769455
0.0755737
0.0735683
0.0706322
0.0662627
0.0595013
0.0480083
0.0217414
0.0792036
0.0792866
0.0793519
0.0793912
0.0793999
0.0793712
0.0792933
0.0791456
0.0788954
0.078495
0.0778767
0.0769471
0.0755749
0.0735692
0.0706328
0.0662631
0.0595014
0.0480084
0.0217414
0.0792204
0.0792987
0.0793611
0.0793988
0.0794064
0.0793771
0.0792986
0.0791504
0.0788998
0.078499
0.0778802
0.07695
0.0755773
0.073571
0.070634
0.0662639
0.0595018
0.0480085
0.0217414
0.0792399
0.0793143
0.0793744
0.0794106
0.0794172
0.0793871
0.079308
0.0791592
0.0789079
0.0785063
0.0778867
0.0769556
0.0755818
0.0735745
0.0706365
0.0662654
0.0595026
0.0480088
0.0217415
0.0792658
0.0793371
0.0793953
0.0794302
0.0794357
0.0794047
0.0793247
0.0791749
0.0789226
0.0785198
0.0778988
0.0769661
0.0755905
0.0735813
0.0706413
0.0662685
0.0595043
0.0480095
0.0217416
0.0793044
0.0793733
0.0794297
0.0794632
0.0794676
0.0794354
0.0793541
0.0792029
0.078949
0.0785442
0.077921
0.0769856
0.075607
0.0735944
0.0706509
0.0662747
0.0595077
0.0480109
0.0217419
0.0793658
0.0794326
0.0794874
0.0795194
0.0795222
0.0794883
0.0794053
0.079252
0.0789956
0.078588
0.0779613
0.0770216
0.0756379
0.0736194
0.0706696
0.0662872
0.0595147
0.0480139
0.0217425
0.0794659
0.0795307
0.0795836
0.0796137
0.0796145
0.0795784
0.0794928
0.0793366
0.0790768
0.078665
0.0780331
0.0770869
0.0756951
0.073667
0.0707062
0.0663124
0.0595293
0.0480202
0.0217437
0.0796287
0.0796914
0.0797421
0.0797698
0.079768
0.079729
0.0796401
0.07948
0.0792157
0.0787983
0.0781592
0.0772037
0.0757999
0.0737564
0.0707772
0.0663629
0.0595598
0.0480339
0.0217465
0.0798906
0.0799507
0.0799986
0.0800233
0.0800181
0.0799754
0.0798825
0.0797179
0.0794481
0.0790241
0.0783762
0.0774089
0.0759886
0.0739226
0.0709142
0.0664647
0.0596237
0.0480636
0.0217528
0.0803038
0.0803605
0.0804049
0.0804257
0.0804166
0.0803697
0.0802725
0.0801033
0.0798284
0.079398
0.0787417
0.0777618
0.0763223
0.0742272
0.0711763
0.0666693
0.0597593
0.0481298
0.021767
0.0809412
0.0809933
0.0810329
0.0810492
0.0810357
0.0809849
0.080884
0.0807117
0.0804341
0.080001
0.0793408
0.0783536
0.0768992
0.0747749
0.0716717
0.0670805
0.0600511
0.0482814
0.0218006
0.0818995
0.0819452
0.0819787
0.0819897
0.0819721
0.0819185
0.0818165
0.0816451
0.0813711
0.0809446
0.0802936
0.0793162
0.0778674
0.0757345
0.0725911
0.0679017
0.0606873
0.0486419
0.0218831
0.0833013
0.0833384
0.0833642
0.0833696
0.0833489
0.0832952
0.0831967
0.0830336
0.0827745
0.0823717
0.0817554
0.0808246
0.079432
0.0773557
0.0742449
0.0695122
0.062084
0.049541
0.0220989
0.0852958
0.0853218
0.0853386
0.0853386
0.0853168
0.0852669
0.0851786
0.0850343
0.0848066
0.084453
0.0839106
0.0830866
0.0818415
0.0799571
0.0770709
0.0725371
0.0650985
0.0518869
0.0227176
0.0880587
0.0880721
0.0880795
0.0880753
0.0880552
0.0880141
0.0879436
0.0878303
0.0876528
0.0873782
0.0869573
0.0863164
0.0853424
0.0838526
0.0815265
0.0777437
0.0711319
0.057988
0.024813
0.0917969
0.0917987
0.0917984
0.0917923
0.0917773
0.0917498
0.0917044
0.0916329
0.0915222
0.0913524
0.0910943
0.0907039
0.090114
0.0892148
0.0878084
0.085487
0.0812288
0.0715102
0.0354705
0.0967572
0.0967533
0.0967502
0.0967462
0.09674
0.0967301
0.0967147
0.0966912
0.0966555
0.0966022
0.0965232
0.0964071
0.0962374
0.0959879
0.0956139
0.0950284
0.0940364
0.0920396
0.0845004
)
;

boundaryField
{
    leftWall
    {
        type            kqRWallFunction;
        value           nonuniform List<scalar> 
50
(
0.1
0.1
0.1
0.1
0.1
0.1
0.1
0.1
0.1
0.1
0.1
0.1
0.1
0.1
0.1
0.1
0.1
0.1
0.1
0.1
0.1
0.1
0.1
0.1
0.1
0.1
0.1
0.1
0.0230105
0.0165355
0.0178908
0.0190801
0.0198356
0.0202938
0.0205629
0.0207161
0.020801
0.0208475
0.0208739
0.0208915
0.0209092
0.0209366
0.0209904
0.0211047
0.0213562
0.02192
0.0232047
0.0262534
0.0354445
0.0856461
)
;
    }
    rightWall
    {
        type            kqRWallFunction;
        value           nonuniform List<scalar> 
50
(
0.00651228
0.011015
0.0134714
0.0152224
0.0165459
0.0175837
0.0184195
0.0191135
0.0200447
0.0207922
0.0212143
0.0214524
0.0215855
0.0216586
0.021698
0.021719
0.0217299
0.0217356
0.0217385
0.0217399
0.0217407
0.021741
0.0217412
0.0217413
0.0217413
0.0217414
0.0217414
0.0217414
0.0217414
0.0217414
0.0217414
0.0217414
0.0217414
0.0217414
0.0217414
0.0217415
0.0217416
0.0217419
0.0217425
0.0217437
0.0217465
0.0217528
0.021767
0.0218006
0.0218831
0.0220989
0.0227176
0.024813
0.0354705
0.0845004
)
;
    }
    lowerWall
    {
        type            kqRWallFunction;
        value           nonuniform List<scalar> 
62
(
0.1
0.1
0.1
0.1
0.1
0.1
0.1
0.1
0.1
0.1
0.1
0.1
0.1
0.0106252
0.0106944
0.0127621
0.0139052
0.0143928
0.0143155
0.0136265
0.0121283
0.00936894
0.00442349
0.00442349
0.0100342
0.0127919
0.0148348
0.016607
0.0185159
0.0215231
0.0289962
0.0315268
0.0263241
0.0263339
0.0315382
0.00469773
0.0108236
0.0137045
0.0158212
0.0176701
0.019712
0.0229791
0.0307097
0.00469773
0.00989324
0.012729
0.0143017
0.0151646
0.0156213
0.015851
0.0159583
0.0159996
0.0159999
0.0159632
0.0158751
0.0157012
0.0153802
0.014815
0.0138576
0.0122701
0.00960178
0.00651228
)
;
    }
    atmosphere
    {
        type            inletOutlet;
        inletValue      uniform 0.1;
        value           uniform 0.1;
    }
    defaultFaces
    {
        type            empty;
    }
}


// ************************************************************************* //
