/*--------------------------------*- C++ -*----------------------------------*\
| =========                 |                                                 |
| \\      /  F ield         | OpenFOAM: The Open Source CFD Toolbox           |
|  \\    /   O peration     | Version:  2406                                  |
|   \\  /    A nd           | Website:  www.openfoam.com                      |
|    \\/     M anipulation  |                                                 |
\*---------------------------------------------------------------------------*/
FoamFile
{
    version     2.0;
    format      ascii;
    arch        "LSB;label=32;scalar=64";
    class       volScalarField;
    location    "0.25";
    object      k;
}
// * * * * * * * * * * * * * * * * * * * * * * * * * * * * * * * * * * * * * //

dimensions      [0 2 -2 0 0 0 0];

internalField   nonuniform List<scalar> 
2268
(
0.00600397
0.00931253
0.0120987
0.0137998
0.0148701
0.0155469
0.0159699
0.0162285
0.0163824
0.0164707
0.0165185
0.0165403
0.0165426
0.0165248
0.0164786
0.0163844
0.0162063
0.0158818
0.0153062
0.014304
0.0125756
0.009583
0.00443747
0.0102341
0.0215496
0.0273682
0.0308978
0.0331194
0.0345298
0.0354193
0.0359712
0.0363059
0.0365023
0.036611
0.0366619
0.0366684
0.0366298
0.0365288
0.0363265
0.0359506
0.0352765
0.0340933
0.0320438
0.0285082
0.0223387
0.0101265
0.0127241
0.0276711
0.0347542
0.0390337
0.0417506
0.0434971
0.0446159
0.0453233
0.0457612
0.046024
0.0461728
0.0462441
0.0462553
0.0462057
0.0460749
0.0458167
0.0453463
0.0445191
0.0430916
0.0406477
0.0364471
0.0290033
0.0130068
0.0145432
0.0318488
0.0396966
0.0444043
0.0474116
0.0493663
0.0506364
0.051453
0.0519679
0.052283
0.0524649
0.0525543
0.052571
0.0525149
0.0523648
0.0520718
0.0515474
0.050642
0.0491042
0.0464998
0.0420224
0.0338899
0.0151816
0.0159276
0.0349639
0.0433757
0.0483831
0.0515944
0.0537004
0.0550857
0.0559892
0.0565683
0.0569286
0.0571404
0.0572472
0.0572704
0.0572111
0.0570484
0.0567336
0.0561791
0.0552379
0.0536642
0.0510271
0.0464871
0.0379945
0.0170772
0.0170058
0.0373686
0.0462337
0.0514767
0.0548468
0.057073
0.0585522
0.0595291
0.0601639
0.0605648
0.0608044
0.0609279
0.0609587
0.0608991
0.0607294
0.0604028
0.0598357
0.0588889
0.0573308
0.0547527
0.0503252
0.0418142
0.0190951
0.0178554
0.0392587
0.048502
0.0539425
0.0574452
0.059772
0.0613312
0.0623717
0.063056
0.063494
0.0637595
0.0638995
0.0639389
0.0638815
0.0637096
0.0633796
0.0628137
0.061884
0.0603803
0.0579341
0.0537866
0.0457359
0.0222031
0.0185293
0.0407604
0.0503248
0.055937
0.0595548
0.061969
0.0635982
0.0646951
0.0654241
0.0658959
0.0661859
0.0663422
0.066391
0.0663381
0.0661682
0.0658417
0.0652881
0.064393
0.0629723
0.0607116
0.0569882
0.0500424
0.0298599
0.00470807
0.0100638
0.0130578
0.0147011
0.0155985
0.0160796
0.0163289
0.0164497
0.0164974
0.0164967
0.0164513
0.0163465
0.0161483
0.0157976
0.0152001
0.0142049
0.0125547
0.00975846
0.00652218
0.0108891
0.0233487
0.0295048
0.0328595
0.0346948
0.0356864
0.036207
0.036463
0.0365643
0.0365601
0.0364574
0.0362266
0.0357993
0.0350569
0.033808
0.0317419
0.0283218
0.0224914
0.0110719
0.0138587
0.0302304
0.0376391
0.0416231
0.043817
0.0450201
0.0456634
0.0459851
0.0461123
0.0461023
0.0459621
0.0456559
0.0451016
0.044159
0.0426026
0.0400662
0.0359109
0.0288102
0.0136043
0.0160675
0.0352435
0.0433028
0.0475424
0.0498852
0.0511878
0.0518963
0.0522555
0.0523966
0.0523785
0.052207
0.0518424
0.0511957
0.0501166
0.0483644
0.0455467
0.0409682
0.0331007
0.0154316
0.0179924
0.0394281
0.0477965
0.0520858
0.0544628
0.0558021
0.0565424
0.056922
0.0570691
0.0570406
0.0568404
0.0564255
0.0557032
0.0545176
0.05262
0.0496023
0.0447262
0.0362934
0.016816
0.0200852
0.0432806
0.0516127
0.05579
0.05812
0.0594526
0.0602005
0.0605876
0.0607343
0.0606933
0.0604657
0.0600059
0.0592184
0.0579443
0.0559299
0.0527549
0.0476446
0.0387562
0.0178933
0.0233773
0.047158
0.055
0.058919
0.0611398
0.0624328
0.0631697
0.0635538
0.0636947
0.0636393
0.0633852
0.0628845
0.0620395
0.0606892
0.0585759
0.0552694
0.0499621
0.0406917
0.0187424
0.0311587
0.0512903
0.058079
0.0616203
0.0636865
0.0649157
0.0656273
0.0659998
0.0661303
0.0660588
0.065779
0.0652404
0.0643437
0.0629262
0.0607267
0.0573055
0.0518264
0.0422295
0.0194161
0.0193704
0.0426383
0.0526321
0.0584813
0.0622588
0.0647941
0.0665205
0.0676963
0.0684882
0.0690089
0.0693347
0.0695159
0.0695808
0.0695381
0.0693769
0.0690649
0.0685441
0.067723
0.0664614
0.0645382
0.0615766
0.0568325
0.0485358
0.0200703
0.0442395
0.054655
0.0607559
0.0647086
0.0673775
0.069211
0.0704743
0.0713372
0.071914
0.0722831
0.0724967
0.0725861
0.0725645
0.0724277
0.0721541
0.0717033
0.0710142
0.0700007
0.0685465
0.0665005
0.0636869
0.060003
0.0204958
0.0452452
0.0559669
0.0622662
0.0663629
0.0691434
0.0710667
0.0724034
0.0733265
0.0739519
0.0743596
0.074604
0.0747194
0.0747235
0.0746184
0.0743927
0.0740218
0.073469
0.0726889
0.0716329
0.0702662
0.068611
0.0668488
0.02075
0.0458708
0.0568129
0.0632663
0.06748
0.0703531
0.0723516
0.0737504
0.0747244
0.0753917
0.0758337
0.0761068
0.0762484
0.0762799
0.0762098
0.076035
0.0757432
0.0753161
0.0747343
0.0739858
0.0730826
0.0720888
0.0711612
0.0208985
0.0462538
0.0573513
0.0639218
0.0682282
0.0711767
0.0732374
0.0746877
0.0757047
0.0764077
0.0768796
0.077179
0.0773455
0.0774044
0.0773692
0.0772434
0.0770242
0.0767054
0.0762824
0.0757602
0.0751637
0.0745512
0.0740246
0.0209834
0.0464837
0.0576881
0.0643446
0.0687225
0.0717307
0.0738415
0.0753339
0.0763863
0.0771191
0.0776168
0.0779393
0.0781287
0.0782133
0.0782105
0.0781293
0.0779731
0.0777432
0.077443
0.0770835
0.0766892
0.0763035
0.0759887
0.0210308
0.0466189
0.0578946
0.0646124
0.0690433
0.0720972
0.0742472
0.0757731
0.0768539
0.0776112
0.0781303
0.0784726
0.0786822
0.0787897
0.0788157
0.0787729
0.078669
0.0785097
0.0783022
0.0780583
0.0777983
0.0775523
0.077358
0.0210568
0.0466969
0.0580187
0.0647786
0.0692476
0.0723353
0.0745149
0.0760664
0.0771696
0.0779462
0.0784826
0.0788414
0.079068
0.0791951
0.0792453
0.0792343
0.0791723
0.0790677
0.0789287
0.0787664
0.0785964
0.0784388
0.0783169
0.0210708
0.0467409
0.0580917
0.0648796
0.069375
0.0724868
0.074688
0.0762587
0.0773786
0.0781702
0.0787203
0.0790922
0.0793326
0.0794756
0.0795456
0.0795598
0.0795304
0.0794669
0.0793777
0.0792725
0.0791629
0.0790626
0.0789858
0.0210783
0.0467654
0.0581339
0.0649398
0.0694528
0.0725812
0.0747977
0.0763822
0.0775145
0.0783171
0.0788776
0.0792597
0.0795109
0.0796665
0.0797518
0.0797854
0.0797805
0.079747
0.0796934
0.0796277
0.0795587
0.0794957
0.0794477
0.0210821
0.0467788
0.0581578
0.064975
0.0694994
0.0726389
0.0748659
0.0764599
0.077601
0.0784117
0.0789797
0.0793694
0.0796289
0.0797939
0.0798908
0.0799388
0.0799517
0.0799397
0.0799109
0.0798722
0.0798303
0.0797917
0.0797621
0.0210842
0.046786
0.0581712
0.0649952
0.0695268
0.0726735
0.0749074
0.076508
0.077655
0.0784714
0.0790448
0.07944
0.0797055
0.0798774
0.0799828
0.0800411
0.0800666
0.0800696
0.0800577
0.0800371
0.080013
0.0799902
0.0799725
0.0210852
0.0467898
0.0581786
0.0650066
0.0695426
0.0726939
0.0749322
0.0765371
0.0776882
0.0785084
0.0790856
0.0794847
0.0797543
0.0799312
0.0800425
0.080108
0.0801422
0.0801552
0.0801546
0.0801459
0.0801335
0.0801208
0.0801106
0.0210857
0.0467918
0.0581825
0.065013
0.0695516
0.0727057
0.0749468
0.0765544
0.0777082
0.0785309
0.0791106
0.0795124
0.079785
0.0799652
0.0800805
0.0801509
0.0801908
0.0802106
0.0802174
0.0802163
0.0802113
0.080205
0.0801995
0.021086
0.0467929
0.0581847
0.0650165
0.0695567
0.0727124
0.0749553
0.0765646
0.07772
0.0785444
0.0791258
0.0795293
0.0798038
0.0799863
0.0801043
0.0801779
0.0802216
0.0802457
0.0802572
0.080261
0.0802606
0.0802583
0.0802556
0.0210861
0.0467934
0.0581858
0.0650184
0.0695595
0.0727162
0.0749601
0.0765705
0.0777269
0.0785524
0.0791348
0.0795395
0.0798153
0.0799992
0.0801189
0.0801946
0.0802407
0.0802675
0.0802819
0.0802888
0.0802912
0.0802913
0.0802904
0.0210862
0.0467937
0.0581864
0.0650194
0.069561
0.0727183
0.0749628
0.0765738
0.0777309
0.078557
0.0791402
0.0795455
0.0798221
0.080007
0.0801278
0.0802048
0.0802524
0.0802809
0.0802971
0.0803057
0.0803098
0.0803114
0.0803116
0.0210862
0.0467938
0.0581867
0.0650199
0.0695618
0.0727195
0.0749643
0.0765757
0.0777332
0.0785597
0.0791432
0.079549
0.0798262
0.0800116
0.0801331
0.0802109
0.0802594
0.0802889
0.0803062
0.0803159
0.080321
0.0803234
0.0803242
0.0210862
0.0467939
0.0581869
0.0650202
0.0695623
0.0727201
0.0749652
0.0765767
0.0777345
0.0785612
0.079145
0.0795511
0.0798285
0.0800143
0.0801362
0.0802145
0.0802635
0.0802936
0.0803115
0.0803219
0.0803276
0.0803305
0.0803317
0.0210862
0.0467939
0.058187
0.0650204
0.0695625
0.0727204
0.0749656
0.0765773
0.0777352
0.078562
0.079146
0.0795522
0.0798299
0.0800159
0.080138
0.0802165
0.080266
0.0802964
0.0803147
0.0803254
0.0803314
0.0803346
0.080336
0.0210862
0.046794
0.058187
0.0650204
0.0695626
0.0727206
0.0749658
0.0765776
0.0777356
0.0785625
0.0791466
0.0795529
0.0798306
0.0800168
0.0801391
0.0802177
0.0802673
0.080298
0.0803165
0.0803274
0.0803336
0.080337
0.0803384
0.0210862
0.046794
0.058187
0.0650205
0.0695627
0.0727207
0.074966
0.0765778
0.0777358
0.0785628
0.0791469
0.0795533
0.0798311
0.0800173
0.0801397
0.0802184
0.0802681
0.0802988
0.0803175
0.0803285
0.0803348
0.0803383
0.0803398
0.0210862
0.046794
0.058187
0.0650205
0.0695627
0.0727207
0.074966
0.0765779
0.0777359
0.0785629
0.079147
0.0795535
0.0798313
0.0800176
0.08014
0.0802188
0.0802686
0.0802994
0.080318
0.0803291
0.0803355
0.080339
0.0803406
0.0210862
0.046794
0.058187
0.0650205
0.0695627
0.0727208
0.0749661
0.0765779
0.0777359
0.078563
0.0791471
0.0795536
0.0798314
0.0800177
0.0801402
0.080219
0.0802688
0.0802996
0.0803183
0.0803295
0.0803359
0.0803394
0.080341
0.0210862
0.046794
0.058187
0.0650205
0.0695628
0.0727208
0.0749661
0.076578
0.077736
0.078563
0.0791472
0.0795536
0.0798315
0.0800178
0.0801403
0.0802191
0.0802689
0.0802998
0.0803185
0.0803297
0.0803361
0.0803396
0.0803412
0.0210862
0.046794
0.058187
0.0650205
0.0695628
0.0727208
0.0749661
0.076578
0.077736
0.0785631
0.0791472
0.0795537
0.0798315
0.0800179
0.0801403
0.0802192
0.080269
0.0802999
0.0803186
0.0803298
0.0803362
0.0803398
0.0803414
0.0210862
0.046794
0.058187
0.0650205
0.0695628
0.0727208
0.0749661
0.076578
0.077736
0.0785631
0.0791472
0.0795537
0.0798316
0.0800179
0.0801403
0.0802192
0.080269
0.0802999
0.0803187
0.0803298
0.0803363
0.0803398
0.0803414
0.0210862
0.046794
0.058187
0.0650205
0.0695628
0.0727208
0.0749661
0.076578
0.077736
0.0785631
0.0791472
0.0795537
0.0798316
0.0800179
0.0801404
0.0802192
0.0802691
0.0802999
0.0803187
0.0803299
0.0803363
0.0803399
0.0803415
0.0210862
0.046794
0.058187
0.0650205
0.0695628
0.0727208
0.0749661
0.076578
0.077736
0.0785631
0.0791472
0.0795537
0.0798316
0.0800179
0.0801404
0.0802193
0.0802691
0.0802999
0.0803187
0.0803299
0.0803363
0.0803399
0.0803415
0.0210862
0.046794
0.058187
0.0650205
0.0695628
0.0727208
0.0749661
0.076578
0.077736
0.0785631
0.0791472
0.0795537
0.0798316
0.0800179
0.0801404
0.0802193
0.0802691
0.0803
0.0803187
0.0803299
0.0803363
0.0803399
0.0803415
0.0210862
0.046794
0.058187
0.0650205
0.0695628
0.0727208
0.0749661
0.076578
0.077736
0.0785631
0.0791472
0.0795537
0.0798316
0.0800179
0.0801404
0.0802193
0.0802691
0.0803
0.0803187
0.0803299
0.0803364
0.0803399
0.0803415
0.0210862
0.046794
0.058187
0.0650205
0.0695628
0.0727208
0.0749661
0.076578
0.077736
0.0785631
0.0791472
0.0795537
0.0798316
0.0800179
0.0801404
0.0802193
0.0802691
0.0803
0.0803187
0.0803299
0.0803364
0.0803399
0.0803415
0.0210862
0.046794
0.058187
0.0650205
0.0695628
0.0727208
0.0749661
0.076578
0.077736
0.0785631
0.0791472
0.0795537
0.0798316
0.0800179
0.0801404
0.0802193
0.0802691
0.0803
0.0803187
0.0803299
0.0803364
0.0803399
0.0803415
0.0210862
0.046794
0.058187
0.0650205
0.0695628
0.0727208
0.0749661
0.076578
0.077736
0.0785631
0.0791472
0.0795537
0.0798316
0.0800179
0.0801404
0.0802193
0.0802691
0.0803
0.0803187
0.0803299
0.0803364
0.0803399
0.0803415
0.0210862
0.046794
0.058187
0.0650205
0.0695628
0.0727208
0.0749661
0.076578
0.077736
0.0785631
0.0791472
0.0795537
0.0798316
0.0800179
0.0801404
0.0802193
0.0802691
0.0803
0.0803187
0.0803299
0.0803364
0.0803399
0.0803415
0.0210862
0.046794
0.058187
0.0650205
0.0695628
0.0727208
0.0749661
0.076578
0.077736
0.0785631
0.0791472
0.0795537
0.0798316
0.0800179
0.0801404
0.0802193
0.0802691
0.0803
0.0803187
0.0803299
0.0803364
0.0803399
0.0803415
0.0210862
0.046794
0.058187
0.0650205
0.0695628
0.0727208
0.0749661
0.076578
0.077736
0.0785631
0.0791472
0.0795537
0.0798316
0.0800179
0.0801404
0.0802193
0.0802691
0.0803
0.0803187
0.0803299
0.0803363
0.0803399
0.0803415
0.0210862
0.046794
0.058187
0.0650205
0.0695628
0.0727208
0.0749661
0.076578
0.077736
0.0785631
0.0791472
0.0795537
0.0798316
0.0800179
0.0801404
0.0802193
0.0802691
0.0803
0.0803187
0.0803299
0.0803363
0.0803399
0.0803415
0.0210862
0.046794
0.058187
0.0650205
0.0695628
0.0727208
0.0749661
0.076578
0.077736
0.0785631
0.0791472
0.0795537
0.0798316
0.0800179
0.0801404
0.0802193
0.0802691
0.0803
0.0803187
0.0803299
0.0803363
0.0803399
0.0803415
0.0210862
0.046794
0.058187
0.0650205
0.0695628
0.0727208
0.0749661
0.076578
0.077736
0.0785631
0.0791472
0.0795537
0.0798316
0.0800179
0.0801404
0.0802193
0.0802691
0.0803
0.0803187
0.0803299
0.0803363
0.0803399
0.0803415
0.0210862
0.046794
0.058187
0.0650205
0.0695628
0.0727208
0.0749661
0.076578
0.077736
0.0785631
0.0791472
0.0795537
0.0798316
0.0800179
0.0801404
0.0802193
0.0802691
0.0803
0.0803187
0.0803299
0.0803363
0.0803399
0.0803414
0.0210862
0.046794
0.058187
0.0650205
0.0695628
0.0727208
0.0749661
0.076578
0.077736
0.0785631
0.0791472
0.0795537
0.0798316
0.0800179
0.0801404
0.0802193
0.0802691
0.0803
0.0803187
0.0803299
0.0803363
0.0803398
0.0803414
0.0323734
0.0270485
0.027007
0.0321515
0.0569452
0.0557291
0.055717
0.0569095
0.0658628
0.0654959
0.0654924
0.0658537
0.0707281
0.070577
0.0705753
0.0707231
0.0737996
0.0737233
0.0737219
0.0737957
0.0758601
0.0758169
0.0758158
0.0758567
0.0772805
0.0772544
0.0772534
0.0772774
0.0782688
0.0782527
0.0782517
0.0782661
0.0789557
0.0789454
0.0789446
0.0789531
0.0794288
0.0794222
0.0794214
0.0794263
0.0797503
0.0797461
0.0797453
0.0797479
0.0799652
0.0799625
0.0799617
0.0799628
0.0801062
0.0801044
0.0801036
0.0801038
0.0801969
0.0801957
0.0801949
0.0801945
0.0802541
0.0802533
0.0802525
0.0802518
0.0802896
0.0802889
0.0802882
0.0802873
0.0803111
0.0803106
0.0803099
0.0803088
0.080324
0.0803236
0.0803228
0.0803217
0.0803316
0.0803312
0.0803304
0.0803293
0.080336
0.0803356
0.0803349
0.0803337
0.0803385
0.0803381
0.0803374
0.0803362
0.0803399
0.0803395
0.0803388
0.0803376
0.0803407
0.0803403
0.0803396
0.0803384
0.0803411
0.0803408
0.08034
0.0803388
0.0803413
0.080341
0.0803402
0.080339
0.0803414
0.0803411
0.0803404
0.0803391
0.0803415
0.0803412
0.0803404
0.0803392
0.0803415
0.0803412
0.0803405
0.0803392
0.0803416
0.0803412
0.0803405
0.0803393
0.0803416
0.0803413
0.0803405
0.0803393
0.0803416
0.0803413
0.0803405
0.0803393
0.0803416
0.0803413
0.0803405
0.0803393
0.0803416
0.0803413
0.0803405
0.0803393
0.0803416
0.0803413
0.0803405
0.0803393
0.0803416
0.0803413
0.0803405
0.0803393
0.0803416
0.0803412
0.0803405
0.0803393
0.0803416
0.0803412
0.0803405
0.0803393
0.0803415
0.0803412
0.0803405
0.0803392
0.0803415
0.0803412
0.0803405
0.0803392
0.0803415
0.0803412
0.0803404
0.0803392
0.0803415
0.0803412
0.0803404
0.0803392
0.0803415
0.0803411
0.0803404
0.0803392
0.049098
0.0576742
0.0624377
0.0653059
0.0670888
0.0681921
0.068847
0.0691907
0.0692989
0.0692001
0.0688812
0.0682878
0.067318
0.0658066
0.0634873
0.0599067
0.0541895
0.0441531
0.0202565
0.0601847
0.0641556
0.0670781
0.0691147
0.070492
0.0713905
0.071939
0.0722225
0.0722878
0.0721471
0.0717776
0.0711193
0.0700667
0.0684507
0.0659987
0.0622421
0.0562686
0.0457953
0.0209551
0.06691
0.0688651
0.0706359
0.0720319
0.073052
0.07375
0.0741841
0.074398
0.074414
0.0742293
0.0738118
0.0730958
0.0719719
0.0702674
0.0677038
0.0638012
0.0576232
0.0468287
0.0213794
0.071184
0.0722289
0.0733144
0.0742555
0.0749887
0.0755097
0.0758342
0.0759774
0.0759425
0.0757141
0.0752519
0.0744848
0.0732996
0.0715199
0.0688628
0.0648403
0.0585014
0.0474733
0.0216325
0.0740331
0.0746298
0.0753069
0.0759359
0.07645
0.0768238
0.0770506
0.0771274
0.0770437
0.0767739
0.0762712
0.0754594
0.0742218
0.0723793
0.0696451
0.0655262
0.0590638
0.0478693
0.0217804
0.075991
0.0763476
0.0767756
0.0771924
0.0775439
0.0778
0.0779438
0.0779616
0.0778334
0.0775263
0.0769877
0.0761377
0.0748565
0.0729624
0.0701663
0.0659724
0.059418
0.0481079
0.021865
0.0773572
0.0775759
0.0778478
0.0781203
0.078353
0.0785176
0.0785937
0.0785613
0.0783945
0.0780549
0.0774858
0.076604
0.0752873
0.0733521
0.070508
0.0662575
0.0596367
0.0482489
0.0219122
0.0783144
0.0784498
0.0786215
0.0787956
0.0789425
0.0790379
0.0790604
0.078987
0.0787879
0.0784213
0.077827
0.0769195
0.0755748
0.073608
0.0707277
0.066436
0.0597691
0.0483304
0.0219382
0.0789823
0.0790655
0.0791718
0.0792788
0.0793646
0.0794087
0.07939
0.0792844
0.0790595
0.0786711
0.0780568
0.0771292
0.0757631
0.0737728
0.0708662
0.0665456
0.0598477
0.0483768
0.0219522
0.0794436
0.0794935
0.0795568
0.0796183
0.0796612
0.079668
0.0796188
0.0794885
0.0792437
0.0788384
0.0782088
0.0772661
0.0758842
0.0738768
0.0709518
0.0666116
0.0598934
0.0484027
0.0219596
0.0797576
0.0797861
0.0798212
0.079852
0.0798654
0.0798459
0.0797745
0.0796261
0.0793665
0.0789485
0.0783074
0.0773537
0.0759605
0.0739413
0.0710037
0.0666506
0.0599196
0.0484169
0.0219635
0.0799677
0.0799825
0.0799992
0.0800097
0.080003
0.0799654
0.0798784
0.0797171
0.0794467
0.0790196
0.0783703
0.0774088
0.0760078
0.0739804
0.0710346
0.0666732
0.0599343
0.0484246
0.0219656
0.0801057
0.0801117
0.0801166
0.0801138
0.0800939
0.080044
0.0799464
0.0797761
0.0794982
0.0790647
0.0784097
0.0774428
0.0760365
0.0740038
0.0710527
0.0666861
0.0599425
0.0484287
0.0219666
0.0801945
0.080195
0.0801925
0.0801811
0.0801526
0.0800948
0.0799901
0.0798137
0.0795307
0.0790929
0.078434
0.0774634
0.0760537
0.0740176
0.0710631
0.0666934
0.059947
0.0484309
0.0219671
0.0802505
0.0802477
0.0802405
0.0802239
0.0801899
0.0801269
0.0800176
0.0798373
0.0795509
0.0791101
0.0784487
0.0774758
0.0760638
0.0740256
0.0710691
0.0666974
0.0599494
0.0484321
0.0219674
0.0802853
0.0802804
0.0802703
0.0802504
0.0802131
0.0801468
0.0800346
0.0798517
0.0795632
0.0791206
0.0784575
0.0774831
0.0760697
0.0740302
0.0710724
0.0666997
0.0599507
0.0484327
0.0219675
0.0803064
0.0803003
0.0802885
0.0802666
0.0802272
0.080159
0.0800449
0.0798605
0.0795706
0.0791268
0.0784627
0.0774873
0.0760731
0.0740327
0.0710742
0.0667009
0.0599514
0.048433
0.0219676
0.0803191
0.0803122
0.0802994
0.0802764
0.0802357
0.0801663
0.0800511
0.0798657
0.079575
0.0791304
0.0784657
0.0774898
0.076075
0.0740342
0.0710753
0.0667015
0.0599518
0.0484331
0.0219676
0.0803265
0.0803192
0.0803059
0.0802821
0.0802407
0.0801706
0.0800548
0.0798688
0.0795775
0.0791326
0.0784674
0.0774912
0.076076
0.074035
0.0710758
0.0667019
0.059952
0.0484332
0.0219677
0.0803308
0.0803233
0.0803096
0.0802854
0.0802436
0.0801731
0.0800569
0.0798706
0.079579
0.0791338
0.0784684
0.0774919
0.0760766
0.0740354
0.0710761
0.066702
0.0599521
0.0484332
0.0219677
0.0803332
0.0803256
0.0803117
0.0802874
0.0802453
0.0801745
0.0800581
0.0798716
0.0795799
0.0791345
0.078469
0.0774924
0.076077
0.0740356
0.0710763
0.0667021
0.0599521
0.0484333
0.0219677
0.0803346
0.0803269
0.0803129
0.0802884
0.0802463
0.0801753
0.0800588
0.0798722
0.0795803
0.0791348
0.0784693
0.0774926
0.0760771
0.0740358
0.0710763
0.0667022
0.0599521
0.0484333
0.0219677
0.0803354
0.0803276
0.0803136
0.080289
0.0802468
0.0801758
0.0800592
0.0798725
0.0795806
0.079135
0.0784694
0.0774927
0.0760772
0.0740358
0.0710764
0.0667022
0.0599522
0.0484333
0.0219677
0.0803358
0.080328
0.080314
0.0802894
0.0802471
0.080176
0.0800594
0.0798727
0.0795807
0.0791352
0.0784695
0.0774928
0.0760773
0.0740359
0.0710764
0.0667022
0.0599522
0.0484333
0.0219677
0.0803361
0.0803282
0.0803142
0.0802896
0.0802473
0.0801762
0.0800596
0.0798728
0.0795808
0.0791352
0.0784696
0.0774928
0.0760773
0.0740359
0.0710764
0.0667022
0.0599522
0.0484333
0.0219677
0.0803362
0.0803284
0.0803143
0.0802897
0.0802473
0.0801763
0.0800596
0.0798728
0.0795809
0.0791353
0.0784696
0.0774929
0.0760773
0.0740359
0.0710764
0.0667022
0.0599522
0.0484333
0.0219677
0.0803362
0.0803284
0.0803144
0.0802897
0.0802474
0.0801763
0.0800596
0.0798728
0.0795809
0.0791353
0.0784696
0.0774929
0.0760773
0.0740359
0.0710764
0.0667022
0.0599522
0.0484333
0.0219677
0.0803363
0.0803284
0.0803144
0.0802897
0.0802474
0.0801763
0.0800597
0.0798729
0.0795809
0.0791353
0.0784696
0.0774929
0.0760774
0.0740359
0.0710764
0.0667023
0.0599522
0.0484333
0.0219677
0.0803363
0.0803285
0.0803144
0.0802898
0.0802474
0.0801763
0.0800597
0.0798729
0.0795809
0.0791353
0.0784696
0.0774929
0.0760774
0.0740359
0.0710764
0.0667023
0.0599522
0.0484333
0.0219677
0.0803363
0.0803285
0.0803144
0.0802898
0.0802474
0.0801763
0.0800597
0.0798729
0.0795809
0.0791353
0.0784696
0.0774929
0.0760774
0.0740359
0.0710764
0.0667023
0.0599522
0.0484333
0.0219677
0.0803363
0.0803285
0.0803144
0.0802898
0.0802474
0.0801763
0.0800597
0.0798729
0.0795809
0.0791353
0.0784696
0.0774929
0.0760774
0.0740359
0.0710764
0.0667023
0.0599522
0.0484333
0.0219677
0.0803363
0.0803285
0.0803144
0.0802898
0.0802474
0.0801763
0.0800597
0.0798729
0.0795809
0.0791353
0.0784696
0.0774929
0.0760774
0.0740359
0.0710764
0.0667023
0.0599522
0.0484333
0.0219677
0.0803363
0.0803285
0.0803144
0.0802898
0.0802474
0.0801763
0.0800597
0.0798729
0.0795809
0.0791353
0.0784696
0.0774929
0.0760774
0.0740359
0.0710764
0.0667023
0.0599522
0.0484333
0.0219677
0.0803363
0.0803285
0.0803144
0.0802898
0.0802474
0.0801763
0.0800597
0.0798729
0.0795809
0.0791353
0.0784696
0.0774929
0.0760774
0.0740359
0.0710764
0.0667023
0.0599522
0.0484333
0.0219677
0.0803363
0.0803285
0.0803144
0.0802898
0.0802474
0.0801763
0.0800597
0.0798729
0.0795809
0.0791353
0.0784696
0.0774929
0.0760774
0.0740359
0.0710764
0.0667023
0.0599522
0.0484333
0.0219677
0.0803363
0.0803285
0.0803144
0.0802898
0.0802474
0.0801763
0.0800597
0.0798729
0.0795809
0.0791353
0.0784696
0.0774929
0.0760774
0.0740359
0.0710764
0.0667023
0.0599522
0.0484333
0.0219677
0.0803363
0.0803285
0.0803144
0.0802898
0.0802474
0.0801763
0.0800597
0.0798729
0.0795809
0.0791353
0.0784696
0.0774929
0.0760774
0.0740359
0.0710764
0.0667023
0.0599522
0.0484333
0.0219677
0.0803363
0.0803285
0.0803144
0.0802898
0.0802474
0.0801763
0.0800597
0.0798729
0.0795809
0.0791353
0.0784696
0.0774929
0.0760774
0.0740359
0.0710764
0.0667023
0.0599522
0.0484333
0.0219677
0.0803363
0.0803285
0.0803144
0.0802898
0.0802474
0.0801763
0.0800597
0.0798729
0.0795809
0.0791353
0.0784696
0.0774929
0.0760774
0.0740359
0.0710764
0.0667023
0.0599522
0.0484333
0.0219677
0.0803363
0.0803284
0.0803144
0.0802898
0.0802474
0.0801763
0.0800597
0.0798729
0.0795809
0.0791353
0.0784696
0.0774929
0.0760774
0.0740359
0.0710764
0.0667023
0.0599522
0.0484333
0.0219677
0.0803362
0.0803284
0.0803144
0.0802898
0.0802474
0.0801763
0.0800597
0.0798729
0.0795809
0.0791353
0.0784696
0.0774929
0.0760774
0.0740359
0.0710764
0.0667023
0.0599522
0.0484333
0.0219677
0.0803362
0.0803284
0.0803144
0.0802897
0.0802474
0.0801763
0.0800597
0.0798729
0.0795809
0.0791353
0.0784696
0.0774929
0.0760774
0.0740359
0.0710764
0.0667023
0.0599522
0.0484333
0.0219677
)
;

boundaryField
{
    leftWall
    {
        type            kqRWallFunction;
        value           nonuniform List<scalar> 
50
(
0.00600397
0.0102341
0.0127241
0.0145432
0.0159276
0.0170058
0.0178554
0.0185293
0.0193704
0.0200703
0.0204958
0.02075
0.0208985
0.0209834
0.0210308
0.0210568
0.0210708
0.0210783
0.0210821
0.0210842
0.0210852
0.0210857
0.021086
0.0210861
0.0210862
0.0210862
0.0210862
0.0210862
0.0210862
0.0210862
0.0210862
0.0210862
0.0210862
0.0210862
0.0210862
0.0210862
0.0210862
0.0210862
0.0210862
0.0210862
0.0210862
0.0210862
0.0210862
0.0210862
0.0210862
0.0210862
0.0210862
0.0210862
0.0210862
0.0210862
)
;
    }
    rightWall
    {
        type            kqRWallFunction;
        value           nonuniform List<scalar> 
50
(
0.00652218
0.0110719
0.0136043
0.0154316
0.016816
0.0178933
0.0187424
0.0194161
0.0202565
0.0209551
0.0213794
0.0216325
0.0217804
0.021865
0.0219122
0.0219382
0.0219522
0.0219596
0.0219635
0.0219656
0.0219666
0.0219671
0.0219674
0.0219675
0.0219676
0.0219676
0.0219677
0.0219677
0.0219677
0.0219677
0.0219677
0.0219677
0.0219677
0.0219677
0.0219677
0.0219677
0.0219677
0.0219677
0.0219677
0.0219677
0.0219677
0.0219677
0.0219677
0.0219677
0.0219677
0.0219677
0.0219677
0.0219677
0.0219677
0.0219677
)
;
    }
    lowerWall
    {
        type            kqRWallFunction;
        value           nonuniform List<scalar> 
62
(
0.00600397
0.00931253
0.0120987
0.0137998
0.0148701
0.0155469
0.0159699
0.0162285
0.0163824
0.0164707
0.0165185
0.0165403
0.0165426
0.0165248
0.0164786
0.0163844
0.0162063
0.0158818
0.0153062
0.014304
0.0125756
0.009583
0.00443747
0.00443747
0.0101265
0.0130068
0.0151816
0.0170772
0.0190951
0.0222031
0.0298599
0.0323734
0.0270485
0.027007
0.0321515
0.00470807
0.0108891
0.0138587
0.0160675
0.0179924
0.0200852
0.0233773
0.0311587
0.00470807
0.0100638
0.0130578
0.0147011
0.0155985
0.0160796
0.0163289
0.0164497
0.0164974
0.0164967
0.0164513
0.0163465
0.0161483
0.0157976
0.0152001
0.0142049
0.0125547
0.00975846
0.00652218
)
;
    }
    atmosphere
    {
        type            inletOutlet;
        inletValue      uniform 0.1;
        value           nonuniform List<scalar> 
46
(
0.0210862
0.046794
0.058187
0.0650205
0.0695628
0.0727208
0.0749661
0.076578
0.077736
0.0785631
0.0791472
0.0795537
0.0798316
0.0800179
0.0801404
0.0802193
0.0802691
0.0803
0.0803187
0.0803299
0.0803363
0.0803398
0.0803414
0.0803415
0.0803411
0.0803404
0.0803392
0.0803362
0.0803284
0.0803144
0.0802897
0.0802474
0.0801763
0.0800597
0.0798729
0.0795809
0.0791353
0.0784696
0.0774929
0.0760774
0.0740359
0.0710764
0.0667023
0.0599522
0.0484333
0.0219677
)
;
    }
    defaultFaces
    {
        type            empty;
    }
}


// ************************************************************************* //
