/*--------------------------------*- C++ -*----------------------------------*\
| =========                 |                                                 |
| \\      /  F ield         | OpenFOAM: The Open Source CFD Toolbox           |
|  \\    /   O peration     | Version:  2406                                  |
|   \\  /    A nd           | Website:  www.openfoam.com                      |
|    \\/     M anipulation  |                                                 |
\*---------------------------------------------------------------------------*/
FoamFile
{
    version     2.0;
    format      ascii;
    arch        "LSB;label=32;scalar=64";
    class       volScalarField;
    location    "0.25";
    object      nut;
}
// * * * * * * * * * * * * * * * * * * * * * * * * * * * * * * * * * * * * * //

dimensions      [0 2 -1 0 0 0 0];

internalField   nonuniform List<scalar> 
2268
(
5.78976e-05
5.69154e-05
6.5942e-05
7.11818e-05
7.45245e-05
7.67325e-05
7.81969e-05
7.91536e-05
7.97617e-05
8.01332e-05
8.03455e-05
8.04474e-05
8.04626e-05
8.03903e-05
8.02033e-05
7.98413e-05
7.91996e-05
7.81077e-05
7.62854e-05
7.3241e-05
6.80169e-05
5.83813e-05
3.68856e-05
0.000121127
0.000433957
0.000572898
0.00065251
0.000703537
0.000737459
0.000760084
0.000774947
0.000784452
0.0007903
0.000793668
0.000795304
0.000795571
0.000794466
0.000791582
0.000786012
0.000776177
0.000759484
0.000731649
0.000685115
0.000605074
0.000456264
0.000121374
0.000137582
0.000706986
0.00102061
0.00121355
0.00134186
0.00142914
0.00148827
0.00152757
0.00155294
0.00156869
0.00157784
0.00158234
0.00158315
0.00158027
0.00157267
0.00155802
0.00153227
0.00148883
0.001417
0.00129868
0.00110107
0.000757449
0.000140466
0.000148953
0.00089605
0.00136728
0.0016742
0.00188493
0.00203136
0.00213214
0.00220001
0.00224438
0.00227223
0.00228861
0.00229679
0.00229842
0.00229357
0.00228052
0.00225547
0.00221174
0.00213858
0.00201881
0.00182418
0.00150642
0.000979896
0.000154203
0.000157332
0.00103699
0.0016451
0.00205948
0.00235199
0.00255925
0.00270415
0.00280307
0.00286855
0.00291016
0.00293494
0.00294754
0.00295034
0.00294352
0.00292478
0.00288887
0.0028267
0.00272367
0.00255673
0.00228857
0.00185743
0.00116367
0.000165751
0.00016377
0.00114699
0.00187354
0.00238701
0.00275841
0.00302641
0.00321658
0.00334815
0.00343634
0.00349308
0.00352729
0.003545
0.00354938
0.00354078
0.00351642
0.00346983
0.00338981
0.00325853
0.00304809
0.00271363
0.00218056
0.00133214
0.000177508
0.000168846
0.00123525
0.00206435
0.00266818
0.0031144
0.00344183
0.0036775
0.00384266
0.00395471
0.00402767
0.00407221
0.00409569
0.00410211
0.00409208
0.00406249
0.00400592
0.00390952
0.00375308
0.00350525
0.00311582
0.00249861
0.00150755
0.00019407
0.000172916
0.00130725
0.00222518
0.0029107
0.00342698
0.00381171
0.00409234
0.00429143
0.00442806
0.00451803
0.00457363
0.00460349
0.00461246
0.0046015
0.00456735
0.00450197
0.00439142
0.00421407
0.00393699
0.00350831
0.0028368
0.00173458
0.000228517
3.81106e-05
5.99885e-05
6.94959e-05
7.44497e-05
7.72063e-05
7.87661e-05
7.96311e-05
8.00774e-05
8.02579e-05
8.02442e-05
8.00452e-05
7.96145e-05
7.88514e-05
7.75938e-05
7.55932e-05
7.24419e-05
6.73534e-05
5.83956e-05
6.25311e-05
0.000139642
0.000480275
0.000627376
0.000703448
0.000745653
0.000769508
0.000782745
0.00078958
0.000792327
0.000792059
0.000788897
0.000782129
0.000770223
0.000750717
0.000719861
0.000671549
0.000593934
0.000455822
0.000139838
0.000160636
0.000808952
0.00115466
0.00134471
0.00145289
0.00151478
0.00154934
0.00156723
0.00157437
0.00157349
0.00156487
0.00154668
0.00151498
0.00146361
0.0013835
0.00126068
0.00107006
0.000752708
0.000157685
0.000175704
0.00105538
0.0015911
0.00189922
0.00207831
0.00218203
0.00224043
0.0022708
0.00228279
0.00228086
0.00226541
0.00223331
0.00217811
0.00208983
0.00195427
0.00175064
0.00144416
0.000961381
0.000170017
0.000188473
0.00126055
0.00197114
0.00239134
0.00263926
0.00278448
0.00286701
0.00291012
0.00292691
0.00292336
0.00289988
0.00285205
0.00277091
0.00264293
0.00244948
0.00216445
0.001747
0.00111829
0.000179121
0.000201791
0.00144908
0.00232052
0.00284132
0.00315169
0.00333552
0.00344098
0.00349631
0.00351744
0.00351157
0.00347899
0.00341393
0.00330507
0.00313576
0.00288369
0.00251904
0.00199786
0.00124143
0.00018613
0.000220931
0.00164404
0.00266074
0.00326418
0.00362679
0.00384418
0.0039702
0.00403655
0.00406121
0.00405223
0.00400953
0.00392603
0.00378823
0.0035768
0.00326659
0.00282546
0.00220862
0.00134058
0.000191665
0.000259178
0.00188914
0.00301393
0.00367138
0.00407233
0.00431653
0.00445972
0.00453531
0.00456243
0.00454943
0.00449573
0.00439287
0.00422543
0.00397182
0.00360487
0.0030913
0.00238709
0.00142168
0.000196106
0.000178059
0.00140022
0.00243988
0.00324255
0.00386316
0.00433594
0.00468751
0.00494135
0.00511847
0.00523701
0.00531155
0.00535269
0.00536667
0.00535519
0.00531509
0.00523787
0.00510881
0.00490565
0.00459629
0.00413477
0.00345658
0.00248922
0.00127066
0.000182569
0.00148432
0.00264229
0.00356575
0.00429956
0.00487224
0.00530759
0.00562846
0.00585685
0.00601278
0.00611313
0.00617066
0.00619349
0.00618474
0.00614232
0.0060587
0.00592072
0.00570939
0.00540006
0.00496362
0.00437171
0.00361444
0.00274507
0.000185474
0.00154016
0.00278195
0.00379612
0.00461927
0.00527427
0.00578132
0.00616155
0.00643679
0.006628
0.00675362
0.00682827
0.00686188
0.00685933
0.0068203
0.00673943
0.00660674
0.0064085
0.00612912
0.00575497
0.00528203
0.00473103
0.00417354
0.000187318
0.00157656
0.00287613
0.00395616
0.00484712
0.00556707
0.00613262
0.00656276
0.00687853
0.00710118
0.00725017
0.00734161
0.00738715
0.00739354
0.00736265
0.00729184
0.00717484
0.00700329
0.0067693
0.00646966
0.00611243
0.00572657
0.00537342
0.000188463
0.00159971
0.00293791
0.00406416
0.00500471
0.00577383
0.00638504
0.00685524
0.0072044
0.00745367
0.00762317
0.00773016
0.00778782
0.00780477
0.00778507
0.00772881
0.00763324
0.00749442
0.00730982
0.00708184
0.00682237
0.00655772
0.00633172
0.000189156
0.00161403
0.00297727
0.00413489
0.0051104
0.00591533
0.00656075
0.00706172
0.00743716
0.00770796
0.0078946
0.00801524
0.00808438
0.00811226
0.00810496
0.00806498
0.00799243
0.00788661
0.0077482
0.00758189
0.00739916
0.00722038
0.00707455
0.000189565
0.00162265
0.00300165
0.00417987
0.00517918
0.00600924
0.0066793
0.00720297
0.00759826
0.00788573
0.00808607
0.00821813
0.00829743
0.00833561
0.00834038
0.00831621
0.00826533
0.00818918
0.00809012
0.00797327
0.00784811
0.0077292
0.00763504
0.0001898
0.00162771
0.00301634
0.00420768
0.00522267
0.00606976
0.00675693
0.00729673
0.00770644
0.00800631
0.00821717
0.00835833
0.00844615
0.0084933
0.0085088
0.00849856
0.00846631
0.00841479
0.00834709
0.00826792
0.00818451
0.00810682
0.00804647
0.000189932
0.0016306
0.00302498
0.00422445
0.00524945
0.0061077
0.00680636
0.00735722
0.00777704
0.00808582
0.00830444
0.00845257
0.00854715
0.00860164
0.00862601
0.00862718
0.00860987
0.00857756
0.00853356
0.0084819
0.0084279
0.0083782
0.00834003
0.000190005
0.00163223
0.00302995
0.00423432
0.00526553
0.0061309
0.00683704
0.00739525
0.00782192
0.00813688
0.00836103
0.00851429
0.008614
0.00867419
0.00870547
0.00871545
0.00870945
0.00869137
0.0086645
0.00863219
0.00859832
0.0085673
0.00854359
0.000190044
0.00163312
0.00303276
0.00424001
0.00527499
0.00614475
0.00685563
0.00741858
0.00784977
0.00816888
0.00839686
0.00855376
0.00865721
0.00872161
0.00875801
0.00877445
0.00877663
0.00876864
0.00875365
0.00873451
0.00871406
0.00869523
0.00868082
0.000190065
0.00163361
0.00303431
0.00424322
0.00528043
0.00615286
0.00686665
0.00743259
0.00786667
0.00818851
0.00841905
0.00857846
0.00868453
0.00875193
0.00879195
0.00881294
0.00882079
0.00881967
0.00881266
0.00880219
0.00879043
0.00877939
0.00877085
0.000190076
0.00163387
0.00303516
0.00424501
0.00528351
0.00615752
0.00687307
0.00744084
0.00787673
0.00820031
0.00843253
0.0085936
0.00870147
0.0087709
0.00881341
0.00883747
0.00884911
0.00885253
0.00885068
0.00884576
0.0088395
0.00883332
0.00882841
0.000190082
0.001634
0.00303561
0.00424599
0.00528522
0.00616015
0.00687674
0.00744561
0.00788262
0.00820728
0.00844056
0.00860273
0.00871177
0.00878256
0.00882671
0.00885279
0.00886687
0.00887319
0.00887461
0.00887314
0.00887026
0.00886705
0.00886434
0.000190085
0.00163407
0.00303585
0.00424652
0.00528617
0.00616161
0.00687881
0.00744833
0.007886
0.00821133
0.00844528
0.00860814
0.00871793
0.0087896
0.0088348
0.00886216
0.00887779
0.0088859
0.00888932
0.00888996
0.00888911
0.00888768
0.00888627
0.000190087
0.00163411
0.00303598
0.00424681
0.00528668
0.00616241
0.00687996
0.00744986
0.00788792
0.00821365
0.00844801
0.00861129
0.00872156
0.00879378
0.00883964
0.00886779
0.00888436
0.00889357
0.00889819
0.00890008
0.00890043
0.00890003
0.00889938
0.000190087
0.00163413
0.00303605
0.00424696
0.00528695
0.00616285
0.00688059
0.00745071
0.007889
0.00821496
0.00844957
0.00861311
0.00872367
0.00879623
0.00884249
0.00887112
0.00888826
0.00889811
0.00890344
0.00890605
0.00890709
0.00890729
0.00890707
0.000190088
0.00163414
0.00303608
0.00424703
0.0052871
0.00616309
0.00688093
0.00745117
0.00788959
0.0082157
0.00845044
0.00861415
0.00872488
0.00879764
0.00884414
0.00887305
0.00889053
0.00890075
0.00890649
0.00890952
0.00891095
0.00891148
0.00891151
0.000190088
0.00163414
0.0030361
0.00424708
0.00528717
0.00616321
0.00688111
0.00745142
0.00788992
0.0082161
0.00845094
0.00861473
0.00872557
0.00879845
0.00884508
0.00887416
0.00889183
0.00890227
0.00890824
0.0089115
0.00891315
0.00891387
0.00891403
0.000190088
0.00163415
0.00303611
0.0042471
0.00528721
0.00616328
0.00688121
0.00745156
0.0078901
0.00821632
0.00845121
0.00861505
0.00872595
0.0087989
0.00884562
0.00887479
0.00889257
0.00890313
0.00890922
0.00891261
0.00891439
0.00891521
0.00891544
0.000190088
0.00163415
0.00303611
0.00424711
0.00528723
0.00616331
0.00688127
0.00745163
0.00789019
0.00821644
0.00845135
0.00861523
0.00872616
0.00879915
0.00884592
0.00887514
0.00889298
0.00890361
0.00890977
0.00891323
0.00891507
0.00891595
0.00891622
0.000190088
0.00163415
0.00303612
0.00424711
0.00528724
0.00616333
0.00688129
0.00745167
0.00789024
0.00821651
0.00845143
0.00861533
0.00872628
0.00879929
0.00884608
0.00887534
0.00889321
0.00890387
0.00891008
0.00891357
0.00891545
0.00891635
0.00891665
0.000190088
0.00163415
0.00303612
0.00424712
0.00528725
0.00616334
0.00688131
0.00745169
0.00789027
0.00821654
0.00845148
0.00861538
0.00872634
0.00879937
0.00884617
0.00887544
0.00889333
0.00890401
0.00891024
0.00891376
0.00891565
0.00891657
0.00891688
0.000190088
0.00163415
0.00303612
0.00424712
0.00528725
0.00616334
0.00688131
0.0074517
0.00789029
0.00821656
0.0084515
0.00861541
0.00872638
0.00879941
0.00884622
0.0088755
0.0088934
0.00890409
0.00891033
0.00891386
0.00891576
0.00891669
0.008917
0.000190088
0.00163415
0.00303612
0.00424712
0.00528725
0.00616335
0.00688132
0.00745171
0.00789029
0.00821657
0.00845151
0.00861543
0.0087264
0.00879943
0.00884625
0.00887553
0.00889343
0.00890413
0.00891038
0.00891391
0.00891582
0.00891675
0.00891706
0.000190088
0.00163415
0.00303612
0.00424712
0.00528725
0.00616335
0.00688132
0.00745171
0.0078903
0.00821658
0.00845152
0.00861543
0.00872641
0.00879944
0.00884626
0.00887555
0.00889345
0.00890416
0.0089104
0.00891394
0.00891585
0.00891678
0.0089171
0.000190088
0.00163415
0.00303612
0.00424712
0.00528726
0.00616335
0.00688132
0.00745171
0.0078903
0.00821658
0.00845152
0.00861544
0.00872641
0.00879945
0.00884627
0.00887556
0.00889346
0.00890417
0.00891042
0.00891395
0.00891587
0.0089168
0.00891712
0.000190088
0.00163415
0.00303612
0.00424712
0.00528726
0.00616335
0.00688132
0.00745171
0.0078903
0.00821658
0.00845153
0.00861544
0.00872641
0.00879945
0.00884627
0.00887556
0.00889347
0.00890417
0.00891042
0.00891396
0.00891587
0.00891681
0.00891712
0.000190088
0.00163415
0.00303612
0.00424712
0.00528726
0.00616335
0.00688132
0.00745171
0.0078903
0.00821658
0.00845153
0.00861544
0.00872641
0.00879945
0.00884627
0.00887556
0.00889347
0.00890418
0.00891043
0.00891397
0.00891588
0.00891681
0.00891713
0.000190088
0.00163415
0.00303612
0.00424712
0.00528726
0.00616335
0.00688132
0.00745171
0.0078903
0.00821658
0.00845153
0.00861544
0.00872642
0.00879945
0.00884627
0.00887557
0.00889347
0.00890418
0.00891043
0.00891397
0.00891588
0.00891681
0.00891713
0.000190088
0.00163415
0.00303612
0.00424712
0.00528726
0.00616335
0.00688132
0.00745171
0.0078903
0.00821658
0.00845153
0.00861544
0.00872642
0.00879945
0.00884628
0.00887557
0.00889347
0.00890418
0.00891043
0.00891397
0.00891588
0.00891682
0.00891713
0.000190088
0.00163415
0.00303612
0.00424712
0.00528726
0.00616335
0.00688132
0.00745171
0.0078903
0.00821658
0.00845153
0.00861544
0.00872642
0.00879945
0.00884628
0.00887557
0.00889347
0.00890418
0.00891043
0.00891397
0.00891588
0.00891682
0.00891714
0.000190088
0.00163415
0.00303612
0.00424712
0.00528726
0.00616335
0.00688132
0.00745171
0.0078903
0.00821658
0.00845153
0.00861544
0.00872642
0.00879945
0.00884628
0.00887557
0.00889347
0.00890418
0.00891043
0.00891397
0.00891589
0.00891682
0.00891714
0.000190088
0.00163415
0.00303612
0.00424712
0.00528726
0.00616335
0.00688132
0.00745171
0.0078903
0.00821658
0.00845153
0.00861544
0.00872642
0.00879945
0.00884628
0.00887557
0.00889348
0.00890418
0.00891043
0.00891397
0.00891589
0.00891682
0.00891714
0.000190088
0.00163415
0.00303612
0.00424712
0.00528726
0.00616335
0.00688132
0.00745171
0.0078903
0.00821658
0.00845153
0.00861544
0.00872642
0.00879945
0.00884628
0.00887557
0.00889348
0.00890418
0.00891043
0.00891398
0.00891589
0.00891682
0.00891714
0.000190088
0.00163415
0.00303612
0.00424712
0.00528726
0.00616335
0.00688132
0.00745171
0.0078903
0.00821658
0.00845153
0.00861544
0.00872642
0.00879946
0.00884628
0.00887557
0.00889348
0.00890418
0.00891044
0.00891398
0.00891589
0.00891683
0.00891715
0.000190088
0.00163415
0.00303612
0.00424712
0.00528726
0.00616335
0.00688132
0.00745171
0.0078903
0.00821658
0.00845153
0.00861544
0.00872642
0.00879946
0.00884628
0.00887557
0.00889348
0.00890419
0.00891044
0.00891398
0.0089159
0.00891683
0.00891715
0.000190088
0.00163415
0.00303612
0.00424712
0.00528726
0.00616335
0.00688132
0.00745171
0.0078903
0.00821658
0.00845153
0.00861544
0.00872642
0.00879946
0.00884628
0.00887557
0.00889348
0.00890419
0.00891044
0.00891399
0.0089159
0.00891684
0.00891716
0.000190088
0.00163415
0.00303612
0.00424712
0.00528726
0.00616335
0.00688132
0.00745171
0.0078903
0.00821659
0.00845153
0.00861545
0.00872642
0.00879946
0.00884628
0.00887557
0.00889348
0.00890419
0.00891044
0.00891399
0.00891591
0.00891685
0.00891717
0.000190088
0.00163415
0.00303612
0.00424712
0.00528726
0.00616335
0.00688132
0.00745171
0.0078903
0.00821659
0.00845153
0.00861545
0.00872642
0.00879946
0.00884628
0.00887557
0.00889348
0.00890419
0.00891045
0.00891399
0.00891592
0.00891686
0.00891719
0.000190088
0.00163415
0.00303612
0.00424712
0.00528726
0.00616335
0.00688132
0.00745171
0.0078903
0.00821659
0.00845153
0.00861545
0.00872642
0.00879946
0.00884628
0.00887557
0.00889348
0.00890419
0.00891045
0.008914
0.00891592
0.00891686
0.0089172
0.000190088
0.00163415
0.00303612
0.00424712
0.00528726
0.00616335
0.00688132
0.00745171
0.0078903
0.00821659
0.00845153
0.00861545
0.00872642
0.00879946
0.00884628
0.00887557
0.00889349
0.0089042
0.00891045
0.008914
0.00891592
0.00891687
0.0089172
0.000241867
0.00022121
0.000221037
0.000241036
0.00211509
0.00201421
0.00201415
0.0021142
0.00387312
0.00378336
0.003783
0.00387187
0.00521067
0.00515662
0.00515614
0.00520921
0.00623551
0.00620325
0.00620276
0.00623402
0.00701499
0.00699507
0.00699462
0.00701363
0.00759744
0.00758487
0.00758448
0.00759625
0.00802265
0.00801467
0.00801433
0.00802161
0.00832504
0.00831998
0.00831968
0.00832412
0.00853426
0.00853108
0.0085308
0.00853342
0.0086751
0.0086731
0.00867284
0.0086743
0.00876739
0.00876613
0.00876588
0.00876662
0.00882634
0.00882554
0.0088253
0.00882559
0.0088631
0.00886258
0.00886234
0.00886237
0.00888553
0.00888517
0.00888493
0.0088848
0.00889893
0.00889866
0.00889842
0.0088982
0.00890678
0.00890657
0.00890634
0.00890606
0.00891131
0.00891113
0.00891089
0.00891059
0.00891388
0.00891372
0.00891348
0.00891316
0.00891532
0.00891516
0.00891493
0.00891459
0.00891611
0.00891596
0.00891573
0.00891539
0.00891655
0.0089164
0.00891616
0.00891582
0.00891678
0.00891663
0.0089164
0.00891606
0.00891691
0.00891676
0.00891652
0.00891618
0.00891697
0.00891683
0.00891659
0.00891625
0.00891701
0.00891686
0.00891662
0.00891628
0.00891703
0.00891688
0.00891664
0.0089163
0.00891704
0.00891689
0.00891665
0.00891631
0.00891704
0.00891689
0.00891666
0.00891631
0.00891704
0.0089169
0.00891666
0.00891632
0.00891705
0.0089169
0.00891666
0.00891632
0.00891705
0.0089169
0.00891666
0.00891632
0.00891705
0.0089169
0.00891667
0.00891632
0.00891705
0.0089169
0.00891667
0.00891633
0.00891705
0.00891691
0.00891667
0.00891633
0.00891706
0.00891691
0.00891668
0.00891633
0.00891707
0.00891692
0.00891669
0.00891634
0.00891708
0.00891693
0.0089167
0.00891635
0.00891709
0.00891694
0.00891671
0.00891637
0.0089171
0.00891696
0.00891672
0.00891638
0.00891712
0.00891697
0.00891674
0.00891639
0.00891712
0.00891698
0.00891675
0.0089164
0.00133044
0.00263321
0.00363626
0.00430982
0.00474634
0.00502134
0.00518586
0.00527291
0.00530188
0.00528083
0.00520792
0.00507256
0.00485654
0.00453543
0.00408013
0.00345733
0.0026265
0.00152664
0.00020172
0.0027864
0.00372859
0.00452788
0.00512769
0.00554791
0.00582629
0.0059975
0.0060874
0.00611173
0.00607599
0.00597576
0.00579758
0.00552043
0.0051178
0.00456019
0.00381679
0.00285352
0.00162173
0.000206635
0.00419388
0.00481106
0.00540456
0.00589329
0.00625954
0.00651334
0.0066727
0.00675391
0.00676688
0.00671305
0.00658475
0.00636576
0.00603295
0.00555896
0.00491538
0.00407517
0.00301109
0.00168496
0.000209795
0.00538264
0.00577953
0.00620232
0.00657753
0.00687453
0.00708774
0.00722263
0.00728655
0.00728314
0.00720927
0.0070538
0.00679793
0.006417
0.00588355
0.00517093
0.00425609
0.0031179
0.00172623
0.000211798
0.00633573
0.00659175
0.00688513
0.0071607
0.00738807
0.00755504
0.00765925
0.00770111
0.00767869
0.00758452
0.00740417
0.00711658
0.00669595
0.0061151
0.00534933
0.00437913
0.00318833
0.0017525
0.00021304
0.00707606
0.00724166
0.00744099
0.00763596
0.00780139
0.00792368
0.00799631
0.00801493
0.00797319
0.00785996
0.00765798
0.0073443
0.00689231
0.00627523
0.0054701
0.00446035
0.00323344
0.00176878
0.00021379
0.00763528
0.00774195
0.00787449
0.00800758
0.00812205
0.00820529
0.008249
0.00824582
0.00818625
0.00805628
0.0078364
0.00750216
0.00702635
0.00638264
0.00554944
0.0045124
0.00326154
0.0017786
0.000214233
0.00804599
0.00811386
0.0081998
0.00828724
0.0083621
0.00841359
0.0084329
0.00841097
0.00833613
0.0081923
0.00795826
0.00760844
0.00711523
0.00645262
0.0056001
0.00454485
0.00327857
0.00178437
0.000214488
0.00833913
0.00838143
0.00843544
0.0084903
0.0085358
0.00856291
0.00856293
0.00852591
0.00843878
0.00828404
0.00803926
0.00767807
0.00717257
0.006497
0.0056316
0.00456457
0.00328864
0.00178768
0.000214631
0.00854243
0.00856801
0.00860058
0.00863291
0.0086575
0.00866676
0.00865234
0.00860382
0.00850732
0.00834438
0.00809177
0.00772255
0.00720864
0.00652446
0.00565071
0.00457627
0.00329447
0.00178954
0.00021471
0.00867949
0.00869429
0.00871279
0.00873001
0.00874023
0.00873697
0.0087122
0.00865534
0.00855201
0.00838315
0.00812502
0.00775032
0.00723082
0.00654106
0.00566206
0.00458307
0.00329777
0.00179057
0.000214753
0.00876941
0.00877741
0.00878688
0.00879423
0.00879493
0.00878318
0.0087513
0.00868862
0.00858051
0.00840754
0.00814565
0.00776729
0.00724418
0.00655091
0.00566867
0.00458696
0.00329962
0.00179113
0.000214776
0.0088269
0.00883068
0.00883451
0.0088356
0.00883015
0.00881286
0.00877625
0.00870966
0.00859831
0.00842259
0.0081582
0.00777748
0.00725208
0.00655664
0.00567245
0.00458914
0.00330063
0.00179143
0.000214789
0.00886279
0.008864
0.00886437
0.0088616
0.0088523
0.00883148
0.00879183
0.0087227
0.00860924
0.0084317
0.0081657
0.00778349
0.00725667
0.00655992
0.00567458
0.00459034
0.00330118
0.00179159
0.000214795
0.00888469
0.00888439
0.00888269
0.00887757
0.00886592
0.00884292
0.00880136
0.00873063
0.00861582
0.00843714
0.00817012
0.00778698
0.00725931
0.00656177
0.00567577
0.004591
0.00330147
0.00179168
0.000214798
0.00889778
0.0088966
0.00889368
0.00888719
0.00887413
0.00884982
0.0088071
0.00873537
0.00861972
0.00844033
0.00817269
0.00778898
0.0072608
0.00656281
0.00567642
0.00459136
0.00330163
0.00179172
0.0002148
0.00890547
0.00890377
0.00890017
0.00889287
0.00887899
0.0088539
0.00881048
0.00873816
0.008622
0.00844218
0.00817416
0.00779011
0.00726163
0.00656338
0.00567677
0.00459155
0.00330171
0.00179174
0.000214801
0.0089099
0.00890792
0.00890392
0.00889617
0.00888181
0.00885628
0.00881245
0.00873977
0.00862332
0.00844323
0.00817499
0.00779075
0.00726209
0.00656369
0.00567697
0.00459165
0.00330176
0.00179176
0.000214801
0.00891241
0.00891028
0.00890606
0.00889805
0.00888343
0.00885764
0.00881358
0.0087407
0.00862406
0.00844383
0.00817546
0.0077911
0.00726234
0.00656386
0.00567707
0.0045917
0.00330178
0.00179176
0.000214801
0.00891382
0.0089116
0.00890726
0.00889911
0.00888435
0.00885841
0.00881422
0.00874122
0.00862448
0.00844416
0.00817571
0.0077913
0.00726248
0.00656395
0.00567712
0.00459173
0.00330179
0.00179176
0.000214802
0.0089146
0.00891233
0.00890793
0.0088997
0.00888486
0.00885884
0.00881458
0.00874151
0.00862472
0.00844435
0.00817586
0.0077914
0.00726256
0.006564
0.00567715
0.00459175
0.0033018
0.00179177
0.000214802
0.00891503
0.00891273
0.00890829
0.00890003
0.00888514
0.00885908
0.00881477
0.00874167
0.00862485
0.00844445
0.00817593
0.00779146
0.0072626
0.00656403
0.00567717
0.00459175
0.0033018
0.00179177
0.000214802
0.00891526
0.00891295
0.00890849
0.00890021
0.00888529
0.00885921
0.00881488
0.00874176
0.00862492
0.0084445
0.00817598
0.00779149
0.00726262
0.00656404
0.00567717
0.00459176
0.0033018
0.00179177
0.000214802
0.00891538
0.00891307
0.0089086
0.0089003
0.00888537
0.00885928
0.00881494
0.00874181
0.00862496
0.00844453
0.008176
0.0077915
0.00726263
0.00656405
0.00567718
0.00459176
0.0033018
0.00179177
0.000214802
0.00891544
0.00891313
0.00890865
0.00890035
0.00888542
0.00885931
0.00881497
0.00874183
0.00862498
0.00844455
0.00817601
0.00779151
0.00726263
0.00656405
0.00567718
0.00459176
0.0033018
0.00179177
0.000214802
0.00891548
0.00891316
0.00890868
0.00890038
0.00888544
0.00885933
0.00881499
0.00874185
0.00862499
0.00844456
0.00817602
0.00779152
0.00726264
0.00656405
0.00567718
0.00459176
0.0033018
0.00179177
0.000214802
0.0089155
0.00891318
0.0089087
0.00890039
0.00888545
0.00885935
0.008815
0.00874186
0.00862499
0.00844456
0.00817602
0.00779152
0.00726264
0.00656405
0.00567718
0.00459176
0.0033018
0.00179177
0.000214802
0.00891551
0.00891319
0.00890871
0.0089004
0.00888546
0.00885935
0.008815
0.00874186
0.008625
0.00844456
0.00817602
0.00779152
0.00726264
0.00656405
0.00567718
0.00459176
0.0033018
0.00179177
0.000214802
0.00891551
0.00891319
0.00890871
0.0089004
0.00888546
0.00885935
0.008815
0.00874186
0.008625
0.00844457
0.00817602
0.00779152
0.00726264
0.00656405
0.00567718
0.00459176
0.0033018
0.00179177
0.000214802
0.00891551
0.00891319
0.00890872
0.00890041
0.00888546
0.00885936
0.00881501
0.00874186
0.008625
0.00844457
0.00817602
0.00779152
0.00726264
0.00656405
0.00567718
0.00459176
0.0033018
0.00179177
0.000214802
0.00891551
0.00891319
0.00890872
0.00890041
0.00888546
0.00885936
0.00881501
0.00874186
0.008625
0.00844457
0.00817602
0.00779152
0.00726264
0.00656406
0.00567718
0.00459176
0.0033018
0.00179177
0.000214802
0.00891552
0.0089132
0.00890872
0.00890041
0.00888547
0.00885936
0.00881501
0.00874186
0.008625
0.00844457
0.00817602
0.00779152
0.00726264
0.00656406
0.00567718
0.00459176
0.0033018
0.00179177
0.000214802
0.00891552
0.0089132
0.00890872
0.00890041
0.00888547
0.00885936
0.00881501
0.00874186
0.008625
0.00844457
0.00817602
0.00779152
0.00726264
0.00656406
0.00567718
0.00459176
0.0033018
0.00179177
0.000214802
0.00891552
0.0089132
0.00890872
0.00890041
0.00888547
0.00885936
0.00881501
0.00874186
0.008625
0.00844457
0.00817602
0.00779152
0.00726264
0.00656406
0.00567718
0.00459176
0.0033018
0.00179177
0.000214802
0.00891552
0.0089132
0.00890872
0.00890041
0.00888547
0.00885936
0.00881501
0.00874186
0.008625
0.00844457
0.00817602
0.00779152
0.00726264
0.00656406
0.00567718
0.00459176
0.0033018
0.00179177
0.000214802
0.00891553
0.00891321
0.00890873
0.00890042
0.00888547
0.00885936
0.00881501
0.00874187
0.008625
0.00844457
0.00817602
0.00779152
0.00726264
0.00656406
0.00567718
0.00459176
0.0033018
0.00179177
0.000214802
0.00891554
0.00891321
0.00890873
0.00890042
0.00888547
0.00885936
0.00881501
0.00874187
0.008625
0.00844457
0.00817602
0.00779152
0.00726264
0.00656406
0.00567718
0.00459176
0.0033018
0.00179177
0.000214802
0.00891555
0.00891322
0.00890874
0.00890042
0.00888548
0.00885936
0.00881501
0.00874187
0.008625
0.00844457
0.00817602
0.00779152
0.00726264
0.00656406
0.00567718
0.00459176
0.0033018
0.00179177
0.000214802
0.00891556
0.00891323
0.00890875
0.00890043
0.00888548
0.00885937
0.00881501
0.00874187
0.008625
0.00844457
0.00817602
0.00779152
0.00726264
0.00656406
0.00567718
0.00459176
0.0033018
0.00179177
0.000214802
0.00891557
0.00891324
0.00890875
0.00890043
0.00888548
0.00885937
0.00881501
0.00874187
0.008625
0.00844457
0.00817602
0.00779152
0.00726264
0.00656406
0.00567718
0.00459176
0.0033018
0.00179177
0.000214802
0.00891558
0.00891325
0.00890876
0.00890044
0.00888549
0.00885937
0.00881502
0.00874187
0.008625
0.00844457
0.00817603
0.00779152
0.00726264
0.00656406
0.00567718
0.00459176
0.0033018
0.00179177
0.000214802
0.00891559
0.00891326
0.00890876
0.00890044
0.00888549
0.00885937
0.00881502
0.00874187
0.008625
0.00844457
0.00817603
0.00779152
0.00726264
0.00656406
0.00567718
0.00459176
0.0033018
0.00179177
0.000214802
)
;

boundaryField
{
    leftWall
    {
        type            nutkWallFunction;
        blending        stepwise;
        value           nonuniform List<scalar> 
50
(
6.5072e-06
1.16574e-05
1.41232e-05
1.57545e-05
1.69194e-05
1.77872e-05
1.84493e-05
1.89618e-05
1.95867e-05
2.00951e-05
2.03993e-05
2.05793e-05
2.06839e-05
2.07434e-05
2.07767e-05
2.07949e-05
2.08047e-05
2.08099e-05
2.08126e-05
2.0814e-05
2.08147e-05
2.08151e-05
2.08152e-05
2.08153e-05
2.08154e-05
2.08154e-05
2.08154e-05
2.08154e-05
2.08154e-05
2.08154e-05
2.08154e-05
2.08154e-05
2.08154e-05
2.08154e-05
2.08154e-05
2.08154e-05
2.08154e-05
2.08154e-05
2.08154e-05
2.08154e-05
2.08154e-05
2.08154e-05
2.08154e-05
2.08154e-05
2.08154e-05
2.08154e-05
2.08154e-05
2.08154e-05
2.08154e-05
2.08154e-05
)
;
    }
    rightWall
    {
        type            nutkWallFunction;
        blending        stepwise;
        value           nonuniform List<scalar> 
50
(
9.19454e-06
1.49843e-05
1.76186e-05
1.93495e-05
2.05846e-05
2.15062e-05
2.22107e-05
2.27568e-05
2.34232e-05
2.39653e-05
2.42895e-05
2.44812e-05
2.45926e-05
2.46561e-05
2.46916e-05
2.4711e-05
2.47215e-05
2.4727e-05
2.473e-05
2.47315e-05
2.47323e-05
2.47327e-05
2.47329e-05
2.4733e-05
2.4733e-05
2.4733e-05
2.4733e-05
2.4733e-05
2.47331e-05
2.47331e-05
2.47331e-05
2.47331e-05
2.47331e-05
2.47331e-05
2.47331e-05
2.47331e-05
2.47331e-05
2.47331e-05
2.47331e-05
2.47331e-05
2.47331e-05
2.47331e-05
2.47331e-05
2.47331e-05
2.47331e-05
2.47331e-05
2.47331e-05
2.47331e-05
2.47331e-05
2.47331e-05
)
;
    }
    lowerWall
    {
        type            nutkWallFunction;
        blending        stepwise;
        value           nonuniform List<scalar> 
62
(
0
0
6.86843e-07
1.51553e-06
2.00698e-06
2.30732e-06
2.4912e-06
2.60227e-06
2.66785e-06
2.70535e-06
2.7256e-06
2.73481e-06
2.73578e-06
2.72828e-06
2.70869e-06
2.66872e-06
2.59276e-06
2.45314e-06
2.20138e-06
1.74967e-06
9.25592e-07
0
0
0
1.15435e-05
1.43851e-05
1.62992e-05
1.78436e-05
1.93839e-05
2.15849e-05
2.63506e-05
2.79455e-05
2.4863e-05
2.48377e-05
2.7823e-05
0
1.47815e-05
1.78672e-05
1.99244e-05
2.15895e-05
2.32886e-05
2.57693e-05
3.09363e-05
0
0
1.16176e-06
1.93075e-06
2.32992e-06
2.53847e-06
2.6451e-06
2.69647e-06
2.71666e-06
2.71637e-06
2.69711e-06
2.65259e-06
2.56794e-06
2.41667e-06
2.15437e-06
1.70401e-06
9.15229e-07
0
0
)
;
    }
    atmosphere
    {
        type            calculated;
        value           nonuniform List<scalar> 
46
(
0.000190088
0.00163415
0.00303612
0.00424712
0.00528726
0.00616335
0.00688132
0.00745171
0.0078903
0.00821659
0.00845153
0.00861545
0.00872642
0.00879946
0.00884628
0.00887557
0.00889349
0.0089042
0.00891045
0.008914
0.00891592
0.00891687
0.0089172
0.00891712
0.00891698
0.00891675
0.0089164
0.00891559
0.00891326
0.00890876
0.00890044
0.00888549
0.00885937
0.00881502
0.00874187
0.008625
0.00844457
0.00817603
0.00779152
0.00726264
0.00656406
0.00567718
0.00459176
0.0033018
0.00179177
0.000214802
)
;
    }
    defaultFaces
    {
        type            empty;
    }
}


// ************************************************************************* //
