/*--------------------------------*- C++ -*----------------------------------*\
| =========                 |                                                 |
| \\      /  F ield         | OpenFOAM: The Open Source CFD Toolbox           |
|  \\    /   O peration     | Version:  2406                                  |
|   \\  /    A nd           | Website:  www.openfoam.com                      |
|    \\/     M anipulation  |                                                 |
\*---------------------------------------------------------------------------*/
FoamFile
{
    version     2.0;
    format      ascii;
    arch        "LSB;label=32;scalar=64";
    class       volScalarField;
    location    "0.25";
    object      nut;
}
// * * * * * * * * * * * * * * * * * * * * * * * * * * * * * * * * * * * * * //

dimensions      [0 2 -1 0 0 0 0];

internalField   nonuniform List<scalar> 
2268
(
0.000289337
0.000213038
0.000213038
0.000213038
0.000213038
0.000213038
0.000213038
0.000213038
0.000213038
0.000213038
0.000213038
0.000213038
0.000213038
6.28894e-05
6.02956e-05
6.68871e-05
7.04192e-05
7.1975e-05
7.18726e-05
6.99904e-05
6.5691e-05
5.70815e-05
3.67485e-05
0.000450785
0.000254306
0.000232321
0.000225511
0.000222385
0.000220634
0.000219545
0.000218827
0.000218345
0.000218026
0.00021783
0.000217737
0.000217737
0.000163403
0.000444512
0.000568613
0.000626693
0.000651968
0.000651361
0.00062373
0.000560139
0.000431947
0.000120183
0.000450785
0.000288167
0.000251962
0.000238672
0.000232268
0.000228639
0.000226375
0.000224886
0.000223885
0.000223224
0.000222819
0.000222627
0.000222627
0.000226503
0.000696567
0.000977205
0.00112123
0.0011862
0.00118687
0.00112163
0.000974031
0.000694556
0.000138125
0.000450785
0.000314823
0.000270613
0.00025196
0.00024245
0.000236938
0.000233468
0.000231177
0.000229636
0.000228616
0.000227993
0.000227696
0.000227696
0.000274168
0.000864908
0.00127673
0.00150734
0.00161615
0.00162126
0.00152076
0.00129398
0.000881513
0.000150757
0.000450785
0.000335499
0.000287639
0.000264954
0.00025271
0.000245414
0.000240758
0.000237661
0.00023557
0.000234185
0.000233336
0.000232933
0.000232933
0.000312424
0.000991961
0.00151354
0.00182719
0.00198229
0.00199602
0.00186575
0.00156793
0.00103626
0.000161364
0.000450785
0.000351572
0.000302834
0.000277373
0.000262866
0.000253958
0.000248177
0.000244295
0.000241659
0.000239908
0.000238833
0.000238321
0.000238321
0.000344324
0.0010955
0.00171254
0.00210563
0.00230931
0.00233698
0.00218466
0.00182549
0.00118247
0.000172397
0.000450785
0.000364209
0.000316232
0.000289058
0.00027278
0.000262475
0.000255663
0.000251036
0.000247874
0.000245763
0.000244465
0.000243845
0.000243845
0.000371765
0.00118468
0.00188822
0.00235785
0.00261245
0.00266052
0.00249667
0.0020899
0.00134155
0.000188475
0.000450785
0.000374291
0.00032798
0.000299934
0.000282354
0.000270887
0.000263158
0.000257844
0.000254183
0.000251727
0.000250211
0.000249487
0.000249487
0.00039615
0.00126597
0.00205134
0.00259529
0.00290311
0.00297919
0.00281778
0.00238634
0.00155368
0.000222296
3.80108e-05
5.89761e-05
6.78132e-05
7.24913e-05
7.51274e-05
7.66119e-05
7.74161e-05
7.78181e-05
7.79781e-05
7.79723e-05
7.78111e-05
7.74467e-05
7.6772e-05
7.56145e-05
7.37206e-05
7.07063e-05
6.58726e-05
5.74734e-05
6.24164e-05
0.000138731
0.000460767
0.000592493
0.000662298
0.000701914
0.000724292
0.000736417
0.000742468
0.000744862
0.000744739
0.000742246
0.000736653
0.000726337
0.000708684
0.000679916
0.000634503
0.00056259
0.000437151
0.00013906
0.000158836
0.000754357
0.00105015
0.00121704
0.00131486
0.00137099
0.00140159
0.00141687
0.00142288
0.00142245
0.00141593
0.00140147
0.00137498
0.00133002
0.00125772
0.00114626
0.000976841
0.000702024
0.000156133
0.000173078
0.000968311
0.00141479
0.0016781
0.00183615
0.00192813
0.0019787
0.00200407
0.00201396
0.00201296
0.00200158
0.00197668
0.00193153
0.00185575
0.00173564
0.00155448
0.00128853
0.000882007
0.000167762
0.00018523
0.00114862
0.00173426
0.00208876
0.002305
0.00243242
0.00250315
0.00253882
0.00255258
0.00255064
0.00253354
0.00249678
0.00243089
0.00232167
0.00215118
0.00189921
0.00154029
0.00101735
0.000176339
0.000198211
0.00132086
0.00203894
0.00247717
0.00274713
0.00290801
0.00299827
0.00304406
0.00306148
0.0030581
0.00303432
0.00298416
0.00289544
0.00275038
0.00252746
0.00220431
0.00175572
0.00112686
0.000183032
0.000217314
0.00150765
0.00235224
0.00286241
0.00317872
0.00336947
0.00347774
0.00353305
0.0035537
0.00354822
0.0035167
0.00345156
0.00333801
0.00315507
0.00287847
0.00248462
0.00194945
0.00122118
0.000188494
0.000255474
0.00174961
0.00269837
0.00325997
0.00361178
0.00382703
0.00395089
0.00401463
0.00403783
0.00402948
0.00398906
0.00390738
0.00376724
0.00354508
0.00321471
0.002752
0.00213342
0.00130848
0.000193143
0.000450785
0.000387195
0.000344346
0.000315957
0.00029696
0.000284002
0.000275004
0.000268694
0.000264291
0.000261312
0.000259465
0.00025858
0.00025858
0.000431706
0.00139047
0.00230305
0.00296365
0.00336142
0.00349704
0.00336798
0.00296067
0.00224029
0.00120134
0.000450785
0.000399213
0.000361271
0.000333994
0.000314484
0.00030048
0.00029038
0.000283102
0.000277924
0.000274375
0.000272155
0.000271086
0.000271086
0.000468432
0.00150082
0.0025317
0.00331835
0.00383113
0.00406646
0.00403024
0.00373654
0.00321015
0.00251055
0.000450785
0.00040801
0.000374623
0.000349178
0.000330023
0.000315684
0.000304998
0.000297101
0.000291378
0.000287403
0.000284894
0.00028368
0.00028368
0.000498342
0.00157626
0.00268907
0.00357631
0.0041953
0.00453899
0.00461935
0.00446754
0.00413574
0.00370664
0.000450785
0.000414732
0.000385377
0.000362021
0.000343728
0.00032956
0.0003187
0.000310493
0.000304444
0.000300189
0.000297481
0.000296164
0.000296164
0.000524064
0.00163156
0.00280263
0.003769
0.00448062
0.0049281
0.00512598
0.00511163
0.00494302
0.00469607
0.000450785
0.000420036
0.000394197
0.000372955
0.000355794
0.000342129
0.000331403
0.00032314
0.000316955
0.000312556
0.000309733
0.000308354
0.000308354
0.000546824
0.00167357
0.00288604
0.00391317
0.00470099
0.00523859
0.00554043
0.00564354
0.00560192
0.0054779
0.000450785
0.000424322
0.000401534
0.000382319
0.000366408
0.000353449
0.000343075
0.000334949
0.000328785
0.000324355
0.000321493
0.000320089
0.000320089
0.000567247
0.00170623
0.00294755
0.00401974
0.00486675
0.00547646
0.00586188
0.00605683
0.00610839
0.00606654
0.000450785
0.000427844
0.000407703
0.000390374
0.000375737
0.000363594
0.000353712
0.000345862
0.000339838
0.00033547
0.00033263
0.000331232
0.000331232
0.000585677
0.00173207
0.00299285
0.00409716
0.00498759
0.00565102
0.00609855
0.00636008
0.00647597
0.00648661
0.000450785
0.000430773
0.000412925
0.000397318
0.000383923
0.000372641
0.000363332
0.000355849
0.00035005
0.000345813
0.000343043
0.000341674
0.000341674
0.000602315
0.00175285
0.00302623
0.00415247
0.00507312
0.00577411
0.00626472
0.00657137
0.00672899
0.00677116
0.000450785
0.000433226
0.000417363
0.000403308
0.000391086
0.000380662
0.000371963
0.0003649
0.000359381
0.000355322
0.000352655
0.000351333
0.000351333
0.000617292
0.00176984
0.00305102
0.00419166
0.00513233
0.00585815
0.00637687
0.00671228
0.0068954
0.00695533
0.000450785
0.000435287
0.000421139
0.000408466
0.000397326
0.000387727
0.000379641
0.00037302
0.000367809
0.000363956
0.000361413
0.000360151
0.000360151
0.000630704
0.00178401
0.00306983
0.00421964
0.00517306
0.00591447
0.00645054
0.00680324
0.00700108
0.00707038
0.000450785
0.00043702
0.000424344
0.000412888
0.000402728
0.000393899
0.000386403
0.000380222
0.000375329
0.000371693
0.000369287
0.000368089
0.000368089
0.000642642
0.00179608
0.00308472
0.00424038
0.00520173
0.00595249
0.00649866
0.00686109
0.00706685
0.00714069
0.000450785
0.000438472
0.000427052
0.000416653
0.000407365
0.000399236
0.00039229
0.000386529
0.000381947
0.000378528
0.000376259
0.000375127
0.000375127
0.000653213
0.00180676
0.00309747
0.00425722
0.00522356
0.00597968
0.0065312
0.0068985
0.00710794
0.00718353
0.000450785
0.000439679
0.000429317
0.000419826
0.000411297
0.000403789
0.00039734
0.000391967
0.000387675
0.000384463
0.000382325
0.000381258
0.000381258
0.000662586
0.00181685
0.00311001
0.00427334
0.00524312
0.00600205
0.00655572
0.00692459
0.00713489
0.0072104
0.000450785
0.00044067
0.000431186
0.000422457
0.000414575
0.000407605
0.000401592
0.000396563
0.000392533
0.000389508
0.000387492
0.000386484
0.000386484
0.000671084
0.00182765
0.00312495
0.00429261
0.00526516
0.00602499
0.00657822
0.00694594
0.00715482
0.00722873
0.000450785
0.000441465
0.000432694
0.000424589
0.000417243
0.000410723
0.000405079
0.000400344
0.00039654
0.000393679
0.000391768
0.000390812
0.000390813
0.000679411
0.00184161
0.00314673
0.00432069
0.00529565
0.00605422
0.00660402
0.00696764
0.00717267
0.0072433
0.000450785
0.000442083
0.000433869
0.000426257
0.000419336
0.000413177
0.000407831
0.000403336
0.000399717
0.00039699
0.000395168
0.000394255
0.000394256
0.000689241
0.00186389
0.00318372
0.00436693
0.00534301
0.00609655
0.00663845
0.00699395
0.00719202
0.00725727
0.000450785
0.000442536
0.000434733
0.000427485
0.000420882
0.000414994
0.000409873
0.000405559
0.000402081
0.000399459
0.000397704
0.000396825
0.000396825
0.00070502
0.00190655
0.00325261
0.00444708
0.00541933
0.00616029
0.006687
0.00702856
0.00721555
0.00727272
0.000450785
0.000442833
0.0004353
0.000428293
0.000421901
0.000416193
0.000411223
0.000407032
0.000403649
0.000401096
0.000399387
0.000398531
0.000398531
0.000740881
0.00200177
0.00338792
0.00458682
0.00554055
0.00625445
0.00675462
0.00707428
0.007245
0.00729088
0.000450785
0.00044298
0.000435581
0.000428695
0.000422408
0.00041679
0.000411895
0.000407765
0.000404431
0.000401913
0.000400227
0.000399382
0.000399382
0.00085981
0.00224711
0.00365802
0.00482168
0.00572284
0.00638587
0.00684404
0.00713223
0.00728095
0.00731219
0.000450785
0.00044298
0.000435581
0.000428695
0.000422408
0.00041679
0.000411895
0.000407765
0.000404431
0.000401913
0.000400227
0.000399382
0.000641432
0.00164128
0.00293485
0.00415677
0.00517651
0.00597063
0.00655361
0.00695348
0.00720098
0.00732253
0.00733624
0.000203577
0.000449666
0.000559264
0.000620633
0.00065613
0.000676247
0.000687298
0.000693831
0.00070007
0.000712158
0.000745381
0.000863621
0.00164436
0.00268099
0.00376515
0.00476191
0.00560096
0.00625985
0.00674467
0.00707559
0.00727641
0.00736749
0.0073619
0.000160686
0.000862186
0.00122457
0.00144483
0.00159063
0.00168936
0.00175697
0.00180587
0.00184865
0.00190296
0.00200499
0.00225461
0.00294132
0.00376872
0.00461029
0.00538379
0.0060399
0.00655853
0.00694091
0.00720018
0.0073529
0.00741285
0.00738767
0.000168344
0.00115072
0.00179781
0.00222632
0.0025281
0.00274433
0.00290001
0.00301583
0.00311329
0.0032197
0.00337758
0.0036602
0.00416274
0.00476753
0.00538708
0.00596054
0.0064502
0.00683901
0.00712559
0.00731755
0.00742502
0.00745567
0.00741204
0.000175695
0.00131724
0.00218416
0.00280687
0.00327011
0.00361591
0.00387232
0.00406475
0.0042203
0.00437027
0.00455271
0.00481195
0.00517846
0.00560726
0.00604646
0.0064546
0.00680446
0.00708278
0.00728701
0.00742069
0.00748876
0.00749376
0.00743387
0.000180561
0.0014193
0.00243811
0.00321422
0.00381778
0.00428367
0.00463696
0.00490323
0.00511115
0.00529213
0.00547863
0.00569951
0.00596832
0.00626775
0.00657023
0.00685046
0.00709061
0.00728122
0.00741945
0.00750605
0.007542
0.00752591
0.00745253
0.000183673
0.00148341
0.00260338
0.00349085
0.00420401
0.00476892
0.00520481
0.00553435
0.00578505
0.00598693
0.00616879
0.00635341
0.00655175
0.00675923
0.00696316
0.00714989
0.00730891
0.007434
0.00752247
0.0075732
0.00758445
0.00755195
0.00746795
0.000185613
0.00152331
0.00270868
0.00367252
0.00446503
0.00510476
0.00560486
0.00598395
0.00626722
0.00648307
0.00665842
0.00681444
0.00696336
0.00710771
0.00724375
0.00736553
0.00746766
0.00754637
0.00759925
0.00762404
0.0076172
0.00757254
0.00748056
0.000186786
0.00154753
0.00277389
0.00378774
0.00463441
0.00532696
0.00587346
0.0062887
0.00659547
0.00682073
0.00699063
0.0071264
0.00724219
0.0073449
0.00743618
0.00751488
0.00757895
0.00762633
0.0076549
0.00766176
0.00764225
0.00758892
0.00749116
0.000187475
0.00156187
0.00281319
0.00385863
0.00474061
0.00546856
0.00604679
0.00648704
0.00681007
0.00704179
0.00720805
0.00733063
0.00742528
0.00750165
0.0075646
0.00761588
0.00765553
0.00768259
0.0076952
0.00769013
0.00766205
0.00760276
0.00750095
0.000187874
0.00157023
0.00283656
0.00390156
0.00480601
0.00555696
0.00615614
0.00661311
0.00694715
0.00718341
0.00734767
0.00746224
0.00754404
0.0076044
0.00765007
0.00768452
0.00770905
0.00772338
0.00772586
0.00771309
0.00767937
0.00761609
0.00751149
0.000188113
0.00157528
0.00285089
0.00392829
0.00484723
0.0056132
0.00622621
0.00669432
0.00703581
0.00727538
0.0074388
0.00754884
0.00762315
0.00767412
0.0077096
0.00773403
0.00774945
0.00775603
0.00775224
0.00773463
0.00769731
0.00763139
0.00752492
0.000188282
0.00157885
0.00286107
0.00394731
0.00487649
0.00565299
0.00627562
0.00675147
0.0070982
0.00734028
0.00750358
0.0076112
0.00768131
0.00772692
0.00775651
0.00777511
0.00778517
0.00778713
0.00777956
0.00775897
0.00771939
0.00765181
0.00754413
0.000188455
0.00158242
0.00287105
0.0039654
0.0049035
0.00568867
0.00631885
0.00680054
0.00715114
0.00739514
0.00755861
0.00766494
0.00773269
0.00777524
0.00780147
0.00781671
0.00782367
0.00782293
0.00781313
0.00779079
0.00774988
0.00768135
0.00757305
0.000188717
0.00158768
0.00288504
0.00398949
0.00493758
0.00573147
0.00636845
0.00685485
0.00720825
0.00745346
0.00761691
0.00772234
0.00778858
0.00782927
0.0078535
0.00786678
0.00787195
0.00786967
0.00785864
0.00783539
0.0077939
0.00772511
0.00761691
0.000189212
0.00159724
0.00290921
0.00402882
0.00499014
0.00579398
0.00643736
0.00692717
0.00728181
0.00752692
0.0076895
0.00779368
0.00785851
0.00789777
0.00792063
0.00793268
0.0079368
0.00793372
0.00792215
0.00789868
0.00785735
0.00778918
0.00768216
0.000190216
0.00161593
0.00295406
0.00409795
0.00507759
0.00589254
0.00654076
0.00703106
0.00738386
0.00762621
0.00778602
0.00788774
0.00795056
0.00798822
0.00800984
0.00802097
0.00802446
0.00802105
0.00800952
0.00798655
0.00794632
0.00788006
0.00777601
0.000192307
0.00165302
0.00303842
0.00422097
0.00522466
0.00604943
0.00669713
0.00718127
0.00752601
0.0077607
0.00791422
0.00801122
0.00807069
0.00810607
0.00812618
0.0081364
0.00813946
0.0081361
0.00812516
0.00810352
0.00806565
0.0080032
0.00790493
0.000196673
0.0017257
0.00319515
0.00443681
0.00546759
0.00629366
0.00692752
0.00739211
0.0077177
0.00793654
0.00807821
0.00816696
0.00822097
0.00825288
0.00827092
0.00828002
0.00828272
0.0082797
0.00826994
0.00825062
0.00821672
0.00816063
0.00807206
0.000205643
0.00186265
0.00347851
0.00480501
0.00585531
0.00665858
0.00725151
0.00767332
0.0079624
0.0081535
0.00827568
0.0083515
0.0083973
0.00842421
0.00843935
0.00844699
0.00844929
0.00844686
0.00843884
0.00842288
0.00839475
0.008348
0.00827387
0.00022371
0.00210612
0.00397756
0.00541254
0.00644573
0.00717322
0.00767849
0.00802317
0.00825276
0.00840163
0.00849555
0.00855329
0.00858794
0.0086082
0.00861958
0.00862533
0.00862712
0.00862541
0.00861959
0.00860791
0.00858719
0.0085526
0.0084975
0.000265614
0.00254354
0.00487693
0.00639155
0.00729312
0.00784426
0.0081944
0.00842093
0.00856716
0.00866019
0.0087182
0.0087536
0.00877475
0.00878708
0.00879401
0.00879753
0.00879867
0.00879772
0.00879432
0.00878744
0.00877516
0.00875454
0.00872153
0.000417087
0.00368413
0.00676535
0.00794874
0.0084058
0.0086243
0.00874793
0.00882393
0.00887187
0.00890203
0.00892074
0.00893212
0.00893892
0.00894289
0.00894512
0.00894626
0.00894665
0.00894638
0.00894534
0.00894321
0.00893937
0.00893288
0.00892229
0.00023595
0.000215842
0.000216071
0.000236727
0.00194831
0.00184612
0.00185065
0.00195676
0.0034188
0.00332261
0.00333423
0.0034466
0.00452558
0.00446324
0.00448114
0.00457223
0.00537329
0.00533562
0.00535809
0.00543445
0.00600135
0.00597879
0.00600451
0.00607272
0.00644345
0.00642898
0.00645701
0.00652172
0.0067389
0.00672807
0.00675775
0.00682177
0.00692767
0.00691811
0.00694895
0.00701357
0.00704423
0.00703491
0.00706648
0.00713203
0.00711471
0.00710521
0.00713719
0.0072035
0.00715712
0.00714729
0.0071794
0.00724614
0.00718318
0.00717287
0.00720484
0.0072717
0.00720022
0.00718923
0.00722079
0.00728746
0.00721282
0.00720081
0.00723166
0.00729785
0.00722387
0.00721037
0.00724015
0.00730556
0.00723517
0.00721961
0.00724787
0.00731217
0.00724779
0.00722948
0.00725575
0.0073186
0.00726212
0.0072404
0.00726421
0.00732528
0.00727799
0.00725231
0.00727328
0.0073323
0.00729475
0.00726479
0.00728271
0.00733953
0.00731153
0.00727725
0.00729209
0.0073467
0.00732742
0.00728906
0.00730099
0.00735352
0.00734173
0.00729975
0.00730909
0.00735976
0.00735411
0.00730908
0.00731624
0.00736531
0.00736452
0.00731706
0.00732246
0.00737025
0.00737331
0.00732398
0.00732801
0.0073748
0.00738111
0.00733039
0.00733341
0.00737944
0.00738889
0.00733717
0.00733943
0.00738491
0.00739803
0.00734559
0.00734731
0.00739238
0.0074105
0.00735755
0.00735887
0.00740362
0.00742911
0.00737581
0.00737682
0.0074213
0.00745782
0.00740434
0.00740509
0.00744927
0.00750204
0.00744861
0.00744915
0.0074929
0.00756868
0.00751575
0.0075161
0.00755916
0.0076657
0.00761406
0.00761428
0.00765611
0.00780067
0.00775165
0.00775183
0.00779152
0.00797802
0.0079336
0.00793382
0.00796995
0.0081952
0.00815783
0.00815816
0.00818884
0.00843929
0.00841148
0.00841186
0.00843503
0.00868715
0.00867059
0.0086709
0.00868498
0.0089115
0.00890648
0.00890665
0.00891131
0.00128871
0.00247356
0.00334878
0.00393836
0.00432575
0.00457009
0.00471423
0.00478931
0.00481522
0.00480065
0.00474371
0.00463257
0.0044468
0.00416001
0.00374451
0.0031757
0.00242811
0.0014459
0.000199507
0.00261086
0.00348774
0.00421103
0.0047518
0.00513109
0.00538083
0.00553235
0.0056114
0.00563483
0.00560888
0.00552875
0.00537911
0.00513598
0.00477067
0.0042555
0.00356811
0.00268608
0.00155884
0.000204889
0.00383258
0.00445357
0.00501589
0.00546919
0.00580446
0.00603334
0.00617493
0.00624742
0.00626259
0.00622283
0.00611972
0.00593447
0.00564022
0.00520705
0.00460876
0.00382724
0.0028464
0.00162453
0.000208098
0.0048492
0.0052983
0.00572235
0.00608026
0.00635492
0.00654727
0.00666711
0.00672535
0.00672821
0.00667362
0.00654945
0.0063337
0.00599731
0.00550994
0.00484744
0.0039963
0.00294666
0.00166387
0.000210014
0.00565443
0.00598972
0.0063052
0.00657643
0.00678872
0.00693926
0.00703209
0.0070723
0.00706108
0.00699215
0.00684994
0.00660974
0.00624084
0.0057129
0.00500381
0.00410399
0.00300846
0.00168734
0.000211145
0.00626156
0.00652305
0.00675874
0.00695952
0.00711681
0.00722791
0.0072939
0.00731582
0.00729084
0.00720919
0.00705242
0.00679367
0.00640105
0.00584434
0.00510313
0.00417081
0.00304579
0.00170112
0.000211799
0.00669588
0.00691213
0.00709289
0.00724116
0.00735484
0.00743307
0.00747578
0.00748148
0.00744446
0.00735232
0.00718439
0.00691221
0.00650305
0.00592685
0.00516442
0.00421119
0.00306782
0.00170905
0.00021217
0.00699118
0.00718178
0.0073271
0.00743898
0.00752084
0.00757406
0.00759845
0.00759108
0.00754438
0.00744409
0.00726797
0.00698643
0.00656616
0.00597723
0.00520126
0.00423502
0.00308053
0.00171351
0.000212376
0.0071831
0.00736036
0.00748414
0.00757233
0.00763248
0.00766798
0.00767899
0.00766186
0.00760787
0.00750155
0.00731965
0.00703179
0.00660428
0.00600727
0.00522291
0.00424878
0.00308772
0.00171597
0.000212488
0.00730332
0.00747417
0.00758551
0.00765906
0.00770518
0.00772885
0.00773063
0.00770661
0.00764742
0.00753686
0.00735099
0.00705897
0.00662685
0.00602483
0.00523539
0.00425658
0.00309171
0.00171731
0.000212548
0.00737656
0.00754451
0.00764892
0.00771377
0.00775123
0.00776733
0.00776305
0.0077344
0.00767166
0.0075582
0.0073697
0.00707499
0.00664
0.00603493
0.00524246
0.00426093
0.00309389
0.00171803
0.000212579
0.0074204
0.007587
0.00768761
0.00774744
0.00777971
0.00779115
0.00778305
0.0077514
0.00768632
0.00757094
0.00738072
0.00708432
0.00664756
0.00604066
0.00524642
0.00426333
0.00309507
0.0017184
0.000212596
0.0074465
0.00761234
0.00771082
0.00776777
0.007797
0.00780565
0.00779518
0.00776164
0.00769506
0.00757846
0.00738715
0.00708969
0.00665185
0.00604388
0.00524861
0.00426463
0.0030957
0.0017186
0.000212604
0.00746224
0.00762744
0.00772462
0.0077799
0.00780735
0.00781433
0.00780244
0.00776774
0.00770023
0.00758286
0.00739086
0.00709275
0.00665427
0.00604567
0.00524981
0.00426533
0.00309603
0.0017187
0.000212609
0.00747214
0.00763661
0.00773288
0.00778711
0.0078135
0.00781949
0.00780675
0.00777134
0.00770326
0.0075854
0.00739298
0.00709448
0.00665562
0.00604665
0.00525046
0.00426571
0.00309621
0.00171875
0.000212611
0.00747892
0.00764247
0.00773795
0.00779145
0.00781715
0.00782254
0.00780928
0.00777345
0.00770501
0.00758686
0.00739419
0.00709545
0.00665637
0.00604719
0.00525081
0.0042659
0.0030963
0.00171878
0.000212612
0.00748418
0.00764657
0.00774124
0.00779414
0.00781936
0.00782436
0.00781077
0.00777468
0.00770602
0.0075877
0.00739487
0.00709599
0.00665678
0.00604748
0.005251
0.00426601
0.00309635
0.00171879
0.000212613
0.00748884
0.00764979
0.00774359
0.00779592
0.00782075
0.00782546
0.00781166
0.00777539
0.00770661
0.00758817
0.00739525
0.00709629
0.00665701
0.00604764
0.0052511
0.00426606
0.00309637
0.0017188
0.000212613
0.00749336
0.00765261
0.00774545
0.00779721
0.00782168
0.00782616
0.0078122
0.00777582
0.00770695
0.00758845
0.00739547
0.00709646
0.00665713
0.00604772
0.00525115
0.00426609
0.00309638
0.0017188
0.000212613
0.00749792
0.00765528
0.00774706
0.00779823
0.00782237
0.00782664
0.00781255
0.00777608
0.00770715
0.00758861
0.0073956
0.00709656
0.0066572
0.00604777
0.00525118
0.00426611
0.00309639
0.00171881
0.000212613
0.00750251
0.00765787
0.00774855
0.00779911
0.00782292
0.007827
0.0078128
0.00777626
0.00770729
0.00758871
0.00739567
0.00709662
0.00665724
0.0060478
0.0052512
0.00426612
0.00309639
0.00171881
0.000212613
0.00750703
0.00766037
0.00774995
0.00779992
0.0078234
0.0078273
0.007813
0.00777641
0.0077074
0.00758879
0.00739574
0.00709666
0.00665728
0.00604782
0.00525121
0.00426612
0.0030964
0.00171881
0.000212613
0.00751133
0.00766276
0.00775129
0.0078007
0.00782386
0.0078276
0.0078132
0.00777656
0.00770751
0.00758888
0.00739581
0.00709671
0.00665731
0.00604785
0.00525123
0.00426613
0.0030964
0.00171881
0.000212613
0.00751531
0.007665
0.00775259
0.00780147
0.00782436
0.00782794
0.00781345
0.00777675
0.00770767
0.00758901
0.00739591
0.00709679
0.00665737
0.00604789
0.00525125
0.00426614
0.0030964
0.00171881
0.000212613
0.00751893
0.00766714
0.00775389
0.00780232
0.00782495
0.00782838
0.00781381
0.00777705
0.00770792
0.00758923
0.00739609
0.00709694
0.00665748
0.00604796
0.00525129
0.00426617
0.00309641
0.00171881
0.000212613
0.00752229
0.00766926
0.00775531
0.00780335
0.00782575
0.00782905
0.00781439
0.00777756
0.00770838
0.00758963
0.00739643
0.00709721
0.00665769
0.0060481
0.00525138
0.00426621
0.00309643
0.00171882
0.000212613
0.00752561
0.00767159
0.00775708
0.00780478
0.00782698
0.00783015
0.00781538
0.00777847
0.0077092
0.00759036
0.00739706
0.00709773
0.00665809
0.00604839
0.00525156
0.00426631
0.00309647
0.00171883
0.000212614
0.0075293
0.00767451
0.00775955
0.00780697
0.00782899
0.00783201
0.00781713
0.0077801
0.0077107
0.00759171
0.00739824
0.00709871
0.00665886
0.00604894
0.00525191
0.0042665
0.00309655
0.00171885
0.000212615
0.00753406
0.00767869
0.00776337
0.00781055
0.00783238
0.00783524
0.0078202
0.00778299
0.00771339
0.00759416
0.0074004
0.00710054
0.00666031
0.00605
0.0052526
0.00426688
0.00309672
0.00171889
0.000212616
0.00754099
0.00768518
0.00776955
0.0078165
0.00783813
0.00784079
0.00782553
0.00778807
0.00771816
0.00759856
0.00740434
0.00710393
0.00666305
0.00605204
0.00525396
0.00426765
0.00309706
0.00171899
0.00021262
0.00755179
0.00769558
0.00777969
0.0078264
0.00784779
0.00785019
0.00783463
0.00779681
0.00772647
0.00760631
0.00741138
0.00711008
0.00666813
0.00605592
0.0052566
0.00426919
0.00309776
0.00171919
0.000212628
0.007569
0.00771237
0.00779616
0.00784259
0.00786369
0.00786577
0.00784983
0.00781155
0.00774061
0.00761968
0.00742373
0.00712108
0.00667743
0.0060632
0.00526173
0.00427227
0.00309921
0.00171961
0.000212645
0.00759631
0.00773904
0.00782239
0.00786845
0.0078892
0.00789089
0.00787451
0.00783569
0.00776405
0.00764216
0.00744486
0.00714033
0.00669415
0.00607673
0.00527159
0.00427842
0.00310221
0.00172051
0.000212682
0.00763877
0.00778034
0.00786296
0.00790849
0.0079288
0.00793009
0.0079133
0.00787398
0.00780169
0.00767883
0.00748004
0.00717322
0.00672362
0.00610147
0.0052904
0.00429071
0.00310849
0.00172247
0.000212763
0.00770277
0.00784213
0.00792342
0.00796812
0.00798792
0.00798889
0.00797187
0.00793238
0.00785983
0.00773647
0.00753662
0.00722768
0.00677426
0.0061459
0.00532594
0.00431527
0.00312177
0.0017268
0.000212945
0.00779548
0.00793069
0.00800956
0.00805292
0.00807209
0.00807293
0.00805617
0.00801724
0.00794551
0.00782307
0.00762386
0.00731457
0.00685859
0.00622389
0.00539229
0.00436438
0.00315027
0.00173667
0.000213368
0.00792331
0.00805112
0.00812575
0.00816689
0.00818522
0.00818626
0.00817054
0.00813352
0.00806465
0.00794605
0.00775147
0.00744678
0.00699359
0.00635673
0.00551396
0.00446235
0.00321252
0.00176008
0.000214397
0.00808918
0.00820479
0.00827247
0.00831
0.00832707
0.00832859
0.00831495
0.00828174
0.00821884
0.00810897
0.00792629
0.00763638
0.00719891
0.00657398
0.00573095
0.00465578
0.00335051
0.00181842
0.000217061
0.0082891
0.00838641
0.0084436
0.00847561
0.00849062
0.0084927
0.00848206
0.00845476
0.00840171
0.00830719
0.00814723
0.00788882
0.00749116
0.00690947
0.00610044
0.00502618
0.00365509
0.00197074
0.000224637
0.00850968
0.0085824
0.00862536
0.00864967
0.00866145
0.00866372
0.00865656
0.00863682
0.00859728
0.00852523
0.00840086
0.00819594
0.0078734
0.00738777
0.00668376
0.00568747
0.00428889
0.00236171
0.000250378
0.00872937
0.00877298
0.00879888
0.00881367
0.00882103
0.00882277
0.00881888
0.00880738
0.00878367
0.00873961
0.0086622
0.00853235
0.00832366
0.00799999
0.00750588
0.00673001
0.00541136
0.003134
0.000383339
0.00892519
0.00893885
0.00894701
0.0089517
0.00895406
0.00895467
0.00895351
0.00894993
0.00894241
0.00892827
0.00890316
0.0088606
0.00879144
0.008682
0.00850362
0.00814981
0.00710818
0.00393475
0.000517273
)
;

boundaryField
{
    leftWall
    {
        type            nutkWallFunction;
        blending        stepwise;
        value           nonuniform List<scalar> 
50
(
0
0
0
0
0
0
0
0
0
0
0
0
0
0
0
0
0
0
0
0
0
0
0
0
0
0
0
5.36008e-05
2.21276e-05
1.74127e-05
1.84764e-05
1.93728e-05
1.99258e-05
2.02553e-05
2.04469e-05
2.05553e-05
2.06153e-05
2.0648e-05
2.06665e-05
2.06789e-05
2.06913e-05
2.07106e-05
2.07483e-05
2.08284e-05
2.10035e-05
2.1392e-05
2.22565e-05
2.42049e-05
2.94009e-05
4.92547e-05
)
;
    }
    rightWall
    {
        type            nutkWallFunction;
        blending        stepwise;
        value           nonuniform List<scalar> 
50
(
9.17974e-06
1.49214e-05
1.74876e-05
1.91575e-05
2.03483e-05
2.12447e-05
2.1945e-05
2.25128e-05
2.32567e-05
2.38398e-05
2.41637e-05
2.43449e-05
2.44456e-05
2.45008e-05
2.45306e-05
2.45464e-05
2.45546e-05
2.45589e-05
2.4561e-05
2.45621e-05
2.45627e-05
2.4563e-05
2.45631e-05
2.45632e-05
2.45632e-05
2.45632e-05
2.45632e-05
2.45632e-05
2.45632e-05
2.45632e-05
2.45632e-05
2.45632e-05
2.45632e-05
2.45633e-05
2.45633e-05
2.45633e-05
2.45634e-05
2.45636e-05
2.45641e-05
2.4565e-05
2.45671e-05
2.45718e-05
2.45825e-05
2.46078e-05
2.46697e-05
2.48311e-05
2.52889e-05
2.67888e-05
3.34864e-05
5.48355e-05
)
;
    }
    lowerWall
    {
        type            nutkWallFunction;
        blending        stepwise;
        value           nonuniform List<scalar> 
62
(
0
0
0
0
0
0
0
0
0
0
0
0
2.16739e-05
0
0
1.01752e-06
1.56486e-06
1.79039e-06
1.75496e-06
1.43389e-06
7.01809e-07
0
0
0
1.14453e-05
1.41864e-05
1.60049e-05
1.747e-05
1.89517e-05
2.11191e-05
2.58507e-05
2.74757e-05
2.44179e-05
2.44239e-05
2.74821e-05
0
1.47083e-05
1.77168e-05
1.97032e-05
2.13179e-05
2.29933e-05
2.54802e-05
3.06595e-05
0
0
1.0013e-06
1.74861e-06
2.13863e-06
2.33987e-06
2.43981e-06
2.48621e-06
2.50401e-06
2.50417e-06
2.48833e-06
2.45027e-06
2.37472e-06
2.23404e-06
1.98218e-06
1.5426e-06
7.73292e-07
0
0
)
;
    }
    atmosphere
    {
        type            calculated;
        value           uniform 0.009;
    }
    defaultFaces
    {
        type            empty;
    }
}


// ************************************************************************* //
