/*--------------------------------*- C++ -*----------------------------------*\
| =========                 |                                                 |
| \\      /  F ield         | OpenFOAM: The Open Source CFD Toolbox           |
|  \\    /   O peration     | Version:  2406                                  |
|   \\  /    A nd           | Website:  www.openfoam.com                      |
|    \\/     M anipulation  |                                                 |
\*---------------------------------------------------------------------------*/
FoamFile
{
    version     2.0;
    format      ascii;
    arch        "LSB;label=32;scalar=64";
    class       surfaceScalarField;
    location    "0.25";
    object      phi;
}
// * * * * * * * * * * * * * * * * * * * * * * * * * * * * * * * * * * * * * //

dimensions      [0 3 -1 0 0 0 0];

oriented        oriented;

internalField   nonuniform List<scalar> 
4432
(
-9.99208e-305
-5.58773e-305
-2.07419e-304
-2.63636e-304
-3.38276e-304
-3.88015e-304
-5.04295e-304
-4.56623e-304
-7.17658e-304
-4.41586e-304
-9.88068e-304
-2.70606e-304
-1.31989e-303
1.85118e-304
-1.70528e-303
1.14099e-303
-2.10483e-303
2.95048e-303
-2.36489e-303
6.2226e-303
-1.74761e-303
1.21165e-302
3.44075e-303
2.30913e-302
4.74446e-303
4.51824e-302
-3.54424e-303
1.02897e-302
-2.49317e-303
1.74159e-304
-1.10613e-303
-9.72361e-304
-4.93975e-304
-6.80632e-304
-2.25679e-304
-3.4405e-304
-1.03852e-304
-1.40285e-304
-4.63095e-305
-4.10232e-305
-1.8498e-305
-1.14021e-306
-5.23746e-306
9.11108e-306
5.10464e-306
-3.16049e-304
-1.02715e-304
-6.50064e-304
-4.78932e-304
-1.05124e-303
-7.10353e-304
-1.55795e-303
-8.23135e-304
-2.20466e-303
-7.57916e-304
-3.018e-303
-3.72344e-304
-4.00767e-303
5.86957e-304
-5.14641e-303
2.53534e-303
-6.3227e-303
6.14716e-303
-7.20908e-303
1.25377e-302
-6.68857e-303
2.3703e-302
-5.72588e-303
4.38142e-302
7.23633e-304
7.65956e-302
-6.37974e-303
1.54886e-302
-3.83318e-303
1.21464e-303
-1.91225e-303
-7.12958e-304
-9.37522e-304
-6.5157e-304
-4.59892e-304
-3.55804e-304
-2.25008e-304
-1.44969e-304
-1.07308e-304
-3.45268e-305
-4.72313e-305
1.14638e-305
-1.57817e-305
2.27458e-305
1.40702e-305
-5.45317e-304
-1.56077e-304
-1.12617e-303
-6.88995e-304
-1.82121e-303
-1.01975e-303
-2.6964e-303
-1.16327e-303
-3.81177e-303
-1.027e-303
-5.21594e-303
-3.98462e-304
-6.933e-303
1.09319e-303
-8.93555e-303
4.05187e-303
-1.10897e-302
9.4389e-303
-1.30401e-302
1.88096e-302
-1.36857e-302
3.48078e-302
-1.74782e-302
6.2419e-302
-4.30411e-303
1.03543e-301
-8.59381e-303
1.94897e-302
-4.84859e-303
2.24944e-303
-2.54666e-303
-3.60634e-304
-1.31627e-303
-5.44058e-304
-6.76536e-304
-3.2287e-304
-3.45403e-304
-1.28099e-304
-1.72417e-304
-1.84115e-305
-8.0688e-305
2.87967e-305
-2.98491e-305
4.0135e-305
2.73649e-305
-8.03738e-304
-2.12568e-304
-1.66462e-303
-9.05516e-304
-2.69034e-303
-1.33188e-303
-3.97622e-303
-1.49394e-303
-5.61084e-303
-1.26339e-303
-7.66963e-303
-3.59709e-304
-1.01996e-302
1.70117e-303
-1.31901e-302
5.6946e-303
-1.65206e-302
1.2839e-302
-1.98754e-302
2.50559e-302
-2.22533e-302
4.54709e-302
-3.09501e-302
7.93703e-302
-1.0227e-302
1.26735e-301
-1.09466e-302
2.34574e-302
-5.92501e-303
3.30613e-303
-3.19129e-303
1.55704e-305
-1.70989e-303
-4.05984e-304
-9.1226e-304
-2.68725e-304
-4.83487e-304
-9.94282e-305
-2.51541e-304
3.98215e-306
-1.243e-304
5.00923e-305
-5.00701e-305
6.15106e-305
4.62429e-305
-1.10693e-303
-2.73435e-304
-2.29497e-303
-1.13929e-303
-3.70242e-303
-1.66238e-303
-5.4559e-303
-1.83231e-303
-7.6753e-303
-1.48402e-303
-1.0467e-302
-2.68816e-304
-1.39078e-302
2.40316e-303
-1.80162e-302
7.46482e-303
-2.27046e-302
1.63556e-302
-2.77164e-302
3.12992e-302
-3.2103e-302
5.57714e-302
-4.56572e-302
9.51887e-302
-1.69079e-302
1.48197e-301
-1.36009e-302
2.75017e-302
-7.15756e-303
4.37747e-303
-3.91162e-303
3.98436e-304
-2.15327e-303
-2.54294e-304
-1.18547e-303
-2.03064e-304
-6.4979e-304
-6.38514e-305
-3.51295e-304
2.99088e-305
-1.82608e-304
7.32676e-305
-7.93963e-305
8.50222e-305
7.04646e-305
-1.47089e-303
-3.41467e-304
-3.04835e-303
-1.39991e-303
-4.90371e-303
-2.02544e-303
-7.19683e-303
-2.19527e-303
-1.00812e-302
-1.70492e-303
-1.36973e-302
-1.3905e-304
-1.81568e-302
3.19313e-303
-2.35151e-302
9.36437e-303
-2.97282e-302
2.00033e-302
-3.65978e-302
3.75699e-302
-4.31659e-302
6.57989e-302
-6.15118e-302
1.10281e-301
-2.43549e-302
1.69387e-301
-1.66152e-302
3.16523e-302
-8.58795e-303
5.4786e-303
-4.747e-303
7.93615e-304
-2.67231e-303
-9.12069e-305
-1.51199e-303
-1.2931e-304
-8.54242e-304
-2.43271e-305
-4.7838e-304
5.65776e-305
-2.60814e-304
9.4976e-305
-1.2229e-304
1.06e-304
9.41605e-305
-1.9126e-303
-4.21901e-304
-3.95814e-303
-1.69628e-303
-6.34385e-303
-2.43612e-303
-9.2643e-303
-2.60108e-303
-1.29085e-302
-1.94507e-303
-1.74533e-302
1.45265e-305
-2.30481e-302
4.06245e-303
-2.97898e-302
1.13967e-302
-3.76839e-302
2.38007e-302
-4.65923e-302
4.39127e-302
-5.55307e-302
7.56475e-302
-7.8695e-302
1.24829e-301
-3.26986e-302
1.90491e-301
-2.00202e-302
3.58217e-302
-1.02557e-302
6.63533e-303
-5.7365e-303
1.21919e-303
-3.29547e-303
8.78654e-305
-1.91059e-303
-4.85074e-305
-1.10903e-303
1.62971e-305
-6.40889e-304
8.03827e-305
-3.65096e-304
1.10254e-304
-1.86058e-304
1.14986e-304
9.22138e-305
-2.45019e-303
-5.20529e-304
-5.06057e-303
-2.03155e-303
-8.07644e-303
-2.90293e-303
-1.17285e-302
-3.06445e-303
-1.62424e-302
-2.22477e-303
-2.18324e-302
1.66252e-304
-2.86868e-302
4.9798e-303
-3.69463e-302
1.3525e-302
-4.66699e-302
2.7706e-302
-5.77895e-302
5.02871e-302
-6.92247e-302
8.52744e-302
-9.76612e-302
1.38549e-301
-4.16696e-302
2.08988e-301
-2.38111e-302
3.98198e-302
-1.21833e-302
7.86453e-303
-6.90785e-303
1.70132e-303
-4.04527e-303
2.94657e-304
-2.3969e-303
4.32173e-305
-1.4241e-303
5.81319e-305
-8.44396e-304
9.94626e-305
-4.97972e-304
1.15626e-304
-2.81258e-304
1.05989e-304
6.36182e-305
-1.626e-310
-1.0406e-309
-1.98976e-310
-7.57369e-309
-9.82107e-311
-5.35724e-309
-9.87479e-311
-1.9991e-309
-8.64177e-311
-4.54298e-310
-5.37294e-311
-2.49325e-311
-2.60503e-311
3.56922e-311
-1.05799e-311
2.31481e-311
-3.76228e-312
9.78728e-312
-1.20446e-312
3.42729e-312
-3.53328e-313
1.07056e-312
-9.5988e-314
3.09286e-313
-2.42657e-314
8.45106e-314
-5.70083e-315
2.21589e-314
-1.2327e-315
5.60283e-315
-2.39346e-316
1.35066e-315
-3.92453e-317
2.98717e-316
-4.51022e-318
5.46668e-317
4.52337e-318
-5.69636e-310
-4.65158e-309
-9.99302e-310
-2.25281e-308
-7.69517e-310
-1.39876e-308
-6.21676e-310
-4.91994e-309
-4.13896e-310
-1.06026e-309
-2.23032e-310
-2.58752e-311
-1.01334e-310
1.08029e-310
-4.02541e-311
6.76156e-311
-1.43467e-311
2.90199e-311
-4.67011e-312
1.04418e-311
-1.40536e-312
3.36552e-312
-3.93962e-313
1.00424e-312
-1.03242e-313
2.83157e-313
-2.52602e-314
7.64641e-314
-5.72221e-315
1.98838e-314
-1.17468e-315
4.94147e-315
-2.07269e-316
1.14021e-315
-2.65769e-317
2.25682e-316
2.28654e-317
-1.75581e-309
-1.79018e-308
-3.36864e-309
-5.88848e-308
-2.76659e-309
-3.18293e-308
-2.02508e-309
-1.03598e-308
-1.20566e-309
-2.07045e-309
-6.02499e-310
2.24798e-311
-2.62178e-310
2.59388e-310
-1.02065e-310
1.56596e-310
-3.62158e-311
6.75156e-311
-1.1865e-311
2.46996e-311
-3.62116e-312
8.13973e-312
-1.03535e-312
2.49119e-312
-2.7802e-313
7.21854e-313
-7.00134e-314
2.00598e-313
-1.64088e-314
5.37697e-314
-3.5102e-315
1.38264e-314
-6.53385e-316
3.33344e-315
-9.04916e-317
7.07382e-316
8.41492e-317
-5.82613e-309
-6.66698e-308
-1.06023e-308
-1.45531e-307
-8.54071e-309
-6.83748e-308
-5.70126e-309
-2.04972e-308
-3.12642e-309
-3.77635e-309
-1.47643e-309
1.80145e-310
-6.20969e-310
5.61482e-310
-2.37666e-310
3.29366e-310
-8.39536e-311
1.42412e-310
-2.76348e-311
5.28043e-311
-8.53227e-312
1.77338e-311
-2.48116e-312
5.55051e-312
-6.80674e-313
1.64903e-312
-1.7587e-313
4.70855e-313
-4.24913e-314
1.29974e-313
-9.42952e-315
3.4544e-314
-1.83891e-315
8.67725e-315
-2.71602e-316
1.95802e-315
2.66953e-316
-2.02796e-308
-2.48206e-307
-3.15823e-308
-3.41502e-307
-2.41989e-308
-1.38948e-307
-1.47831e-308
-3.84379e-308
-7.57272e-309
-6.55306e-309
-3.41967e-309
5.44055e-310
-1.40117e-309
1.12198e-309
-5.29749e-310
6.45787e-310
-1.86763e-310
2.80501e-310
-6.18314e-311
1.0538e-310
-1.9315e-311
3.60268e-311
-5.70987e-312
1.15151e-311
-1.59892e-312
3.50218e-312
-4.23348e-313
1.02582e-312
-1.0527e-313
2.91082e-313
-2.41796e-314
7.97751e-314
-4.92366e-315
2.08036e-314
-7.71265e-316
4.95914e-315
7.67787e-316
-7.40817e-308
-9.05287e-307
-9.08256e-308
-7.55456e-307
-6.38792e-308
-2.65456e-307
-3.58065e-308
-6.82141e-308
-1.72977e-308
-1.08624e-308
-7.53715e-309
1.26423e-309
-3.02929e-309
2.10086e-309
-1.13674e-309
1.19677e-309
-4.01186e-310
5.23655e-310
-1.33819e-310
1.99513e-310
-4.23279e-311
6.9434e-311
-1.2722e-311
2.26507e-311
-3.63505e-312
7.04529e-312
-9.85487e-313
2.11382e-312
-2.51895e-313
6.15258e-313
-5.97812e-314
1.73313e-313
-1.26816e-314
4.66678e-314
-2.10194e-315
1.16193e-314
2.00158e-315
-2.88076e-307
-3.31981e-306
-2.57706e-307
-1.52603e-306
-1.5994e-307
-4.69431e-307
-8.21745e-308
-1.14138e-307
-3.77327e-308
-1.74429e-308
-1.59928e-308
2.41472e-309
-6.34661e-309
3.66115e-309
-2.37543e-309
2.08923e-309
-8.42243e-310
9.25179e-310
-2.83758e-310
3.58208e-310
-9.10378e-311
1.26973e-310
-2.78507e-311
4.22526e-311
-8.12527e-312
1.34195e-311
-2.25612e-312
4.11321e-312
-5.92665e-313
1.22315e-312
-1.45209e-313
3.52098e-313
-3.20269e-314
9.70189e-314
-5.59403e-315
2.48012e-314
4.58566e-315
-1.10076e-306
-7.22581e-306
-6.9775e-307
-2.54751e-306
-3.69547e-307
-7.35917e-307
-1.75508e-307
-1.74426e-307
-7.74525e-308
-2.59539e-308
-3.22108e-308
4.18831e-309
-1.26999e-308
5.94225e-309
-4.7612e-309
3.40678e-309
-1.70059e-309
1.52749e-309
-5.79618e-310
6.00446e-310
-1.88754e-310
2.16351e-310
-5.87759e-311
7.32124e-311
-1.7497e-311
2.36405e-311
-4.96911e-312
7.36064e-312
-1.33855e-312
2.22032e-312
-3.37463e-313
6.47238e-313
-7.70383e-314
1.80253e-313
-1.41494e-314
4.63412e-314
8.61166e-315
-7.29466e-303
-7.71466e-304
-1.50253e-302
-2.81402e-303
-2.38429e-302
-4.02301e-303
-3.43615e-302
-4.24223e-303
-4.71874e-302
-3.08071e-303
-6.29022e-302
1.36078e-304
-8.20391e-302
6.43274e-303
-1.05046e-301
1.72841e-302
-1.32237e-301
3.47535e-302
-1.63732e-301
6.16894e-302
-1.94784e-301
1.02015e-301
-2.7882e-301
1.61018e-301
-1.18198e-301
2.35127e-301
-6.42393e-302
4.65876e-302
-3.2915e-302
1.02549e-302
-1.90193e-302
2.73524e-303
-1.14064e-302
7.68493e-304
-6.93188e-303
2.59475e-304
-4.22384e-303
1.50245e-304
-2.56543e-303
1.28748e-304
-1.54594e-303
1.0754e-304
-9.1184e-304
6.84296e-305
1.13031e-305
-4.40918e-304
-1.02246e-302
-1.08445e-303
-2.10181e-302
-3.75348e-303
-3.3218e-302
-5.43254e-303
-4.76193e-302
-5.87659e-303
-6.50137e-302
-4.60513e-303
-8.61735e-302
-8.46173e-304
-1.11832e-301
6.52702e-303
-1.42661e-301
1.90767e-302
-1.79236e-301
3.89019e-302
-2.22008e-301
6.87585e-302
-2.65049e-301
1.12214e-301
-3.76767e-301
1.7361e-301
-1.67064e-301
2.47546e-301
-8.37288e-302
5.06566e-302
-4.2437e-302
1.19408e-302
-2.46556e-302
3.54917e-303
-1.49582e-302
1.18111e-303
-9.21336e-303
4.62173e-304
-5.6847e-303
2.38138e-304
-3.48082e-303
1.53103e-304
-2.09071e-303
9.72243e-305
-1.19802e-303
4.31717e-305
-8.25466e-306
-5.87458e-304
-1.32122e-302
-1.5192e-303
-2.70977e-302
-5.06345e-303
-4.27051e-302
-7.47106e-303
-6.1019e-302
-8.41535e-303
-8.30247e-302
-7.33759e-303
-1.0969e-301
-3.38918e-303
-1.41948e-301
4.6221e-303
-1.80674e-301
1.82941e-302
-2.26662e-301
3.96919e-302
-2.80592e-301
7.13983e-302
-3.35601e-301
1.16555e-301
-4.73042e-301
1.78622e-301
-2.16191e-301
2.51023e-301
-1.03972e-301
5.26307e-302
-5.21643e-302
1.29167e-302
-3.02248e-302
4.0714e-303
-1.83618e-302
1.47519e-303
-1.13425e-302
6.22401e-304
-7.01503e-303
3.16667e-304
-4.29394e-303
1.83279e-304
-2.56371e-303
1.02173e-304
-1.44809e-303
4.06381e-305
-3.84441e-306
-7.06886e-304
-1.62854e-302
-2.15684e-303
-3.32992e-302
-6.99519e-303
-5.23301e-302
-1.05421e-302
-7.4559e-302
-1.23929e-302
-1.01168e-301
-1.19161e-302
-1.3332e-301
-8.20002e-303
-1.72134e-301
-5.87205e-306
-2.18667e-301
1.42751e-302
-2.7388e-301
3.66526e-302
-3.38603e-301
6.95362e-302
-4.0491e-301
1.15706e-301
-5.67122e-301
1.77974e-301
-2.6436e-301
2.49118e-301
-1.2481e-301
5.32276e-302
-6.22244e-302
1.33564e-302
-3.58982e-302
4.34207e-303
-2.17599e-302
1.65131e-303
-1.3424e-302
7.33929e-304
-8.29026e-303
3.82621e-304
-5.06144e-303
2.19527e-304
-3.00884e-303
1.22294e-304
-1.69034e-303
5.5442e-305
1.20969e-305
-8.25913e-304
-1.94777e-302
-3.09866e-303
-3.96725e-302
-9.85355e-303
-6.21486e-302
-1.5138e-302
-8.82894e-302
-1.84637e-302
-1.1948e-301
-1.91261e-302
-1.57074e-301
-1.6152e-302
-2.02372e-301
-8.26109e-303
-2.56591e-301
6.16712e-303
-3.20832e-301
2.91024e-302
-3.96035e-301
6.28319e-302
-4.73171e-301
1.09896e-301
-6.59583e-301
1.72709e-301
-3.11901e-301
2.43718e-301
-1.46156e-301
5.28592e-302
-7.26317e-302
1.33761e-302
-4.17415e-302
4.39777e-303
-2.52258e-302
1.71588e-303
-1.55217e-302
7.92548e-304
-9.5608e-303
4.29313e-304
-5.82048e-303
2.54855e-304
-3.44987e-303
1.49861e-304
-1.93419e-303
7.88751e-305
3.25433e-305
-9.47181e-304
-2.28324e-302
-4.47211e-303
-4.6287e-302
-1.4019e-302
-7.22492e-302
-2.18729e-302
-1.02316e-301
-2.74477e-302
-1.38085e-301
-2.9954e-302
-1.81108e-301
-2.83517e-302
-2.32864e-301
-2.13096e-302
-2.94725e-301
-7.1783e-303
-3.6792e-301
1.60134e-302
-4.53493e-301
5.05098e-302
-5.41303e-301
9.87505e-302
-7.51764e-301
1.62968e-301
-3.59637e-301
2.35446e-301
-1.68046e-301
5.16186e-302
-8.3386e-302
1.29882e-302
-4.77773e-302
4.23585e-303
-2.8793e-302
1.66055e-303
-1.76698e-302
7.87731e-304
-1.08556e-302
4.45985e-304
-6.59219e-303
2.79005e-304
-3.89919e-303
1.75391e-304
-2.18417e-303
1.02989e-304
5.27801e-305
-1.07154e-303
-2.63991e-302
-6.43927e-303
-5.32223e-302
-1.99703e-302
-8.27396e-302
-3.15209e-302
-1.16781e-301
-4.03773e-302
-1.57175e-301
-4.56469e-302
-2.05687e-301
-4.62074e-302
-2.63983e-301
-4.06638e-302
-3.33592e-301
-2.73074e-302
-4.15875e-301
-4.11158e-303
-5.11981e-301
3.12211e-302
-6.10666e-301
8.11745e-302
-8.4545e-301
1.47989e-301
-4.08691e-301
2.2388e-301
-1.90626e-301
4.93017e-302
-9.45112e-302
1.20889e-302
-5.40191e-302
3.79941e-303
-3.24774e-302
1.45097e-303
-1.9885e-302
6.9651e-304
-1.21893e-302
4.15942e-304
-7.38721e-303
2.79187e-304
-4.36285e-303
1.89044e-304
-2.44258e-303
1.2082e-304
6.90208e-305
-1.1997e-303
-3.02235e-302
-9.20661e-303
-6.05461e-302
-2.83128e-302
-9.37127e-302
-4.50565e-302
-1.31817e-301
-5.85517e-302
-1.76952e-301
-6.77717e-302
-2.3112e-301
-7.14992e-302
-2.9619e-301
-6.82585e-302
-3.73863e-301
-5.62551e-302
-4.65634e-301
-3.33436e-302
-5.72768e-301
2.93089e-303
-6.82924e-301
5.52529e-302
-9.42746e-301
1.26062e-301
-4.60422e-301
2.07592e-301
-2.14131e-301
4.54001e-302
-1.0606e-301
1.0446e-302
-6.04825e-302
2.96686e-303
-3.62864e-302
1.0193e-303
-2.21731e-302
4.79054e-304
-1.35669e-302
3.14606e-304
-8.20896e-303
2.39587e-304
-4.84258e-303
1.80522e-304
-2.70999e-303
1.2603e-304
7.80451e-305
-1.33187e-303
-3.43272e-302
-1.30386e-302
-6.82756e-302
-3.98112e-302
-1.0519e-301
-6.37066e-302
-1.47478e-301
-8.3594e-302
-1.97543e-301
-9.82796e-302
-2.57663e-301
-1.06439e-301
-3.29935e-301
-1.06518e-301
-4.16245e-301
-9.66147e-302
-5.18233e-301
-7.44113e-302
-6.37283e-301
-3.71793e-302
-7.59962e-301
1.81398e-302
-1.04604e-300
9.4417e-302
-5.164e-301
1.84035e-301
-2.38875e-301
3.90454e-302
-1.18105e-301
7.67162e-303
-6.71847e-302
1.53812e-303
-4.02219e-302
2.56654e-304
-2.45327e-302
7.46217e-305
-1.49866e-302
1.07534e-304
-9.05589e-303
1.40424e-304
-5.33708e-303
1.38494e-304
-2.9854e-303
1.12424e-304
7.69628e-305
-1.46758e-303
-3.86796e-302
-1.82756e-302
-7.63166e-302
-5.54375e-302
-1.17036e-301
-8.9012e-302
-1.63629e-301
-1.17522e-301
-2.18881e-301
-1.39565e-301
-2.85389e-301
-1.53724e-301
-3.65512e-301
-1.58395e-301
-4.61338e-301
-1.51583e-301
-5.74663e-301
-1.30751e-301
-7.06992e-301
-9.27885e-302
-8.43798e-301
-3.40585e-302
-1.15797e-300
4.90336e-302
-5.78386e-301
1.49255e-301
-2.65223e-301
2.89002e-302
-1.3073e-301
3.18107e-303
-7.41384e-302
-7.83295e-304
-4.4279e-302
-9.94641e-304
-2.69557e-302
-6.01646e-304
-1.64414e-302
-2.50943e-304
-9.92279e-303
-4.27467e-305
-5.84279e-303
5.00784e-305
-3.26663e-303
7.35212e-305
6.29402e-305
-1.6058e-303
-4.31501e-302
-2.5364e-302
-8.43724e-302
-7.64379e-302
-1.28828e-301
-1.2292e-301
-1.79798e-301
-1.62832e-301
-2.40531e-301
-1.94535e-301
-3.14004e-301
-2.16577e-301
-4.02868e-301
-2.27394e-301
-5.09434e-301
-2.24959e-301
-6.35665e-301
-2.06517e-301
-7.83194e-301
-1.68468e-301
-9.36399e-301
-1.06384e-301
-1.28123e-300
-1.55775e-302
-6.48234e-301
9.74714e-302
-2.93541e-301
1.30017e-302
-1.43993e-301
-3.85884e-303
-8.13389e-302
-4.40647e-303
-4.84404e-302
-2.94456e-303
-2.94264e-302
-1.65833e-303
-1.79193e-302
-8.16702e-304
-1.08014e-302
-3.38418e-304
-6.35432e-303
-9.90189e-305
-3.55049e-303
2.42374e-306
3.30064e-305
-1.74496e-303
-4.74399e-302
-3.49068e-302
-9.18043e-302
-1.04447e-301
-1.39674e-301
-1.67911e-301
-1.94959e-301
-2.22612e-301
-2.61472e-301
-2.66675e-301
-3.42612e-301
-2.98764e-301
-4.4135e-301
-3.1754e-301
-5.60237e-301
-3.21099e-301
-7.01423e-301
-3.06518e-301
-8.66688e-301
-2.69644e-301
-1.03933e-300
-2.05051e-301
-1.41827e-300
-1.06557e-301
-7.27634e-301
2.06275e-302
-3.24104e-301
-1.14083e-302
-1.57889e-301
-1.45668e-302
-8.87443e-302
-9.85141e-303
-5.26698e-302
-5.84483e-303
-3.19186e-302
-3.21824e-303
-1.94029e-302
-1.64964e-303
-1.16802e-302
-7.75811e-304
-6.86431e-303
-3.23029e-304
-3.83258e-303
-1.07684e-304
-1.58739e-305
-1.88284e-303
-5.09634e-302
-4.77645e-302
-9.74139e-302
-1.41676e-301
-1.47941e-301
-2.27213e-301
-2.07261e-301
-3.00697e-301
-2.79817e-301
-3.60127e-301
-3.69438e-301
-4.04587e-301
-4.79403e-301
-4.33317e-301
-6.12516e-301
-4.44794e-301
-7.7115e-301
-4.36072e-301
-9.5728e-301
-4.02439e-301
-1.15318e-300
-3.37331e-301
-1.57059e-300
-2.32705e-301
-8.17662e-301
-9.19225e-302
-3.56927e-301
-4.79878e-302
-1.72284e-301
-3.03152e-302
-9.62539e-302
-1.7696e-302
-5.6904e-302
-9.94688e-303
-3.43938e-302
-5.39188e-303
-2.08678e-302
-2.7991e-303
-1.25434e-302
-1.37765e-303
-7.36257e-303
-6.3285e-304
-4.10669e-303
-2.62193e-304
-8.63345e-305
-2.01619e-303
-5.26411e-302
-6.52664e-302
-9.90725e-302
-1.91254e-301
-1.50858e-301
-3.05117e-301
-2.13659e-301
-4.01883e-301
-2.92505e-301
-4.79756e-301
-3.91536e-301
-5.38844e-301
-5.14261e-301
-5.79527e-301
-6.63727e-301
-6.01082e-301
-8.42599e-301
-6.00763e-301
-1.05315e-300
-5.73384e-301
-1.27677e-300
-5.11205e-301
-1.73779e-300
-4.04168e-301
-9.18062e-301
-2.53291e-301
-3.91535e-301
-1.01152e-301
-1.86849e-301
-5.25097e-302
-1.03691e-301
-2.84121e-302
-6.10482e-302
-1.54041e-302
-3.67968e-302
-8.22619e-303
-2.22789e-302
-4.27913e-303
-1.33676e-302
-2.14889e-303
-7.83359e-303
-1.0311e-303
-4.36315e-303
-4.62939e-304
-1.79724e-304
-2.1398e-303
-5.04565e-302
-8.96898e-302
-9.30474e-302
-2.57837e-301
-1.43891e-301
-4.0747e-301
-2.09474e-301
-5.32158e-301
-2.95012e-301
-6.31175e-301
-4.04579e-301
-7.06694e-301
-5.41709e-301
-7.61089e-301
-7.09689e-301
-7.94977e-301
-9.11598e-301
-8.06114e-301
-1.1502e-300
-7.88965e-301
-1.4062e-300
-7.3475e-301
-1.91633e-300
-6.31612e-301
-1.02635e-300
-4.78184e-301
-4.2667e-301
-1.75265e-301
-2.01004e-301
-8.19467e-302
-1.10796e-301
-4.20066e-302
-6.49681e-302
-2.2099e-302
-3.90456e-302
-1.16285e-302
-2.35805e-302
-6.03679e-303
-1.41141e-302
-3.06362e-303
-8.25147e-303
-1.50646e-303
-4.58597e-303
-7.05594e-304
-2.94856e-304
-2.24515e-303
-4.03942e-302
-1.25288e-301
-7.26596e-302
-3.48675e-301
-1.19776e-301
-5.42319e-301
-1.87899e-301
-6.989e-301
-2.81196e-301
-8.2063e-301
-4.02838e-301
-9.13419e-301
-5.56067e-301
-9.82734e-301
-7.44458e-301
-1.03116e-300
-9.7175e-301
-1.0572e-300
-1.2415e-300
-1.05511e-300
-1.53406e-300
-1.01527e-300
-2.09838e-300
-9.24799e-301
-1.13677e-300
-7.80891e-301
-4.59837e-301
-2.72058e-301
-2.1386e-301
-1.17335e-301
-1.17188e-301
-5.73972e-302
-6.8446e-302
-2.94128e-302
-4.09916e-302
-1.5288e-302
-2.46683e-302
-7.92542e-303
-1.47123e-302
-4.05496e-303
-8.57124e-303
-2.029e-303
-4.74863e-303
-9.77045e-304
-4.26487e-304
-2.31855e-303
-1.34354e-302
-1.80211e-301
-2.54945e-302
-4.75146e-301
-6.70634e-302
-7.20432e-301
-1.39678e-301
-9.1067e-301
-2.4355e-301
-1.05456e-300
-3.79595e-301
-1.16396e-300
-5.50518e-301
-1.24863e-300
-7.60523e-301
-1.31361e-300
-1.01452e-300
-1.35832e-300
-1.31726e-300
-1.37669e-300
-1.64908e-300
-1.35834e-300
-2.27115e-300
-1.29055e-300
-1.23905e-300
-1.17176e-300
-4.86306e-301
-3.83126e-301
-2.24032e-301
-1.52591e-301
-1.22173e-301
-7.1661e-302
-7.1022e-302
-3.60653e-302
-4.23211e-302
-1.86536e-302
-2.5338e-302
-9.70379e-303
-1.50366e-302
-5.01401e-303
-8.71958e-303
-2.548e-303
-4.81096e-303
-1.25328e-303
-5.63762e-304
-2.34044e-303
5.40669e-302
-2.41121e-301
7.24229e-302
-6.28027e-301
3.16926e-302
-9.28831e-301
-5.34879e-302
-1.15e-300
-1.74296e-301
-1.31233e-300
-3.28184e-301
-1.43586e-300
-5.17883e-301
-1.53545e-300
-7.49364e-301
-1.61888e-300
-1.02976e-300
-1.68633e-300
-1.3656e-300
-1.73096e-300
-1.73695e-300
-1.74092e-300
-2.41765e-300
-1.69947e-300
-1.31736e-300
-1.65045e-300
-4.96867e-301
-4.59712e-301
-2.28932e-301
-1.71833e-301
-1.24083e-301
-7.98273e-302
-7.16237e-302
-4.03319e-302
-4.23977e-302
-2.10491e-302
-2.52331e-302
-1.10767e-302
-1.48945e-302
-5.80086e-303
-8.59591e-303
-2.99364e-303
-4.72265e-303
-1.4989e-303
-6.8951e-304
-2.28801e-303
2.31917e-301
-6.08695e-301
2.66365e-301
-1.11176e-300
1.98947e-301
-1.46398e-300
8.02259e-302
-1.71024e-300
-6.89264e-302
-1.88656e-300
-2.44434e-301
-2.02184e-300
-4.51974e-301
-2.13608e-300
-7.0211e-301
-2.23968e-300
-1.00641e-300
-2.33335e-300
-1.37411e-300
-2.40906e-300
-1.7788e-300
-2.45269e-300
-2.52205e-300
-2.4529e-300
-1.35736e-300
-1.3727e-300
-4.78493e-301
-4.01154e-301
-2.19741e-301
-1.61854e-301
-1.1829e-301
-7.88446e-302
-6.80736e-302
-4.11078e-302
-4.02161e-302
-2.19536e-302
-2.38915e-302
-1.17715e-302
-1.40738e-302
-6.26823e-303
-8.10341e-303
-3.2861e-303
-4.44048e-303
-1.6713e-303
-7.82272e-304
-2.14359e-303
6.91423e-301
-5.34298e-302
5.9641e-301
-4.44064e-301
4.3482e-301
-6.8263e-301
2.51366e-301
-8.44355e-301
6.27752e-302
-9.58834e-301
-1.34e-301
-1.0463e-300
-3.53295e-301
-1.12052e-300
-6.14615e-301
-1.18846e-300
-9.37594e-301
-1.25027e-300
-1.33655e-300
-1.29914e-300
-1.8125e-300
-1.32218e-300
-1.46923e-300
-1.31224e-300
-6.35659e-301
-6.14803e-301
-3.08064e-301
-2.68478e-301
-1.68547e-301
-1.32748e-301
-9.76137e-302
-7.03744e-302
-5.8236e-302
-3.84428e-302
-3.50887e-302
-2.11743e-302
-2.10806e-302
-1.16203e-302
-1.24958e-302
-6.30545e-303
-7.21737e-303
-3.35931e-303
-3.95831e-303
-1.73338e-303
-8.22736e-304
-1.90693e-303
1.95879e-301
-2.113e-301
1.34175e-301
-3.41836e-301
9.01969e-302
-3.98064e-301
4.40044e-302
-4.37397e-301
-5.36161e-303
-4.65744e-301
-6.07626e-302
-4.86653e-301
-1.26771e-301
-5.02799e-301
-2.08546e-301
-5.15388e-301
-3.08738e-301
-5.23701e-301
-4.19352e-301
-5.24502e-301
-4.91044e-301
-5.1085e-301
-4.20485e-301
-4.76039e-301
-2.75782e-301
-3.04412e-301
-1.7815e-301
-1.75922e-301
-1.13454e-301
-1.00574e-301
-7.18177e-302
-5.77724e-302
-4.51773e-302
-3.31684e-302
-2.81371e-302
-1.891e-302
-1.72647e-302
-1.06491e-302
-1.03721e-302
-5.89662e-303
-6.04044e-303
-3.19364e-303
-3.32709e-303
-1.67068e-303
-8.02181e-304
-1.60204e-303
1.64583e-304
-9.74889e-302
1.36338e-303
-1.69146e-301
-8.18344e-304
-1.99254e-301
-8.33724e-303
-2.18272e-301
-2.07581e-302
-2.30761e-301
-3.83225e-302
-2.38855e-301
-6.18625e-302
-2.43924e-301
-9.19499e-302
-2.46672e-301
-1.27259e-301
-2.47195e-301
-1.61747e-301
-2.45053e-301
-1.79551e-301
-2.38964e-301
-1.67196e-301
-2.22276e-301
-1.35504e-301
-1.68582e-301
-1.01677e-301
-1.13053e-301
-7.20712e-302
-7.17671e-302
-4.91391e-302
-4.42026e-302
-3.25403e-302
-2.66315e-302
-2.10022e-302
-1.57244e-302
-1.32086e-302
-9.09182e-303
-8.07068e-303
-5.13851e-303
-4.75329e-303
-2.82869e-303
-2.63515e-303
-1.49902e-303
-7.26639e-304
-1.2692e-303
-2.17746e-302
-4.11125e-302
-1.89498e-302
-8.62342e-302
-1.66268e-302
-1.08354e-301
-1.65235e-302
-1.21425e-301
-1.93693e-302
-1.29297e-301
-2.54015e-302
-1.33844e-301
-3.47948e-302
-1.36198e-301
-4.7345e-302
-1.37022e-301
-6.18374e-302
-1.3663e-301
-7.52797e-302
-1.34949e-301
-8.26617e-302
-1.31029e-301
-8.08321e-302
-1.21131e-301
-7.15127e-302
-9.85247e-302
-5.82855e-302
-7.20345e-302
-4.43648e-302
-4.91667e-302
-3.20246e-302
-3.20233e-302
-2.21577e-302
-2.01293e-302
-1.47781e-302
-1.22748e-302
-9.52138e-303
-7.27582e-303
-5.92025e-303
-4.19279e-303
-3.52948e-303
-2.34364e-303
-1.97099e-303
-1.2567e-303
-6.13776e-304
-9.49454e-304
-1.61116e-302
-1.79652e-302
-1.64114e-302
-4.42953e-302
-1.53351e-302
-5.98021e-302
-1.44526e-302
-6.94241e-302
-1.47998e-302
-7.52272e-302
-1.67933e-302
-7.84899e-302
-2.05795e-302
-8.00759e-302
-2.59754e-302
-8.05469e-302
-3.22846e-302
-8.0203e-302
-3.81578e-302
-7.90142e-302
-4.18123e-302
-7.63294e-302
-4.20804e-302
-7.03834e-302
-3.89935e-302
-5.92133e-302
-3.34189e-302
-4.55487e-302
-2.6709e-302
-3.26757e-302
-2.01266e-302
-2.22126e-302
-1.44276e-302
-1.44572e-302
-9.89636e-303
-9.06396e-303
-6.51567e-303
-5.49211e-303
-4.11779e-303
-3.22047e-303
-2.48379e-303
-1.82495e-303
-1.39685e-303
-9.88701e-304
-4.85551e-304
-6.72434e-304
-9.54554e-303
-8.16221e-303
-1.08066e-302
-2.28067e-302
-1.07678e-302
-3.29104e-302
-1.03185e-302
-3.97309e-302
-1.02016e-302
-4.40624e-302
-1.08044e-302
-4.65887e-302
-1.22924e-302
-4.78677e-302
-1.46034e-302
-4.83036e-302
-1.74098e-302
-4.81227e-302
-2.0123e-302
-4.73127e-302
-2.20243e-302
-4.54989e-302
-2.25542e-302
-4.18932e-302
-2.14989e-302
-3.58919e-302
-1.90519e-302
-2.84882e-302
-1.57638e-302
-2.11485e-302
-1.2268e-302
-1.48414e-302
-9.04309e-303
-9.92854e-303
-6.34775e-303
-6.36845e-303
-4.25697e-303
-3.93114e-303
-2.7289e-303
-2.33977e-303
-1.66333e-303
-1.34156e-303
-9.41248e-304
-7.33106e-304
-3.61297e-304
-4.52256e-304
-5.19893e-303
-3.80298e-303
-6.3561e-303
-1.17175e-302
-6.68861e-303
-1.79358e-302
-6.60619e-303
-2.25129e-302
-6.51731e-303
-2.56185e-302
-6.6864e-303
-2.75387e-302
-7.25559e-303
-2.85808e-302
-8.23421e-303
-2.89977e-302
-9.49223e-303
-2.89404e-302
-1.07781e-302
-2.84114e-302
-1.17752e-302
-2.72224e-302
-1.21902e-302
-2.50373e-302
-1.18411e-302
-2.16731e-302
-1.07432e-302
-1.75454e-302
-9.11588e-303
-1.33345e-302
-7.2686e-303
-9.57829e-303
-5.47576e-303
-6.5444e-303
-3.91551e-303
-4.27472e-303
-2.66592e-303
-2.67897e-303
-1.72953e-303
-1.61427e-303
-1.06359e-303
-9.34638e-304
-6.04911e-304
-5.14273e-304
-2.5386e-304
-2.89701e-304
-2.68857e-303
-1.79223e-303
-3.48582e-303
-5.97844e-303
-3.83903e-303
-9.63969e-303
-3.91481e-303
-1.25568e-302
-3.90495e-303
-1.46702e-302
-3.95993e-303
-1.60582e-302
-4.17854e-303
-1.68634e-302
-4.59238e-303
-1.72261e-302
-5.16067e-303
-1.72378e-302
-5.77871e-303
-1.69085e-302
-6.29973e-303
-1.61545e-302
-6.56748e-303
-1.48409e-302
-6.46376e-303
-1.2922e-302
-5.96477e-303
-1.05927e-302
-5.15642e-303
-8.18064e-303
-4.18779e-303
-5.97602e-303
-3.20846e-303
-4.14861e-303
-2.32806e-303
-2.74834e-303
-1.60452e-303
-1.74322e-303
-1.05114e-303
-1.06087e-303
-6.51113e-304
-6.19035e-304
-3.71734e-304
-3.4241e-304
-1.69001e-304
-1.772e-304
-1.33402e-303
-8.45806e-304
-1.811e-303
-3.01519e-303
-2.07201e-303
-5.09144e-303
-2.17796e-303
-6.86581e-303
-2.20868e-303
-8.23096e-303
-2.23951e-303
-9.17854e-303
-2.32971e-303
-9.76089e-303
-2.50866e-303
-1.00465e-302
-2.76939e-303
-1.00862e-302
-3.06984e-303
-9.8912e-303
-3.34054e-303
-9.4294e-303
-3.49914e-303
-8.65208e-303
-3.47646e-303
-7.55708e-303
-3.24832e-303
-6.24363e-303
-2.84749e-303
-4.8746e-303
-2.34513e-303
-3.60398e-303
-1.82021e-303
-2.5316e-303
-1.33595e-303
-1.69526e-303
-9.29663e-304
-1.08535e-303
-6.13768e-304
-6.65649e-304
-3.82377e-304
-3.90769e-304
-2.18884e-304
-2.1696e-304
-1.06903e-304
-1.03717e-304
-6.37754e-304
-3.96705e-304
-8.97642e-304
-1.49693e-303
-1.06036e-303
-2.63452e-303
-1.14593e-303
-3.66837e-303
-1.18399e-303
-4.50754e-303
-1.2086e-303
-5.11926e-303
-1.25155e-303
-5.5139e-303
-1.33305e-303
-5.72019e-303
-1.45584e-303
-5.76384e-303
-1.60366e-303
-5.65399e-303
-1.74356e-303
-5.38114e-303
-1.83299e-303
-4.93125e-303
-1.8339e-303
-4.31352e-303
-1.72959e-303
-3.58096e-303
-1.53217e-303
-2.81612e-303
-1.27535e-303
-2.09974e-303
-9.99822e-304
-1.4877e-303
-7.40359e-304
-1.00428e-303
-5.19081e-304
-6.47539e-304
-3.4477e-304
-3.99487e-304
-2.15733e-304
-2.35575e-304
-1.23686e-304
-1.31111e-304
-6.44055e-305
-5.81899e-305
-2.94392e-304
-1.83778e-304
-4.26066e-304
-7.28877e-304
-5.16852e-304
-1.33186e-303
-5.72664e-304
-1.91026e-303
-6.03193e-304
-2.40245e-303
-6.22488e-304
-2.77692e-303
-6.46133e-304
-3.0286e-303
-6.85914e-304
-3.16687e-303
-7.45657e-304
-3.20349e-303
-8.1926e-304
-3.14461e-303
-8.91158e-304
-2.98926e-303
-9.39904e-304
-2.73588e-303
-9.4552e-304
-2.39423e-303
-8.98077e-304
-1.99317e-303
-8.01923e-304
-1.57487e-303
-6.72933e-304
-1.18113e-303
-5.31603e-304
-8.42029e-304
-3.96332e-304
-5.71781e-304
-2.79474e-304
-3.70611e-304
-1.86471e-304
-2.29634e-304
-1.17053e-304
-1.35844e-304
-6.71528e-305
-7.57006e-305
-3.70292e-305
-3.13353e-305
-1.31394e-304
-8.36572e-305
-1.94117e-304
-3.46989e-304
-2.40633e-304
-6.56284e-304
-2.72594e-304
-9.67447e-304
-2.92676e-304
-1.2435e-303
-3.06185e-304
-1.46151e-303
-3.20191e-304
-1.61324e-303
-3.40828e-304
-1.70003e-303
-3.70762e-304
-1.72658e-303
-4.07713e-304
-1.69655e-303
-4.44383e-304
-1.61139e-303
-4.70227e-304
-1.47304e-303
-4.75162e-304
-1.28885e-303
-4.538e-304
-1.07451e-303
-4.07677e-304
-8.51514e-304
-3.44211e-304
-6.4113e-304
-2.735e-304
-4.59038e-304
-2.04953e-304
-3.13024e-304
-1.45141e-304
-2.03654e-304
-9.71627e-305
-1.26569e-304
-6.11243e-305
-7.50263e-305
-3.50602e-305
-4.18207e-305
-2.03499e-305
-1.62121e-305
-5.67668e-305
-3.72634e-305
-8.50456e-305
-1.61081e-304
-1.07229e-304
-3.14584e-304
-1.23861e-304
-4.75705e-304
-1.35498e-304
-6.24014e-304
-1.43971e-304
-7.45034e-304
-1.52275e-304
-8.31843e-304
-1.6332e-304
-8.83191e-304
-1.78573e-304
-9.00604e-304
-1.97142e-304
-8.86043e-304
-2.15626e-304
-8.41112e-304
-2.28972e-304
-7.68048e-304
-2.3227e-304
-6.71635e-304
-2.22787e-304
-5.60255e-304
-2.01069e-304
-4.44739e-304
-1.70552e-304
-3.35698e-304
-1.36101e-304
-2.41048e-304
-1.02375e-304
-1.64845e-304
-7.27205e-305
-1.0752e-304