/*--------------------------------*- C++ -*----------------------------------*\
| =========                 |                                                 |
| \\      /  F ield         | OpenFOAM: The Open Source CFD Toolbox           |
|  \\    /   O peration     | Version:  2406                                  |
|   \\  /    A nd           | Website:  www.openfoam.com                      |
|    \\/     M anipulation  |                                                 |
\*---------------------------------------------------------------------------*/
FoamFile
{
    version     2.0;
    format      ascii;
    arch        "LSB;label=32;scalar=64";
    class       volVectorField;
    location    "0.25";
    object      U;
}
// * * * * * * * * * * * * * * * * * * * * * * * * * * * * * * * * * * * * * //

dimensions      [0 1 -1 0 0 0 0];

internalField   nonuniform List<vector> 
2268
(
(-5.78651e-301 -1.88744e-301 0)
(-1.70269e-300 -8.27122e-301 0)
(-3.033e-300 -1.19598e-300 0)
(-4.69037e-300 -1.42983e-300 0)
(-6.82347e-300 -1.45631e-300 0)
(-9.56176e-300 -1.08073e-300 0)
(-1.29974e-299 5.59017e-302 0)
(-1.71378e-299 2.5491e-300 0)
(-2.17963e-299 7.41313e-300 0)
(-2.62602e-299 1.6459e-299 0)
(-2.77339e-299 3.34641e-299 0)
(-1.28672e-299 6.55515e-299 0)
(1.13042e-298 1.53519e-298 0)
(-4.14981e-299 3.84023e-299 0)
(-3.94224e-299 -1.9271e-300 0)
(-1.75005e-299 -5.74974e-300 0)
(-7.75421e-300 -3.59852e-300 0)
(-3.524e-300 -1.74221e-300 0)
(-1.62862e-300 -7.06416e-301 0)
(-7.42491e-301 -2.23402e-301 0)
(-3.14826e-301 -3.3836e-302 0)
(-1.07512e-301 1.65377e-302 0)
(-1.20674e-302 8.07899e-303 0)
(-1.83638e-300 -4.14173e-301 0)
(-5.37949e-300 -2.01751e-300 0)
(-9.46247e-300 -2.99071e-300 0)
(-1.45389e-299 -3.49715e-300 0)
(-2.10315e-299 -3.30841e-300 0)
(-2.93043e-299 -1.83911e-300 0)
(-3.96013e-299 1.94153e-300 0)
(-5.19e-299 9.76222e-300 0)
(-6.56005e-299 2.44226e-299 0)
(-7.87565e-299 5.0683e-299 0)
(-8.58379e-299 9.72736e-299 0)
(-6.98735e-299 1.83604e-298 0)
(4.89301e-300 3.34e-298 0)
(-8.74369e-299 7.26242e-299 0)
(-5.82223e-299 3.80628e-300 0)
(-2.9295e-299 -4.74205e-300 0)
(-1.43647e-299 -3.74551e-300 0)
(-7.04037e-300 -1.9701e-300 0)
(-3.45967e-300 -8.07265e-301 0)
(-1.67761e-300 -2.19239e-301 0)
(-7.72402e-301 2.15331e-302 0)
(-3.05962e-301 8.1771e-302 0)
(-5.43593e-302 4.70002e-302 0)
(-3.13823e-300 -6.94124e-301 0)
(-9.31221e-300 -3.15017e-300 0)
(-1.63999e-299 -4.67401e-300 0)
(-2.51811e-299 -5.38449e-300 0)
(-3.63819e-299 -4.86952e-300 0)
(-5.06467e-299 -2.17849e-300 0)
(-6.84413e-299 4.39175e-300 0)
(-8.98497e-299 1.75941e-299 0)
(-1.14163e-298 4.19054e-299 0)
(-1.39033e-298 8.45992e-299 0)
(-1.58693e-298 1.58483e-298 0)
(-1.58774e-298 2.89153e-298 0)
(-1.30696e-298 4.92468e-298 0)
(-1.23811e-298 9.44979e-299 0)
(-7.23989e-299 9.29969e-300 0)
(-3.83019e-299 -2.95078e-300 0)
(-1.98424e-299 -3.28494e-300 0)
(-1.021e-299 -1.86904e-300 0)
(-5.23632e-300 -7.5695e-301 0)
(-2.64978e-300 -1.53306e-301 0)
(-1.28677e-300 1.02161e-301 0)
(-5.55465e-301 1.63657e-301 0)
(-1.26036e-301 1.04817e-301 0)
(-4.59218e-300 -9.89953e-301 0)
(-1.37584e-299 -4.2841e-300 0)
(-2.42475e-299 -6.32913e-300 0)
(-3.71771e-299 -7.16717e-300 0)
(-5.36062e-299 -6.21186e-300 0)
(-7.44979e-299 -2.12091e-300 0)
(-1.00612e-298 7.40382e-300 0)
(-1.32261e-298 2.61257e-299 0)
(-1.6889e-298 5.99405e-299 0)
(-2.083e-298 1.18357e-298 0)
(-2.45485e-298 2.17094e-298 0)
(-2.69595e-298 3.8435e-298 0)
(-2.83627e-298 6.2476e-298 0)
(-1.62068e-298 1.15796e-298 0)
(-8.78603e-299 1.49718e-299 0)
(-4.7417e-299 -9.4047e-301 0)
(-2.5445e-299 -2.58546e-300 0)
(-1.35944e-299 -1.61474e-300 0)
(-7.23388e-300 -6.25237e-301 0)
(-3.80487e-300 -4.53538e-302 0)
(-1.9382e-300 2.08556e-301 0)
(-8.99766e-301 2.694e-301 0)
(-2.43411e-301 1.9045e-301 0)
(-6.2968e-300 -1.30366e-300 0)
(-1.8976e-299 -5.48643e-300 0)
(-3.34216e-299 -8.04188e-300 0)
(-5.11104e-299 -8.95244e-300 0)
(-7.34563e-299 -7.42013e-300 0)
(-1.01783e-298 -1.76035e-300 0)
(-1.37194e-298 1.09518e-299 0)
(-1.80342e-298 3.53191e-299 0)
(-2.30995e-298 7.85923e-299 0)
(-2.87387e-298 1.51997e-298 0)
(-3.45421e-298 2.73537e-298 0)
(-3.96542e-298 4.72057e-298 0)
(-4.48631e-298 7.42713e-298 0)
(-2.04721e-298 1.3731e-298 0)
(-1.05808e-298 2.07014e-299 0)
(-5.76101e-299 1.10848e-300 0)
(-3.16983e-299 -1.79511e-300 0)
(-1.74641e-299 -1.2848e-300 0)
(-9.60196e-300 -4.47594e-301 0)
(-5.23375e-300 8.83213e-302 0)
(-2.78686e-300 3.31941e-301 0)
(-1.38236e-300 3.94301e-301 0)
(-4.30385e-301 3.08511e-301 0)
(-8.34901e-300 -1.6467e-300 0)
(-2.52336e-299 -6.80652e-300 0)
(-4.43649e-299 -9.89527e-300 0)
(-6.75944e-299 -1.08182e-299 0)
(-9.67203e-299 -8.59249e-300 0)
(-1.33449e-298 -1.14018e-300 0)
(-1.79281e-298 1.49783e-299 0)
(-2.35267e-298 4.52265e-299 0)
(-3.0162e-298 9.78853e-299 0)
(-3.77121e-298 1.85722e-298 0)
(-4.58463e-298 3.28237e-298 0)
(-5.38086e-298 5.55031e-298 0)
(-6.25238e-298 8.56334e-298 0)
(-2.52686e-298 1.59435e-298 0)
(-1.26665e-298 2.65316e-299 0)
(-6.94114e-299 3.19066e-300 0)
(-3.897e-299 -9.48719e-301 0)
(-2.2043e-299 -9.06258e-301 0)
(-1.2478e-299 -2.41363e-301 0)
(-7.02565e-300 2.34395e-301 0)
(-3.8965e-300 4.58617e-301 0)
(-2.05828e-300 5.2309e-301 0)
(-7.3379e-301 4.51803e-301 0)
(-1.08484e-299 -2.03773e-300 0)
(-3.28193e-299 -8.29851e-300 0)
(-5.75512e-299 -1.19592e-299 0)
(-8.72888e-299 -1.28688e-299 0)
(-1.24229e-298 -9.80363e-300 0)
(-1.70493e-298 -3.60173e-301 0)
(-2.27993e-298 1.94756e-299 0)
(-2.9823e-298 5.58152e-299 0)
(-3.81917e-298 1.17951e-298 0)
(-4.78464e-298 2.19658e-298 0)
(-5.85311e-298 3.81734e-298 0)
(-6.95544e-298 6.34899e-298 0)
(-8.16267e-298 9.71355e-298 0)
(-3.06261e-298 1.82095e-298 0)
(-1.50831e-298 3.25826e-299 0)
(-8.33237e-299 5.37246e-300 0)
(-4.76494e-299 -3.54049e-302 0)
(-2.75912e-299 -4.89e-301 0)
(-1.60305e-299 -2.11271e-302 0)
(-9.29043e-300 3.76078e-301 0)
(-5.34205e-300 5.66175e-301 0)
(-2.99366e-300 6.20654e-301 0)
(-1.25434e-300 5.6419e-301 0)
(-1.38976e-299 -2.51459e-300 0)
(-4.20441e-299 -1.00043e-299 0)
(-7.34966e-299 -1.43265e-299 0)
(-1.10901e-298 -1.5197e-299 0)
(-1.56878e-298 -1.11838e-299 0)
(-2.13962e-298 5.16914e-301 0)
(-2.84505e-298 2.43583e-299 0)
(-3.7046e-298 6.7155e-299 0)
(-4.73082e-298 1.38859e-298 0)
(-5.92464e-298 2.54161e-298 0)
(-7.26959e-298 4.34504e-298 0)
(-8.71291e-298 7.12011e-298 0)
(-1.02697e-297 1.08404e-297 0)
(-3.65161e-298 2.04422e-298 0)
(-1.78483e-298 3.90127e-299 0)
(-9.96813e-299 7.78264e-300 0)
(-5.80357e-299 9.83474e-301 0)
(-3.4324e-299 -3.43964e-302 0)
(-2.04009e-299 1.96973e-301 0)
(-1.21136e-299 4.91252e-301 0)
(-7.16531e-300 6.23466e-301 0)
(-4.20415e-300 6.20045e-301 0)
(-2.21741e-300 4.30798e-301 0)
(-3.21481e-307 -1.22482e-306 0)
(-3.39093e-306 -1.51775e-305 0)
(-1.15199e-306 -1.20017e-305 0)
(-1.09031e-306 -4.6199e-306 0)
(-1.16426e-306 -1.07441e-306 0)
(-8.08791e-307 -8.48268e-308 0)
(-4.17934e-307 6.03641e-308 0)
(-1.76834e-307 4.03436e-308 0)
(-6.47217e-308 1.64235e-308 0)
(-2.1177e-308 5.45819e-309 0)
(-6.32281e-309 1.61249e-309 0)
(-1.74421e-309 4.41594e-310 0)
(-4.47341e-310 1.15199e-310 0)
(-1.06682e-310 2.91562e-311 0)
(-2.34764e-311 7.19348e-312 0)
(-4.66807e-312 1.69605e-312 0)
(-7.96576e-313 3.60287e-313 0)
(-9.9454e-314 5.91052e-314 0)
(-3.52122e-315 3.44553e-315 0)
(4.3634e-307 -8.88117e-306 0)
(-1.3442e-305 -5.83759e-305 0)
(-9.37361e-306 -4.00262e-305 0)
(-8.19566e-306 -1.47947e-305 0)
(-5.99818e-306 -3.33759e-306 0)
(-3.45171e-306 -1.5731e-307 0)
(-1.64046e-306 2.86268e-307 0)
(-6.7315e-307 1.84464e-307 0)
(-2.45912e-307 7.86276e-308 0)
(-8.16456e-308 2.78266e-308 0)
(-2.49802e-308 8.78443e-309 0)
(-7.10634e-309 2.5621e-309 0)
(-1.88841e-309 7.05542e-310 0)
(-4.68751e-310 1.86044e-310 0)
(-1.07978e-310 4.72195e-311 0)
(-2.26689e-311 1.14212e-311 0)
(-4.15088e-312 2.54076e-312 0)
(-5.81388e-313 4.71802e-313 0)
(-2.54035e-314 4.04841e-314 0)
(1.84689e-306 -3.62935e-305 0)
(-4.19347e-305 -1.6041e-304 0)
(-3.49766e-305 -9.58172e-305 0)
(-2.8189e-305 -3.29863e-305 0)
(-1.80468e-305 -6.95936e-306 0)
(-9.48031e-306 -9.39824e-308 0)
(-4.27567e-306 7.62872e-307 0)
(-1.71025e-306 4.72198e-307 0)
(-6.2006e-307 2.03205e-307 0)
(-2.06802e-307 7.35812e-308 0)
(-6.40944e-308 2.39004e-308 0)
(-1.85821e-308 7.19076e-309 0)
(-5.05657e-309 2.04439e-309 0)
(-1.29106e-309 5.56552e-310 0)
(-3.0745e-310 1.45886e-310 0)
(-6.71875e-311 3.65689e-311 0)
(-1.29557e-311 8.53265e-312 0)
(-1.96209e-312 1.71995e-312 0)
(-1.0397e-313 1.81578e-313 0)
(-3.64126e-306 -1.37563e-304 0)
(-1.29378e-304 -4.11462e-304 0)
(-1.12688e-304 -2.13299e-304 0)
(-8.23091e-305 -6.76252e-305 0)
(-4.78594e-305 -1.31482e-305 0)
(-2.35215e-305 3.12299e-307 0)
(-1.01877e-305 1.75622e-306 0)
(-3.98996e-306 1.04861e-306 0)
(-1.43632e-306 4.52486e-307 0)
(-4.80472e-307 1.66294e-307 0)
(-1.50473e-307 5.51501e-308 0)
(-4.43322e-308 1.70029e-308 0)
(-1.23164e-308 4.96603e-309 0)
(-3.2244e-309 1.3916e-309 0)
(-7.90996e-310 3.76309e-310 0)
(-1.79146e-310 9.77087e-311 0)
(-3.61441e-311 2.38407e-311 0)
(-5.84112e-312 5.14993e-312 0)
(-3.59965e-313 6.35653e-313 0)
(-7.48285e-305 -5.09914e-304 0)
(-3.88187e-304 -1.00189e-303 0)
(-3.32886e-304 -4.50735e-304 0)
(-2.19613e-304 -1.31438e-304 0)
(-1.17908e-304 -2.35266e-305 0)
(-5.49886e-305 1.43721e-306 0)
(-2.30877e-305 3.69672e-306 0)
(-8.90318e-306 2.15009e-306 0)
(-3.1918e-306 9.30574e-307 0)
(-1.07229e-306 3.46525e-307 0)
(-3.39413e-307 1.17075e-307 0)
(-1.01578e-307 3.69019e-308 0)
(-2.87875e-308 1.10489e-308 0)
(-7.71831e-309 3.1812e-309 0)
(-1.94739e-309 8.85956e-310 0)
(-4.56094e-310 2.37772e-310 0)
(-9.59646e-311 6.04301e-311 0)
(-1.64501e-311 1.38658e-311 0)
(-1.15906e-312 1.95691e-312 0)
(-5.31557e-304 -1.90059e-303 0)
(-1.15984e-303 -2.31467e-303 0)
(-9.13846e-304 -8.98684e-304 0)
(-5.44615e-304 -2.4186e-304 0)
(-2.72904e-304 -4.01148e-305 0)
(-1.2203e-304 3.84649e-306 0)
(-5.00553e-305 7.19962e-306 0)
(-1.9108e-305 4.1216e-306 0)
(-6.84548e-306 1.79357e-306 0)
(-2.31422e-306 6.76897e-307 0)
(-7.41073e-307 2.32806e-307 0)
(-2.25338e-307 7.49288e-308 0)
(-6.5125e-308 2.29632e-308 0)
(-1.78688e-308 6.78124e-309 0)
(-4.63139e-309 1.94094e-309 0)
(-1.11978e-309 5.36979e-310 0)
(-2.4512e-310 1.41608e-310 0)
(-4.44217e-311 3.42959e-311 0)
(-3.56881e-312 5.4996e-312 0)
(-3.07027e-303 -6.89129e-303 0)
(-3.50696e-303 -5.02209e-303 0)
(-2.37687e-303 -1.67935e-303 0)
(-1.27481e-303 -4.20615e-304 0)
(-6.01362e-304 -6.53771e-305 0)
(-2.60134e-304 8.43135e-306 0)
(-1.05007e-304 1.32033e-305 0)
(-3.98962e-305 7.50109e-306 0)
(-1.43386e-305 3.29201e-306 0)
(-4.89114e-306 1.26071e-306 0)
(-1.58749e-306 4.41516e-307 0)
(-4.91042e-307 1.45048e-307 0)
(-1.44832e-307 4.54585e-308 0)
(-4.06805e-308 1.37476e-308 0)
(-1.08302e-308 4.03426e-309 0)
(-2.70124e-309 1.14618e-309 0)
(-6.14118e-310 3.11616e-310 0)
(-1.17106e-310 7.8547e-311 0)
(-1.06139e-311 1.39392e-311 0)
(-1.48746e-302 -2.53497e-302 0)
(-1.02574e-302 -9.79824e-303 0)
(-5.67326e-303 -2.87962e-303 0)
(-2.76406e-303 -6.87859e-304 0)
(-1.24306e-303 -1.04023e-304 0)
(-5.25297e-304 1.50197e-305 0)
(-2.10125e-304 2.23527e-305 0)
(-7.9834e-305 1.27889e-305 0)
(-2.88716e-305 5.69305e-306 0)
(-9.95562e-306 2.21809e-306 0)
(-3.27795e-306 7.9161e-307 0)
(-1.03159e-306 2.65297e-307 0)
(-3.10353e-307 8.48673e-308 0)
(-8.91296e-308 2.61987e-308 0)
(-2.43227e-308 7.84465e-309 0)
(-6.23847e-309 2.27328e-309 0)
(-1.46633e-309 6.30602e-310 0)
(-2.92572e-310 1.62315e-310 0)
(-3.04805e-311 3.05954e-311 0)
(-1.94506e-299 -3.4329e-300 0)
(-5.88501e-299 -1.29934e-299 0)
(-1.02432e-298 -1.85005e-299 0)
(-1.53497e-298 -1.93739e-299 0)
(-2.15338e-298 -1.37445e-299 0)
(-2.9117e-298 1.70524e-300 0)
(-3.84021e-298 3.22002e-299 0)
(-4.96586e-298 8.53307e-299 0)
(-6.30979e-298 1.72053e-298 0)
(-7.88454e-298 3.07753e-298 0)
(-9.69042e-298 5.14406e-298 0)
(-1.17118e-297 8.22908e-298 0)
(-1.39309e-297 1.21991e-297 0)
(-4.64174e-298 2.36961e-298 0)
(-2.25369e-298 4.96962e-299 0)
(-1.2794e-298 1.21479e-299 0)
(-7.62126e-299 2.8791e-300 0)
(-4.62237e-299 8.02254e-301 0)
(-2.81829e-299 5.61737e-301 0)
(-1.71557e-299 6.33061e-301 0)
(-1.03815e-299 6.24526e-301 0)
(-6.2125e-300 4.69223e-301 0)
(-3.57517e-300 1.56942e-301 0)
(-2.72661e-299 -4.89123e-300 0)
(-8.2484e-299 -1.73699e-299 0)
(-1.43124e-298 -2.49078e-299 0)
(-2.13438e-298 -2.63998e-299 0)
(-2.97707e-298 -1.94964e-299 0)
(-4.00148e-298 -2.36953e-301 0)
(-5.24836e-298 3.72091e-299 0)
(-6.75572e-298 1.01165e-298 0)
(-8.55749e-298 2.02938e-298 0)
(-1.06817e-297 3.57876e-298 0)
(-1.31486e-297 5.86336e-298 0)
(-1.59744e-297 9.14476e-298 0)
(-1.91137e-297 1.31711e-297 0)
(-6.08441e-298 2.65721e-298 0)
(-2.90303e-298 6.09539e-299 0)
(-1.65215e-298 1.73653e-299 0)
(-9.94383e-299 5.41296e-300 0)
(-6.11227e-299 1.99749e-300 0)
(-3.77733e-299 1.05941e-300 0)
(-2.32462e-299 7.56127e-301 0)
(-1.41169e-299 5.35835e-301 0)
(-8.32479e-300 2.69134e-301 0)
(-4.53473e-300 -3.49817e-302 0)
(-3.53015e-299 -6.80997e-300 0)
(-1.06518e-298 -2.31303e-299 0)
(-1.84348e-298 -3.37093e-299 0)
(-2.74048e-298 -3.70087e-299 0)
(-3.80929e-298 -3.0193e-299 0)
(-5.10257e-298 -8.89327e-300 0)
(-6.67153e-298 3.32176e-299 0)
(-8.5651e-298 1.04673e-298 0)
(-1.08284e-297 2.16814e-298 0)
(-1.35015e-297 3.84028e-298 0)
(-1.66172e-297 6.24453e-298 0)
(-2.02067e-297 9.58783e-298 0)
(-2.41978e-297 1.35391e-297 0)
(-7.58603e-298 2.80865e-298 0)
(-3.57433e-298 6.78877e-299 0)
(-2.02498e-298 2.09303e-299 0)
(-1.21935e-298 7.33128e-300 0)
(-7.51601e-299 2.98936e-300 0)
(-4.65898e-299 1.5101e-300 0)
(-2.87094e-299 8.9586e-301 0)
(-1.73816e-299 5.13217e-301 0)
(-1.01372e-299 1.9669e-301 0)
(-5.40655e-300 -5.40862e-302 0)
(-4.36673e-299 -9.58225e-300 0)
(-1.3114e-298 -3.15045e-299 0)
(-2.26293e-298 -4.69035e-299 0)
(-3.35418e-298 -5.3793e-299 0)
(-4.64897e-298 -4.89798e-299 0)
(-6.21042e-298 -2.76761e-299 0)
(-8.10009e-298 1.66549e-299 0)
(-1.03767e-297 9.27206e-299 0)
(-1.30949e-297 2.11462e-298 0)
(-1.63033e-297 3.8636e-298 0)
(-2.00422e-297 6.33182e-298 0)
(-2.43492e-297 9.68553e-298 0)
(-2.91362e-297 1.35464e-297 0)
(-9.12544e-298 2.87021e-298 0)
(-4.27163e-298 7.14842e-299 0)
(-2.40753e-298 2.30002e-299 0)
(-1.44577e-298 8.58601e-300 0)
(-8.89928e-299 3.72635e-300 0)
(-5.51001e-299 1.90674e-300 0)
(-3.38874e-299 1.08173e-300 0)
(-2.0442e-299 5.89226e-301 0)
(-1.18549e-299 2.41797e-301 0)
(-6.28923e-300 1.26049e-302 0)
(-5.2484e-299 -1.36901e-299 0)
(-1.56589e-298 -4.39738e-299 0)
(-2.69255e-298 -6.68461e-299 0)
(-3.97847e-298 -7.99263e-299 0)
(-5.4985e-298 -7.95955e-299 0)
(-7.32643e-298 -6.08023e-299 0)
(-9.53384e-298 -1.67183e-299 0)
(-1.21887e-297 6.1308e-299 0)
(-1.53537e-297 1.8402e-298 0)
(-1.90843e-297 3.63937e-298 0)
(-2.3426e-297 6.15289e-298 0)
(-2.84204e-297 9.51792e-298 0)
(-3.3972e-297 1.33335e-297 0)
(-1.06949e-297 2.87306e-298 0)
(-4.99349e-298 7.26313e-299 0)
(-2.80279e-298 2.38508e-299 0)
(-1.67774e-298 9.23168e-300 0)
(-1.02999e-298 4.19275e-300 0)
(-6.36112e-299 2.22175e-300 0)
(-3.90142e-299 1.28697e-300 0)
(-2.34627e-299 7.30326e-301 0)
(-1.35681e-299 3.56423e-301 0)
(-7.19347e-300 1.17921e-301 0)
(-6.19045e-299 -1.97444e-299 0)
(-1.83178e-298 -6.23462e-299 0)
(-3.13667e-298 -9.64931e-299 0)
(-4.61855e-298 -1.19298e-298 0)
(-6.36403e-298 -1.26776e-298 0)
(-8.45797e-298 -1.13478e-298 0)
(-1.09821e-297 -7.2419e-299 0)
(-1.40135e-297 5.23534e-300 0)
(-1.76223e-297 1.29995e-298 0)
(-2.18702e-297 3.1402e-298 0)
(-2.68076e-297 5.70493e-298 0)
(-3.24799e-297 9.11745e-298 0)
(-3.87895e-297 1.29636e-297 0)
(-1.22989e-297 2.83046e-298 0)
(-5.73916e-298 7.1697e-299 0)
(-3.21147e-298 2.36012e-299 0)
(-1.91693e-298 9.28271e-300 0)
(-1.1737e-298 4.35886e-300 0)
(-7.22974e-299 2.41055e-300 0)
(-4.42265e-299 1.46292e-300 0)
(-2.6534e-299 8.86681e-301 0)
(-1.53198e-299 4.94641e-301 0)
(-8.12495e-300 2.33222e-301 0)
(-7.21079e-299 -2.85097e-299 0)
(-2.1126e-298 -8.89186e-299 0)
(-3.60027e-298 -1.39516e-298 0)
(-5.28097e-298 -1.76864e-298 0)
(-7.25423e-298 -1.96429e-298 0)
(-9.61689e-298 -1.92437e-298 0)
(-1.24615e-297 -1.57512e-298 0)
(-1.58743e-297 -8.26893e-299 0)
(-1.99334e-297 4.27896e-299 0)
(-2.47065e-297 2.30981e-298 0)
(-3.02494e-297 4.95027e-298 0)
(-3.66115e-297 8.46686e-298 0)
(-4.36964e-297 1.2441e-297 0)
(-1.39512e-297 2.7392e-298 0)
(-6.51053e-298 6.84455e-299 0)
(-3.63427e-298 2.21037e-299 0)
(-2.16413e-298 8.63463e-300 0)
(-1.32198e-298 4.14077e-300 0)
(-8.12463e-299 2.40163e-300 0)
(-4.95937e-299 1.54755e-300 0)
(-2.97004e-299 1.00579e-300 0)
(-1.71303e-299 6.16608e-301 0)
(-9.08835e-300 3.36276e-301 0)
(-8.32734e-299 -4.09701e-299 0)
(-2.41145e-298 -1.26561e-298 0)
(-4.08756e-298 -2.00595e-298 0)
(-5.97154e-298 -2.58808e-298 0)
(-8.17763e-298 -2.96102e-298 0)
(-1.08163e-297 -3.06142e-298 0)
(-1.3992e-297 -2.81251e-298 0)
(-1.7801e-297 -2.11958e-298 0)
(-2.23294e-297 -8.71536e-299 0)
(-2.76517e-297 1.05895e-298 0)
(-3.38291e-297 3.80848e-298 0)
(-4.09159e-297 7.50115e-298 0)
(-4.88182e-297 1.17156e-297 0)
(-1.56728e-297 2.58047e-298 0)
(-7.31203e-298 6.19943e-299 0)
(-4.07239e-298 1.8892e-299 0)
(-2.4198e-298 7.02132e-300 0)
(-1.47517e-298 3.37459e-300 0)
(-9.0488e-299 2.08638e-300 0)
(-5.51392e-299 1.46488e-300 0)
(-3.29756e-299 1.03399e-300 0)
(-1.90046e-299 6.87047e-301 0)
(-1.00844e-299 4.08459e-301 0)
(-9.55351e-299 -5.83694e-299 0)
(-2.72933e-298 -1.78934e-298 0)
(-4.59936e-298 -2.85566e-298 0)
(-6.69174e-298 -3.72966e-298 0)
(-9.13847e-298 -4.35156e-298 0)
(-1.20658e-297 -4.65335e-298 0)
(-1.55917e-297 -4.5526e-298 0)
(-1.98235e-297 -3.95036e-298 0)
(-2.48561e-297 -2.72625e-298 0)
(-3.07709e-297 -7.42707e-299 0)
(-3.7635e-297 2.15332e-298 0)
(-4.55071e-297 6.10097e-298 0)
(-5.42971e-297 1.06836e-297 0)
(-1.74908e-297 2.31821e-298 0)
(-8.15002e-298 5.07178e-299 0)
(-4.5274e-298 1.31205e-299 0)
(-2.6842e-298 3.97697e-300 0)
(-1.63321e-298 1.79441e-300 0)
(-1.00012e-298 1.30822e-300 0)
(-6.08538e-299 1.12027e-300 0)
(-3.63519e-299 9.13842e-301 0)
(-2.09363e-299 6.72822e-301 0)
(-1.11089e-299 4.33648e-301 0)
(-1.08904e-298 -8.23171e-299 0)
(-3.06281e-298 -2.50629e-298 0)
(-5.12899e-298 -4.0183e-298 0)
(-7.43363e-298 -5.29015e-298 0)
(-1.01303e-297 -6.25282e-298 0)
(-1.33643e-297 -6.83139e-298 0)
(-1.72692e-297 -6.94067e-298 0)
(-2.19648e-297 -6.47438e-298 0)
(-2.75551e-297 -5.30274e-298 0)
(-3.41291e-297 -3.26895e-298 0)
(-4.17594e-297 -1.96033e-299 0)
(-5.05095e-297 4.08665e-298 0)
(-6.0291e-297 9.17386e-298 0)
(-1.94372e-297 1.8948e-298 0)
(-9.03174e-298 3.20592e-299 0)
(-5.00077e-298 3.47589e-300 0)
(-2.95724e-298 -1.20767e-300 0)
(-1.79566e-298 -9.89242e-301 0)
(-1.09777e-298 -1.47933e-301 0)
(-6.67049e-299 3.94911e-301 0)
(-3.98061e-299 5.80514e-301 0)
(-2.29104e-299 5.40237e-301 0)
(-1.21536e-299 3.96782e-301 0)
(-1.23165e-298 -1.14877e-298 0)
(-3.40007e-298 -3.47542e-298 0)
(-5.65645e-298 -5.58611e-298 0)
(-8.1719e-298 -7.39054e-298 0)
(-1.11275e-297 -8.80626e-298 0)
(-1.4691e-297 -9.7555e-298 0)
(-1.90141e-297 -1.01502e-297 0)
(-2.42297e-297 -9.88142e-298 0)
(-3.04528e-297 -8.80533e-298 0)
(-3.77793e-297 -6.74295e-298 0)
(-4.62886e-297 -3.47888e-298 0)
(-5.60479e-297 1.20409e-298 0)
(-6.69663e-297 6.93078e-298 0)
(-2.15454e-297 1.22354e-298 0)
(-9.96329e-298 2.26468e-300 0)
(-5.49287e-298 -1.19277e-299 0)
(-3.23803e-298 -9.52452e-300 0)
(-1.96156e-298 -5.50252e-300 0)
(-1.19706e-298 -2.55974e-300 0)
(-7.26394e-299 -8.56148e-301 0)
(-4.33026e-299 -4.01663e-302 0)
(-2.49045e-299 2.53059e-301 0)
(-1.32064e-299 2.82344e-301 0)
(-1.37696e-298 -1.58802e-298 0)
(-3.71523e-298 -4.77224e-298 0)
(-6.13903e-298 -7.67693e-298 0)
(-8.8535e-298 -1.0179e-297 0)
(-1.20734e-297 -1.21841e-297 0)
(-1.5993e-297 -1.36132e-297 0)
(-2.07829e-297 -1.43857e-297 0)
(-2.65915e-297 -1.43917e-297 0)
(-3.35442e-297 -1.34779e-297 0)
(-4.17464e-297 -1.14348e-297 0)
(-5.12837e-297 -7.99998e-298 0)
(-6.22293e-297 -2.88491e-298 0)
(-7.44771e-297 3.5864e-298 0)
(-2.3843e-297 1.79351e-299 0)
(-1.09463e-297 -4.39016e-299 0)
(-6.00148e-298 -3.56182e-299 0)
(-3.52431e-298 -2.22473e-299 0)
(-2.12926e-298 -1.23909e-299 0)
(-1.29688e-298 -6.25248e-300 0)
(-7.85823e-299 -2.79538e-300 0)
(-4.67928e-299 -1.02825e-300 0)
(-2.68886e-299 -2.26907e-301 0)
(-1.42502e-299 7.37956e-302 0)
(-1.51211e-298 -2.17844e-298 0)
(-3.95829e-298 -6.49761e-298 0)
(-6.49809e-298 -1.04407e-297 0)
(-9.38187e-298 -1.38408e-297 0)
(-1.28655e-297 -1.65901e-297 0)
(-1.717e-297 -1.86235e-297 0)
(-2.24854e-297 -1.9877e-297 0)
(-2.89737e-297 -2.0255e-297 0)
(-3.67737e-297 -1.95954e-297 0)
(-4.60013e-297 -1.76599e-297 0)
(-5.6753e-297 -1.41251e-297 0)
(-6.91088e-297 -8.61264e-298 0)
(-8.29299e-297 -1.36069e-298 0)
(-2.63395e-297 -1.4103e-298 0)
(-1.19729e-297 -1.13274e-298 0)
(-6.52e-298 -7.06786e-299 0)
(-3.81187e-298 -4.08185e-299 0)
(-2.29619e-298 -2.2334e-299 0)
(-1.39563e-298 -1.15472e-299 0)
(-8.44309e-299 -5.57563e-300 0)
(-5.02095e-299 -2.45724e-300 0)
(-2.88201e-299 -9.35001e-301 0)
(-1.52609e-299 -2.45076e-301 0)
(-1.61232e-298 -2.97536e-298 0)
(-4.03816e-298 -8.78921e-298 0)
(-6.59626e-298 -1.40756e-297 0)
(-9.59685e-298 -1.86045e-297 0)
(-1.33373e-297 -2.22676e-297 0)
(-1.80602e-297 -2.50315e-297 0)
(-2.39673e-297 -2.6878e-297 0)
(-3.12334e-297 -2.77383e-297 0)
(-4.00109e-297 -2.74569e-297 0)
(-5.04335e-297 -2.57634e-297 0)
(-6.26119e-297 -2.2273e-297 0)
(-7.66435e-297 -1.64963e-297 0)
(-9.23239e-297 -8.55777e-298 0)
(-2.9007e-297 -3.76759e-298 0)
(-1.30203e-297 -2.13827e-298 0)
(-7.03602e-298 -1.20261e-298 0)
(-4.09419e-298 -6.65085e-299 0)
(-2.4587e-298 -3.58445e-299 0)
(-1.49106e-298 -1.86552e-299 0)
(-9.00357e-299 -9.28921e-300 0)
(-5.34519e-299 -4.37122e-300 0)
(-3.06337e-299 -1.89407e-300 0)
(-1.62003e-299 -6.86475e-301 0)
(-1.62902e-298 -4.06689e-298 0)
(-3.78697e-298 -1.18471e-297 0)
(-6.20072e-298 -1.88465e-297 0)
(-9.24454e-298 -2.47588e-297 0)
(-1.32403e-297 -2.94981e-297 0)
(-1.84262e-297 -3.31098e-297 0)
(-2.50012e-297 -3.5653e-297 0)
(-3.31457e-297 -3.71185e-297 0)
(-4.30322e-297 -3.73656e-297 0)
(-5.48185e-297 -3.61048e-297 0)
(-6.86436e-297 -3.2886e-297 0)
(-8.46327e-297 -2.71135e-297 0)
(-1.02482e-296 -1.87724e-297 0)
(-3.17537e-297 -7.14669e-298 0)
(-1.4045e-297 -3.52754e-298 0)
(-7.53069e-298 -1.86306e-298 0)
(-4.36214e-298 -9.97023e-299 0)
(-2.61152e-298 -5.29162e-299 0)
(-1.57964e-298 -2.75167e-299 0)
(-9.51495e-299 -1.38973e-299 0)
(-5.63508e-299 -6.75434e-300 0)
(-3.22203e-299 -3.10106e-300 0)
(-1.70054e-299 -1.25275e-300 0)
(-1.45275e-298 -5.61065e-298 0)
(-2.88316e-298 -1.59736e-297 0)
(-4.91611e-298 -2.51195e-297 0)
(-7.94065e-298 -3.26612e-297 0)
(-1.22283e-297 -3.86059e-297 0)
(-1.79552e-297 -4.31426e-297 0)
(-2.52853e-297 -4.64686e-297 0)
(-3.44028e-297 -4.86597e-297 0)
(-4.55072e-297 -4.96143e-297 0)
(-5.88003e-297 -4.90246e-297 0)
(-7.44616e-297 -4.63936e-297 0)
(-9.26668e-297 -4.10376e-297 0)
(-1.12972e-296 -3.28238e-297 0)
(-3.43804e-297 -1.17644e-297 0)
(-1.49784e-297 -5.31452e-298 0)
(-7.97727e-298 -2.66946e-298 0)
(-4.60168e-298 -1.38747e-298 0)
(-2.74529e-298 -7.25555e-299 0)
(-1.65474e-298 -3.76203e-299 0)
(-9.93149e-299 -1.91592e-299 0)
(-5.86067e-299 -9.50038e-300 0)
(-3.33968e-299 -4.51231e-300 0)
(-1.75749e-299 -1.92875e-300 0)
(-7.75484e-299 -7.90797e-298 0)
(-6.66666e-299 -2.16485e-297 0)
(-2.06991e-298 -3.33968e-297 0)
(-5.12866e-298 -4.27502e-297 0)
(-9.8643e-298 -4.99403e-297 0)
(-1.62783e-297 -5.54155e-297 0)
(-2.44673e-297 -5.95685e-297 0)
(-3.46252e-297 -6.26022e-297 0)
(-4.70091e-297 -6.44581e-297 0)
(-6.18887e-297 -6.48221e-297 0)
(-7.95057e-297 -6.31543e-297 0)
(-1.00097e-296 -5.87484e-297 0)
(-1.23069e-296 -5.14345e-297 0)
(-3.64828e-297 -1.75907e-297 0)
(-1.57171e-297 -7.34594e-298 0)
(-8.33041e-298 -3.5237e-298 0)
(-4.78366e-298 -1.78618e-298 0)
(-2.83983e-298 -9.24022e-299 0)
(-1.70291e-298 -4.78952e-299 0)
(-1.01686e-298 -2.45939e-299 0)
(-5.97163e-299 -1.23926e-299 0)
(-3.38795e-299 -6.03002e-300 0)
(-1.77613e-299 -2.67304e-300 0)
(1.50051e-298 -1.15368e-297 0)
(4.30302e-298 -2.96198e-297 0)
(3.47084e-298 -4.4338e-297 0)
(-6.89549e-300 -5.55113e-297 0)
(-5.67242e-298 -6.38464e-297 0)
(-1.30364e-297 -7.0176e-297 0)
(-2.21908e-297 -7.51584e-297 0)
(-3.33987e-297 -7.91364e-297 0)
(-4.70379e-297 -8.2105e-297 0)
(-6.34966e-297 -8.37229e-297 0)
(-8.30868e-297 -8.34104e-297 0)
(-1.06076e-296 -8.05022e-297 0)
(-1.31789e-296 -7.49982e-297 0)
(-3.72426e-297 -2.37486e-297 0)
(-1.6091e-297 -9.1187e-298 0)
(-8.4825e-298 -4.20854e-298 0)
(-4.83651e-298 -2.10528e-298 0)
(-2.85157e-298 -1.08871e-298 0)
(-1.69939e-298 -5.68089e-299 0)
(-1.00912e-298 -2.95074e-299 0)
(-5.89648e-299 -1.51004e-299 0)
(-3.33036e-299 -7.49292e-300 0)
(-1.73893e-299 -3.40996e-300 0)
(9.68796e-298 -1.67266e-297 0)
(1.5206e-297 -4.10355e-297 0)
(1.33855e-297 -5.87742e-297 0)
(7.96937e-298 -7.14655e-297 0)
(6.42067e-299 -8.06451e-297 0)
(-8.04061e-298 -8.76441e-297 0)
(-1.81969e-297 -9.34077e-297 0)
(-3.03179e-297 -9.84319e-297 0)
(-4.50465e-297 -1.02741e-296 0)
(-6.29819e-297 -1.05939e-296 0)
(-8.45144e-297 -1.07327e-296 0)
(-1.09743e-296 -1.06249e-296 0)
(-1.37831e-296 -1.03086e-296 0)
(-3.58712e-297 -2.58544e-297 0)
(-1.54901e-297 -9.42208e-298 0)
(-8.09679e-298 -4.40484e-298 0)
(-4.60043e-298 -2.24655e-298 0)
(-2.70658e-298 -1.18249e-298 0)
(-1.6102e-298 -6.27086e-299 0)
(-9.5431e-299 -3.3084e-299 0)
(-5.56367e-299 -1.72011e-299 0)
(-3.13452e-299 -8.68026e-300 0)
(-1.63188e-299 -4.02987e-300 0)
(3.83603e-297 -2.63468e-297 0)
(3.58569e-297 -5.56735e-297 0)
(2.81616e-297 -7.59397e-297 0)
(1.85118e-297 -8.98201e-297 0)
(8.46977e-298 -9.9666e-297 0)
(-1.73149e-298 -1.07263e-296 0)
(-1.26521e-297 -1.13826e-296 0)
(-2.52706e-297 -1.1998e-296 0)
(-4.07021e-297 -1.25779e-296 0)
(-5.99391e-297 -1.30749e-296 0)
(-8.35261e-297 -1.34061e-296 0)
(-1.11027e-296 -1.34669e-296 0)
(-4.66794e-297 -4.50283e-297 0)
(-2.15522e-297 -1.74302e-297 0)
(-1.15153e-297 -8.04204e-298 0)
(-6.57648e-298 -4.1025e-298 0)
(-3.90135e-298 -2.18899e-298 0)
(-2.34969e-298 -1.1863e-298 0)
(-1.41673e-298 -6.43056e-299 0)
(-8.46058e-299 -3.45504e-299 0)
(-4.95242e-299 -1.8256e-299 0)
(-2.79469e-299 -9.3531e-300 0)
(-1.45415e-299 -4.41086e-300 0)
(1.26739e-297 -1.53796e-297 0)
(8.35175e-298 -2.47831e-297 0)
(6.05053e-298 -2.89852e-297 0)
(3.63118e-298 -3.19859e-297 0)
(1.09225e-298 -3.419e-297 0)
(-1.66776e-298 -3.58647e-297 0)
(-4.85448e-298 -3.72182e-297 0)
(-8.75306e-298 -3.83417e-297 0)
(-1.36322e-297 -3.91631e-297 0)
(-1.95077e-297 -3.93752e-297 0)
(-2.55055e-297 -3.83083e-297 0)
(-2.72031e-297 -3.56844e-297 0)
(-1.79316e-297 -2.1309e-297 0)
(-1.16707e-297 -1.15386e-297 0)
(-7.45184e-298 -6.28152e-298 0)
(-4.72634e-298 -3.49091e-298 0)
(-2.98256e-298 -1.95899e-298 0)
(-1.86676e-298 -1.09841e-298 0)
(-1.15347e-298 -6.10782e-299 0)
(-6.99715e-299 -3.34855e-299 0)
(-4.13627e-299 -1.7991e-299 0)
(-2.34753e-299 -9.35015e-300 0)
(-1.22376e-299 -4.46648e-300 0)
(-3.79342e-300 -7.41979e-298 0)
(5.56006e-300 -1.21011e-297 0)
(9.07441e-300 -1.3966e-297 0)
(-1.78585e-299 -1.52093e-297 0)
(-7.16332e-299 -1.60639e-297 0)
(-1.51183e-298 -1.66452e-297 0)
(-2.60169e-298 -1.70339e-297 0)
(-4.03861e-298 -1.72687e-297 0)
(-5.83127e-298 -1.73443e-297 0)
(-7.82871e-298 -1.72187e-297 0)
(-9.53319e-298 -1.68125e-297 0)
(-9.73978e-298 -1.56804e-297 0)
(-8.20696e-298 -1.15371e-297 0)
(-6.33799e-298 -7.44344e-298 0)
(-4.57602e-298 -4.5704e-298 0)
(-3.16009e-298 -2.74274e-298 0)
(-2.1145e-298 -1.61989e-298 0)
(-1.37837e-298 -9.41986e-299 0)
(-8.76006e-299 -5.38259e-299 0)
(-5.418e-299 -3.01391e-299 0)
(-3.24505e-299 -1.64685e-299 0)
(-1.85712e-299 -8.67647e-300 0)
(-9.71437e-300 -4.18907e-300 0)
(-1.23636e-298 -3.09928e-298 0)
(-1.10092e-298 -6.14985e-298 0)
(-9.33141e-299 -7.53354e-298 0)
(-8.51572e-299 -8.34228e-298 0)
(-9.22059e-299 -8.83517e-298 0)
(-1.15704e-298 -9.12736e-298 0)
(-1.56956e-298 -9.28553e-298 0)
(-2.16531e-298 -9.34719e-298 0)
(-2.91669e-298 -9.32817e-298 0)
(-3.72092e-298 -9.22257e-298 0)
(-4.35959e-298 -8.97171e-298 0)
(-4.5133e-298 -8.30319e-298 0)
(-4.16321e-298 -6.65296e-298 0)
(-3.51295e-298 -4.75503e-298 0)
(-2.7434e-298 -3.17328e-298 0)
(-2.01871e-298 -2.02673e-298 0)
(-1.4188e-298 -1.25365e-298 0)
(-9.59601e-299 -7.54677e-299 0)
(-6.26681e-299 -4.4275e-299 0)
(-3.95342e-299 -2.53055e-299 0)
(-2.40137e-299 -1.40531e-299 0)
(-1.38717e-299 -7.49802e-300 0)
(-7.28482e-300 -3.65137e-300 0)
(-8.27285e-299 -1.33676e-298 0)
(-9.02127e-299 -3.15483e-298 0)
(-8.59466e-299 -4.15785e-298 0)
(-7.86606e-299 -4.75954e-298 0)
(-7.64736e-299 -5.11597e-298 0)
(-8.23876e-299 -5.31447e-298 0)
(-9.78711e-299 -5.41021e-298 0)
(-1.23029e-298 -5.43749e-298 0)
(-1.55791e-298 -5.41428e-298 0)
(-1.90751e-298 -5.33849e-298 0)
(-2.18834e-298 -5.1664e-298 0)
(-2.29979e-298 -4.7669e-298 0)
(-2.21712e-298 -3.97787e-298 0)
(-1.96844e-298 -3.01751e-298 0)
(-1.61874e-298 -2.13182e-298 0)
(-1.2482e-298 -1.42859e-298 0)
(-9.12192e-299 -9.18305e-299 0)
(-6.36463e-299 -5.69773e-299 0)
(-4.25811e-299 -3.42312e-299 0)
(-2.73579e-299 -1.99348e-299 0)
(-1.68424e-299 -1.12348e-299 0)
(-9.81859e-300 -6.06183e-300 0)
(-5.17518e-300 -2.97128e-300 0)
(-4.55684e-299 -6.01687e-299 0)
(-5.68932e-299 -1.62464e-298 0)
(-5.91042e-299 -2.2948e-298 0)
(-5.64769e-299 -2.73133e-298 0)
(-5.42813e-299 -3.00106e-298 0)
(-5.52224e-299 -3.1546e-298 0)
(-6.07515e-299 -3.22999e-298 0)
(-7.11951e-299 -3.25353e-298 0)
(-8.5558e-299 -3.23964e-298 0)
(-1.01319e-298 -3.18716e-298 0)
(-1.14681e-298 -3.06956e-298 0)
(-1.21727e-298 -2.82748e-298 0)
(-1.20369e-298 -2.41125e-298 0)
(-1.104e-298 -1.89721e-298 0)
(-9.41029e-299 -1.39389e-298 0)
(-7.51058e-299 -9.68157e-299 0)
(-5.65784e-299 -6.41625e-299 0)
(-4.04899e-299 -4.0823e-299 0)
(-2.76468e-299 -2.50287e-299 0)
(-1.80475e-299 -1.48141e-299 0)
(-1.12445e-299 -8.45645e-300 0)
(-6.6096e-300 -4.60628e-300 0)
(-3.49374e-300 -2.26783e-300 0)
(-2.3472e-299 -2.79018e-299 0)
(-3.23332e-299 -8.36209e-299 0)
(-3.5893e-299 -1.25624e-298 0)
(-3.59023e-299 -1.55564e-298 0)
(-3.50084e-299 -1.75328e-298 0)
(-3.49483e-299 -1.87233e-298 0)
(-3.68234e-299 -1.93494e-298 0)
(-4.10579e-299 -1.95844e-298 0)
(-4.73279e-299 -1.95281e-298 0)
(-5.45615e-299 -1.91789e-298 0)
(-6.11302e-299 -1.83978e-298 0)
(-6.52648e-299 -1.6928e-298 0)
(-6.55843e-299 -1.46149e-298 0)
(-6.15179e-299 -1.17667e-298 0)
(-5.3799e-299 -8.88039e-299 0)
(-4.40507e-299 -6.33229e-299 0)