/*--------------------------------*- C++ -*----------------------------------*\
| =========                 |                                                 |
| \\      /  F ield         | OpenFOAM: The Open Source CFD Toolbox           |
|  \\    /   O peration     | Version:  2406                                  |
|   \\  /    A nd           | Website:  www.openfoam.com                      |
|    \\/     M anipulation  |                                                 |
\*---------------------------------------------------------------------------*/
FoamFile
{
    version     2.0;
    format      ascii;
    arch        "LSB;label=32;scalar=64";
    class       volScalarField;
    location    "3";
    object      alpha.grout;
}
// * * * * * * * * * * * * * * * * * * * * * * * * * * * * * * * * * * * * * //

dimensions      [0 0 0 0 0 0 0];

internalField   nonuniform List<scalar> 
10000
(
1
1
1
1
1
1
1
1
1
1
1
1
1
1
1
1
1
1
1
1
1
1
1
1
1
1
1
1
1
1
1
1
1
1
1
1
1
1
1
1
1
1
1
1
1
1
1
1
1
1
1
1
1
1
1
1
1
1
1
1
1
1
1
1
1
1
1
1
1
1
1
1
1
1
1
1
1
1
1
1
1
1
1
1
1
1
1
1
1
1
1
1
1
1
1
1
1
1
1
1
1
1
1
1
1
1
1
1
1
1
1
1
1
1
1
1
1
1
1
1
1
1
1
1
1
1
1
1
1
1
1
1
1
1
1
1
1
1
1
1
1
1
1
1
1
1
1
1
1
1
1
1
1
1
1
1
1
1
1
1
1
1
1
1
1
1
1
1
1
1
1
1
1
1
1
1
1
1
1
1
1
1
1
1
1
1
1
1
1
1
1
1
1
1
1
1
1
1
1
1
1
1
1
1
1
1
1
1
1
1
1
1
1
1
1
1
1
1
1
1
1
1
1
1
1
1
1
1
1
1
1
1
1
1
1
1
1
1
1
1
1
1
1
1
1
1
1
1
1
1
1
1
1
1
1
1
1
1
1
1
1
1
1
1
1
1
1
1
1
1
1
1
1
1
1
1
1
1
1
1
1
1
1
1
1
1
1
1
1
1
1
1
1
1
1
1
1
1
1
1
1
1
1
1
1
1
1
1
1
1
1
1
1
1
1
1
1
1
1
1
1
1
1
1
1
1
1
1
1
1
1
1
1
1
1
1
1
1
1
1
1
1
1
1
1
1
1
1
1
1
1
1
1
1
1
1
1
1
1
1
1
1
1
1
1
1
1
1
1
1
1
1
1
1
1
1
1
1
1
1
1
1
1
1
1
1
1
1
1
1
1
1
1
1
1
1
1
1
1
1
1
1
1
1
1
1
1
1
1
1
1
1
1
1
1
1
1
1
1
1
1
1
1
1
1
1
1
1
1
1
1
1
1
1
1
1
1
1
1
1
1
1
1
1
1
1
1
1
1
1
1
1
1
1
1
1
1
1
1
1
1
1
1
1
1
1
1
1
1
1
1
1
1
1
1
1
1
1
1
1
1
1
1
1
1
1
1
1
1
1
1
1
1
1
1
1
1
1
1
1
1
1
1
1
1
1
1
1
1
1
1
1
1
1
1
1
1
1
1
1
1
1
1
1
1
1
1
1
1
1
1
1
1
1
1
1
1
1
1
1
1
1
1
1
1
1
1
1
1
1
1
1
1
1
1
1
1
1
1
1
1
1
1
1
1
1
1
1
1
1
1
1
1
1
1
1
1
1
1
1
1
1
1
1
1
1
1
1
1
1
1
1
1
1
1
1
1
1
1
1
1
1
1
1
1
1
1
1
1
1
1
1
1
1
1
1
1
1
1
1
1
1
1
1
1
1
1
1
1
1
1
1
1
1
1
1
1
1
1
1
1
1
1
1
1
1
1
1
1
1
1
1
1
1
1
1
1
1
1
1
1
1
1
1
1
1
1
1
1
1
1
1
1
1
1
1
1
1
1
1
1
1
1
1
1
1
1
1
1
1
1
1
1
1
1
1
1
1
1
1
1
1
1
1
1
1
1
1
1
1
1
1
1
1
1
1
1
1
1
1
1
1
1
1
1
1
1
1
1
1
1
1
1
1
1
1
1
1
1
1
1
1
1
1
1
1
1
1
1
1
1
1
1
1
1
1
1
1
1
1
1
1
1
1
1
1
1
1
1
1
1
1
1
1
1
1
1
1
1
1
1
1
1
1
1
1
1
1
1
1
1
1
1
1
1
1
1
1
1
1
1
1
1
1
1
1
1
1
1
1
1
1
1
1
1
1
1
1
1
1
1
1
1
1
1
1
1
1
1
1
1
1
1
1
1
1
1
1
1
1
1
1
1
1
1
1
1
1
1
1
1
1
1
1
1
1
1
1
1
1
1
1
1
1
1
1
1
1
1
1
1
1
1
1
1
1
1
1
1
1
1
1
1
1
1
1
1
1
1
1
1
1
1
1
1
1
1
1
1
1
1
1
1
1
1
1
1
1
1
1
1
1
1
1
1
1
1
1
1
1
1
1
1
1
1
1
1
1
1
1
1
1
1
1
1
1
1
1
1
1
1
1
1
1
1
1
1
1
1
1
1
1
1
1
1
1
1
1
1
1
1
1
1
1
1
1
1
1
1
1
1
1
1
1
1
1
1
1
1
1
1
1
1
1
1
1
1
1
1
1
1
1
1
1
1
1
1
1
1
1
1
1
1
1
1
1
1
1
1
1
1
1
1
1
1
1
1
1
1
1
1
1
1
1
1
1
1
1
1
1
1
1
1
1
1
1
1
1
1
1
1
1
1
1
1
1
1
1
1
1
1
1
1
1
1
1
1
1
1
1
1
1
1
1
1
1
1
1
1
1
1
1
1
1
1
1
1
1
1
1
1
1
1
1
1
1
1
1
1
1
1
1
1
1
1
1
1
1
1
1
1
1
1
1
1
1
1
1
1
1
1
1
1
1
1
1
1
1
1
1
1
1
1
1
1
1
1
1
1
1
1
1
1
1
1
1
1
1
1
1
1
1
1
1
1
1
1
1
1
1
1
1
1
1
1
1
1
1
1
1
1
1
1
1
1
1
1
1
1
1
1
1
1
1
1
1
1
1
1
1
1
1
1
1
1
1
1
1
1
1
1
1
1
1
1
1
1
1
1
1
1
1
1
1
1
1
1
1
1
1
1
1
1
1
1
1
1
1
1
1
1
1
1
1
1
1
1
1
1
1
1
1
1
1
1
1
1
1
1
1
1
1
1
1
1
1
1
1
1
1
1
1
1
1
1
1
1
1
1
1
1
1
1
1
1
1
1
1
1
1
1
1
1
1
1
1
1
1
1
1
1
1
1
1
1
1
1
1
1
1
1
1
1
1
1
1
1
1
1
1
1
1
1
1
1
1
1
1
1
1
1
1
1
1
1
1
1
1
1
1
1
1
1
1
1
1
1
1
1
1
1
1
1
1
1
1
1
1
1
1
1
1
1
1
1
1
1
1
1
1
1
1
1
1
1
1
1
1
1
1
1
1
1
1
1
1
1
1
1
1
1
1
1
1
1
1
1
1
1
1
1
1
1
1
1
1
1
1
1
1
1
1
1
1
1
1
1
1
1
1
1
1
1
1
1
1
1
1
1
1
1
1
1
1
1
1
1
1
1
1
1
1
1
1
1
1
1
1
1
1
1
1
1
1
1
1
1
1
1
1
1
1
1
1
1
1
1
1
1
1
1
1
1
1
1
1
1
1
1
1
1
1
1
1
1
1
1
1
1
1
1
1
1
1
1
1
1
1
1
1
1
1
1
1
1
1
1
1
1
1
1
1
1
1
1
1
1
1
1
1
1
1
1
1
1
1
1
1
1
1
1
1
1
1
1
1
1
1
1
1
1
1
1
1
1
1
1
1
1
1
1
1
1
1
1
1
1
1
1
1
1
1
1
1
1
1
1
1
1
1
1
1
1
1
1
1
1
1
1
1
1
1
1
1
1
1
1
1
1
1
1
1
1
1
1
1
1
1
1
1
1
1
1
1
1
1
1
1
1
1
1
1
1
1
1
1
1
1
1
1
1
1
1
1
1
1
1
1
1
1
1
1
1
1
1
1
1
1
1
1
1
1
1
1
1
1
1
1
1
1
1
1
1
1
1
1
1
1
1
1
1
1
1
1
1
1
1
1
1
1
1
1
1
1
1
1
1
1
1
1
1
1
1
1
1
1
1
1
1
1
1
1
1
1
1
1
1
1
1
1
1
1
1
1
1
1
1
1
1
1
1
1
1
1
1
1
1
1
1
1
1
1
1
1
1
1
1
1
1
1
1
1
1
1
1
1
1
1
1
1
1
1
1
1
1
1
1
1
1
1
1
1
1
1
1
1
1
1
1
1
1
1
1
1
1
1
1
1
1
1
1
1
1
1
1
1
1
1
1
1
1
1
1
1
1
1
1
1
1
1
1
1
1
1
1
1
1
1
1
1
1
1
1
1
1
1
1
1
1
1
1
1
1
1
1
1
1
1
1
1
1
1
1
1
1
1
1
1
1
1
1
1
1
1
1
1
1
1
1
1
1
1
1
1
1
1
1
1
1
1
1
1
1
1
1
1
1
1
1
1
1
1
1
1
1
1
1
1
1
1
1
1
1
1
1
1
1
1
1
1
1
1
1
1
1
1
1
1
1
1
1
1
1
1
1
1
1
1
1
1
1
1
1
1
1
1
1
1
1
1
1
1
1
1
1
1
1
1
1
1
1
1
1
1
1
1
1
1
1
1
1
1
1
1
1
1
1
1
1
1
1
1
1
1
1
1
1
1
1
1
1
1
1
1
1
1
1
1
1
1
1
1
1
1
1
1
1
1
1
1
1
1
1
1
1
1
1
1
1
1
1
1
1
1
1
1
1
1
1
1
1
1
1
1
1
1
1
1
1
1
1
1
1
1
1
1
1
1
1
1
1
1
1
1
1
1
1
1
1
1
1
1
1
1
1
1
1
1
1
1
1
1
1
1
1
1
1
1
1
1
1
1
1
1
1
1
1
1
1
1
1
1
1
1
1
1
1
1
1
1
1
1
1
1
1
1
1
1
1
1
1
1
1
1
1
1
1
1
1
1
1
1
1
1
1
1
1
1
1
1
1
1
1
1
1
1
1
1
1
1
1
1
1
1
1
1
1
1
1
1
1
1
1
1
1
1
1
1
1
1
1
1
1
1
1
1
1
1
1
1
1
1
1
1
1
1
1
1
1
1
1
1
1
1
1
1
1
1
1
1
1
1
1
1
1
1
1
1
1
1
1
1
1
1
1
1
1
1
1
1
1
1
1
1
1
1
1
1
1
1
1
1
1
1
1
1
1
1
1
1
1
1
1
1
1
1
1
1
1
1
1
1
1
1
1
1
1
1
1
1
1
1
1
1
1
1
1
1
1
1
1
1
1
1
1
1
1
1
1
1
1
1
1
1
1
1
1
1
1
1
1
1
1
1
1
1
1
1
1
1
1
1
1
1
1
1
1
1
1
1
1
1
1
1
1
1
1
1
1
1
1
1
1
1
1
1
1
1
1
1
1
1
1
1
1
1
1
1
1
1
1
1
1
1
1
1
1
1
1
1
1
1
1
1
1
1
1
1
1
1
1
1
1
1
1
1
1
1
1
1
1
1
1
1
1
1
1
1
1
1
1
1
1
1
1
1
1
1
1
1
1
1
1
1
1
1
1
1
1
1
1
1
1
1
1
1
1
1
1
1
1
1
1
1
1
1
1
1
1
1
1
1
1
1
1
1
1
1
1
1
1
1
1
1
1
1
1
1
1
1
1
1
1
1
1
1
1
1
1
1
1
1
1
1
1
1
1
1
1
1
1
1
1
1
1
1
1
1
1
1
1
1
1
1
1
1
1
1
1
1
1
1
1
1
1
1
1
1
1
1
1
1
1
1
1
1
1
1
1
1
1
1
1
1
1
1
1
1
1
1
1
1
1
1
1
1
1
1
1
1
1
1
1
1
1
1
1
1
1
1
1
1
1
1
1
1
1
1
1
1
1
1
1
1
1
1
1
1
1
1
1
1
1
1
1
1
1
1
1
1
1
1
1
1
1
1
1
1
1
1
1
1
1
1
1
1
1
1
1
1
1
1
1
1
1
1
1
1
1
1
1
1
1
1
1
1
1
1
1
1
1
1
1
1
1
1
1
1
1
1
1
1
1
1
1
1
1
1
1
1
1
1
1
1
1
1
1
1
1
1
1
1
1
1
1
1
1
1
1
1
1
1
1
1
1
1
1
1
1
1
1
1
1
1
1
1
1
1
1
1
1
1
1
1
1
1
1
1
1
1
1
1
1
1
1
1
1
1
1
1
1
1
1
1
1
1
1
1
1
1
1
1
1
1
1
1
1
1
1
1
1
1
1
1
1
1
1
1
1
1
1
1
1
1
1
1
1
1
1
1
1
1
1
1
1
1
1
1
1
1
1
1
1
1
1
1
1
1
1
1
1
1
1
1
1
1
1
1
1
1
1
1
1
1
1
1
1
1
1
1
1
1
1
1
1
1
1
1
1
1
1
1
1
1
1
1
1
1
1
1
1
1
1
1
1
1
1
1
1
1
1
1
1
1
1
1
1
1
1
1
1
1
1
1
1
1
1
1
1
1
1
1
1
1
1
1
1
1
1
1
1
1
1
1
1
1
1
1
1
1
1
1
1
1
1
1
1
1
1
1
1
1
1
1
1
1
1
1
1
1
1
1
1
1
1
1
1
1
1
1
1
1
1
1
1
1
1
1
1
1
1
1
1
1
1
1
1
1
1
1
1
1
1
1
1
1
1
1
1
1
1
1
1
1
1
1
1
1
1
1
1
1
1
1
1
1
1
1
1
1
1
1
1
1
1
1
1
1
1
1
1
1
1
1
1
1
1
1
1
1
1
1
1
1
1
1
1
1
1
1
1
1
1
1
1
1
1
1
1
1
1
1
1
1
1
1
1
1
1
1
1
1
1
1
1
1
1
1
1
1
1
1
1
1
1
1
1
1
1
1
1
1
1
1
1
1
1
1
1
1
1
1
1
1
1
1
1
1
1
1
1
1
1
1
1
1
1
1
1
1
1
1
1
1
1
1
1
1
1
1
1
1
1
1
1
1
1
1
1
1
1
1
1
1
1
1
1
1
1
1
1
1
1
1
1
1
1
1
1
1
1
1
1
1
1
1
1
1
1
1
1
1
1
1
1
1
1
1
1
1
1
1
1
1
1
1
1
1
1
1
1
1
1
1
1
1
1
1
1
1
1
1
1
1
1
1
1
1
1
1
1
1
1
1
1
1
1
1
1
1
1
1
1
1
1
1
1
1
1
1
1
1
1
1
1
1
1
1
1
1
1
1
1
1
1
1
1
1
1
1
1
1
1
1
1
1
1
1
1
1
1
1
1
1
1
1
1
1
1
1
1
1
1
1
1
1
1
1
1
1
1
1
1
1
1
1
1
1
1
1
1
1
1
1
1
1
1
1
1
1
1
1
1
1
1
1
1
1
1
1
1
1
1
1
1
1
1
1
1
1
1
1
1
1
1
1
1
1
1
1
1
1
1
1
1
1
1
1
1
1
1
1
1
1
1
1
1
1
1
1
1
1
1
1
1
1
1
1
1
1
1
1
1
1
1
1
1
1
1
1
1
1
1
1
1
1
1
1
1
1
1
1
1
1
1
1
1
1
1
1
1
1
1
1
1
1
1
1
1
1
1
1
1
1
1
1
1
1
1
1
1
1
1
1
1
1
1
1
1
1
1
1
1
1
1
1
1
1
1
1
1
1
1
1
1
1
1
1
1
1
1
1
1
1
1
1
1
1
1
1
1
1
1
1
1
1
1
1
1
1
1
1
1
1
1
1
1
1
1
1
1
1
1
1
1
1
1
1
1
1
1
1
1
1
1
1
1
1
1
1
1
1
1
1
1
1
1
1
1
1
1
1
1
1
1
1
1
1
1
1
1
1
1
1
1
1
1
1
1
1
1
1
1
1
1
1
1
1
1
1
1
1
1
1
1
1
1
1
1
1
1
1
1
1
1
1
1
1
1
1
1
1
1
1
1
1
1
1
1
1
1
1
1
1
1
1
1
1
1
1
1
1
1
1
1
1
1
1
1
1
1
1
1
1
1
1
1
1
1
1
1
1
1
1
1
1
1
1
1
1
1
1
1
1
1
1
1
1
1
1
1
1
1
1
1
1
1
1
1
1
1
1
1
1
1
1
1
1
1
1
1
1
1
1
1
1
1
1
1
1
1
1
1
1
1
1
1
1
1
1
1
1
1
1
1
1
1
1
1
1
1
1
1
1
1
1
1
1
1
1
1
1
1
1
1
1
1
1
1
1
1
1
1
1
1
1
1
1
1
1
1
1
1
1
1
1
1
1
1
1
1
1
1
1
1
1
1
1
1
1
1
1
1
1
1
1
1
1
1
1
1
1
1
1
1
1
1
1
1
1
1
1
1
1
1
1
1
1
1
1
1
1
1
1
1
1
1
1
1
1
1
1
1
1
1
1
1
1
1
1
1
1
1
1
1
1
1
1
1
1
1
1
1
1
1
1
1
1
1
1
1
1
1
1
1
1
1
1
1
1
1
1
1
1
1
1
1
1
1
1
1
1
1
1
1
1
1
1
1
1
1
1
1
1
1
1
1
1
1
1
1
1
1
1
1
1
1
1
1
1
1
1
1
1
1
1
1
1
1
1
1
1
1
1
1
1
1
1
1
1
1
1
1
1
1
1
1
1
1
1
1
1
1
1
1
1
1
1
1
1
1
1
1
1
1
1
1
1
1
1
1
1
1
1
1
1
1
1
1
1
1
1
1
1
1
1
1
1
1
1
1
1
1
1
1
1
1
1
1
1
1
1
1
1
1
1
1
1
1
1
1
1
1
1
1
1
1
1
1
1
1
1
1
1
1
1
1
1
1
1
1
1
1
1
1
1
1
1
1
1
1
1
1
1
1
1
1
1
1
1
1
1
1
1
1
1
1
1
1
1
1
1
1
1
1
1
1
1
1
1
1
1
1
1
1
1
1
1
1
1
1
1
1
1
1
1
1
1
1
1
1
1
1
1
1
1
1
1
1
1
1
1
1
1
1
1
1
1
1
1
1
1
1
1
1
1
1
1
1
1
1
1
1
1
1
1
1
1
1
1
1
1
1
1
1
1
1
1
1
1
1
1
1
1
1
1
1
1
1
1
1
1
1
1
1
1
1
1
1
1
1
1
1
1
1
1
1
1
1
1
1
1
1
1
1
1
1
1
1
1
1
1
1
1
1
1
1
1
1
1
1
1
1
1
1
1
1
1
1
1
1
1
1
1
1
1
1
1
1
1
1
1
1
1
1
1
1
1
1
1
1
1
1
1
1
1
1
1
1
1
1
1
1
1
1
1
1
1
1
1
1
1
1
1
1
1
1
1
1
1
1
1
1
1
1
1
1
1
1
1
1
1
1
1
1
1
1
1
1
1
1
1
1
1
1
1
1
1
1
1
1
1
1
1
1
1
1
1
1
1
1
1
1
1
1
1
1
1
1
1
1
1
1
1
1
1
1
1
1
1
1
1
1
1
1
1
1
1
1
1
1
1
1
1
1
1
1
1
1
1
1
1
1
1
1
1
1
1
1
1
1
1
1
1
1
1
1
1
1
1
1
1
1
1
1
1
1
1
1
1
1
1
1
1
1
1
1
1
1
1
1
1
1
1
1
1
1
1
1
1
1
1
1
1
1
1
1
1
1
1
1
1
1
1
1
1
1
1
1
1
1
1
1
1
1
1
1
1
1
1
1
1
1
1
1
1
1
1
1
1
1
1
1
1
1
1
1
1
1
1
1
1
1
1
1
1
1
1
1
1
1
1
1
1
1
1
1
1
1
1
1
1
1
1
1
1
1
1
1
1
1
1
1
1
1
1
1
1
1
1
1
1
1
1
1
1
1
1
1
1
1
1
1
1
1
1
1
1
1
1
1
1
1
1
1
1
1
1
1
1
1
1
1
1
1
1
1
1
1
1
1
1
1
1
1
1
1
1
1
1
1
1
1
1
1
1
1
1
1
1
1
1
1
1
1
1
1
1
1
1
1
1
1
1
1
1
1
1
1
1
1
1
1
1
1
1
1
1
1
1
1
1
1
1
1
1
1
1
1
1
1
1
1
1
1
1
1
1
1
1
1
1
1
1
1
1
1
1
1
1
1
1
1
1
1
1
1
1
1
1
1
1
1
1
1
1
1
1
1
1
1
1
1
1
1
1
1
1
1
1
1
1
1
1
1
1
1
1
1
1
1
1
1
1
1
1
1
1
1
1
1
1
1
1
1
1
1
1
1
1
1
1
1
1
1
1
1
1
1
1
1
1
1
1
1
1
1
1
1
1
1
1
1
1
1
1
1
1
1
1
1
1
1
1
1
1
1
1
1
1
1
1
1
1
1
1
1
1
1
1
1
1
1
1
1
1
1
1
1
1
1
1
1
1
1
1
1
1
1
1
1
1
1
1
1
1
1
1
1
1
1
1
1
1
1
1
1
1
1
1
1
1
1
1
1
1
1
1
1
1
1
1
1
1
1
1
1
1
1
1
1
1
1
1
1
1
1
1
1
1
1
1
1
1
1
1
1
1
1
1
1
1
1
1
1
1
1
1
1
1
1
1
1
1
1
1
1
1
1
1
1
1
1
1
1
1
1
1
1
1
1
1
1
1
1
1
1
1
1
1
1
1
1
1
1
1
1
1
1
1
1
1
1
1
1
1
1
1
1
1
1
1
1
1
1
1
1
1
1
1
1
1
1
1
1
1
1
1
1
1
1
1
1
1
1
1
1
1
1
1
1
1
1
1
1
1
1
1
1
1
1
1
1
1
1
1
1
1
1
1
1
1
1
1
1
1
1
1
1
1
1
1
1
1
1
1
1
1
1
1
1
1
1
1
1
1
1
1
1
1
1
1
1
1
1
1
1
1
1
1
1
1
1
1
1
1
1
1
1
1
1
1
1
1
1
1
1
1
1
1
1
1
1
1
1
1
1
1
1
1
1
1
1
1
1
1
1
1
1
1
1
1
1
1
1
1
1
1
1
1
1
1
1
1
1
1
1
1
1
1
1
1
1
1
1
1
1
1
1
1
1
1
1
1
1
1
1
1
1
1
1
1
1
1
1
1
1
1
1
1
1
1
1
1
1
1
1
1
1
1
1
1
1
1
1
1
1
1
1
1
1
1
1
1
1
1
1
1
1
1
1
1
1
1
1
1
1
1
1
1
1
1
1
1
1
1
1
1
1
1
1
1
1
1
1
1
1
1
1
1
1
1
1
1
1
1
1
1
1
1
1
1
1
1
1
1
1
1
1
1
1
1
1
1
1
1
1
1
1
1
1
1
1
1
1
1
1
1
1
1
1
1
1
1
1
1
1
1
1
1
1
1
1
1
1
1
1
1
1
1
1
1
1
1
1
1
1
1
1
1
1
1
1
1
1
1
1
1
1
1
1
1
1
1
1
1
1
1
1
1
1
1
1
1
1
1
1
1
1
1
1
1
1
1
1
1
1
1
1
1
1
1
1
1
1
1
1
1
1
1
1
1
1
0.999999
0.999999
0.999999
0.999999
1
1
1
1
1
1
1
1
1
1
1
1
1
1
1
1
1
1
1
1
1
1
1
1
1
1
1
1
1
1
1
1
1
1
1
1
1
1
1
1
1
1
1
1
1
1
1
1
0.999999
0.999999
1
1
1
1
1
1
1
1
1
1
1
1
1
1.25271e-06
1.22879e-06
9.86003e-07
9.26899e-07
9.76623e-07
1.00154e-06
9.82798e-07
9.61339e-07
9.16719e-07
8.58951e-07
7.85787e-07
7.05922e-07
6.30881e-07
5.85957e-07
5.47443e-07
5.17629e-07
4.83265e-07
4.45939e-07
4.10405e-07
3.83665e-07
3.74394e-07
3.67088e-07
3.82442e-07
3.77754e-07
3.7407e-07
3.74387e-07
3.81975e-07
4.03151e-07
4.32842e-07
4.7162e-07
5.52607e-07
6.4761e-07
7.46832e-07
8.33782e-07
9.01911e-07
9.36057e-07
9.3215e-07
8.91223e-07
8.09052e-07
7.14728e-07
6.19772e-07
5.37182e-07
5.20292e-07
4.97172e-07
5.16985e-07
5.33698e-07
5.51915e-07
5.752e-07
6.21556e-07
6.55042e-07
6.70322e-07
6.84618e-07
6.95307e-07
7.03683e-07
7.13604e-07
7.15428e-07
7.0775e-07
6.87715e-07
6.80313e-07
7.05475e-07
7.62821e-07
8.45362e-07
9.22763e-07
1.01092e-06
1.10934e-06
1.21342e-06
1.30415e-06
1.35716e-06
1.37562e-06
1.36053e-06
1.31468e-06
1.25087e-06
1.17819e-06
1.10189e-06
1.03685e-06
9.90333e-07
9.61767e-07
9.65038e-07
9.98153e-07
1.04655e-06
1.09981e-06
1.1769e-06
1.25226e-06
1.29901e-06
1.34056e-06
1.37439e-06
1.38656e-06
1.32734e-06
1.27352e-06
1.16623e-06
1.08032e-06
9.53065e-07
8.49728e-07
7.73116e-07
8.03466e-07
8.64275e-07
9.29851e-07
1.04513e-06
1.15259e-06
8.61163e-07
1.494e-13
1.31014e-13
2.99954e-14
2.73007e-13
2.90557e-13
2.01659e-13
1.65218e-13
1.79753e-13
1.92425e-13
1.83437e-13
1.57151e-13
1.22455e-13
7.16256e-14
5.07932e-14
4.796e-14
5.17482e-14
5.35278e-14
4.88691e-14
4.11881e-14
3.58231e-14
4.19261e-14
5.11646e-14
6.14072e-14
6.56217e-14
6.43806e-14
6.06823e-14
6.09975e-14
7.16624e-14
9.07441e-14
1.15568e-13
1.52452e-13
1.94302e-13
2.37619e-13
2.76429e-13
3.0544e-13
3.19125e-13
3.15384e-13
2.93855e-13
2.55137e-13
2.06715e-13
1.55176e-13
1.09e-13
5.04992e-14
3.45706e-14
1.12038e-13
1.33197e-13
1.4327e-13
1.00539e-13
9.79537e-15
3.38773e-14
1.21681e-13
1.08791e-13
1.21105e-13
1.27809e-13
1.28178e-13
1.21413e-13
1.09656e-13
9.66484e-14
8.78314e-14
8.65834e-14
9.3407e-14
1.07588e-13
1.27945e-13
1.56403e-13
1.93914e-13
2.37555e-13
2.77498e-13
3.00554e-13
3.01329e-13
2.83395e-13
2.54609e-13
2.20507e-13
1.82698e-13
1.43265e-13
1.08322e-13
8.3428e-14
7.19568e-14
7.5322e-14
9.34635e-14
1.24691e-13
1.67852e-13
2.20129e-13
2.75894e-13
3.22251e-13
3.57802e-13
3.74181e-13
3.78273e-13
3.63511e-13
3.44758e-13
2.9811e-13
2.42722e-13
1.74969e-13
1.08932e-13
4.42254e-14
3.42142e-13
3.67411e-13
3.86166e-13
3.75064e-13
3.12377e-13
5.65269e-13
1.24226e-22
1.98789e-18
9.69002e-23
8.91447e-19
3.08104e-19
5.70482e-19
1.03706e-18
9.21584e-19
8.2253e-20
1.06626e-25
1.06626e-25
8.12862e-20
6.63753e-20
4.37163e-20
2.52978e-21
3.10014e-21
1.18192e-21
8.38451e-21
2.48711e-20
2.66615e-20
1.80222e-20
4.42639e-28
2.62154e-20
2.90507e-26
1.53313e-20
7.61257e-20
1.11798e-19
9.15084e-20
4.23053e-20
1.81475e-20
1.8281e-20
1.4769e-29
1.4769e-29
1.4769e-29
3.61052e-20
8.79549e-20
1.01005e-19
4.65855e-20
3.03434e-21
7.64578e-21
1.7475e-20
3.52743e-28
3.59303e-28
1.57172e-22
4.57929e-20
4.58871e-20
1.65044e-20
8.93641e-27
8.94841e-27
1.70766e-20
5.67157e-20
7.70328e-20
6.97829e-20
2.41839e-20
1.30418e-29
1.30418e-29
1.30418e-29
4.92438e-21
1.56744e-20
1.75604e-20
7.3571e-21
9.66182e-30
3.55188e-20
1.50229e-19
8.46848e-20
6.03738e-20
7.10571e-20
6.02848e-20
3.3265e-20
3.07426e-21
9.66802e-22
2.18667e-20
4.0952e-20
4.78441e-20
3.96998e-20
2.51846e-20
1.1221e-20
3.6973e-27
3.73805e-27
4.80384e-27
2.06602e-20
6.06127e-20
9.43564e-20
7.85955e-20
7.47032e-22
2.47703e-27
2.47703e-27
7.66635e-20
1.04406e-19
1.18256e-19
8.31589e-20
5.69343e-20
4.79127e-20
2.86175e-20
6.71253e-20
1.16323e-24
1.16319e-24
1.25714e-19
2.25792e-19
2.94987e-19
7.31529e-23
2.69566e-22
9.69001e-23
2.95255e-22
1.40987e-22
3.79275e-23
1.86028e-24
6.98244e-24
1.81668e-24
1.06626e-25
1.43714e-25
5.41611e-25
1.64588e-25
3.62382e-26
2.1107e-26
2.59156e-26
2.35708e-26
1.8772e-26
2.94751e-28
3.71226e-27
6.38577e-27
4.42639e-28
2.65701e-26
2.90507e-26
4.15633e-27
7.69815e-28
1.13176e-26
3.725e-26
1.76301e-26
7.77146e-27
1.09283e-26
4.67963e-28
9.02099e-28
1.4769e-29
3.29566e-27
1.57352e-40
2.09443e-26
1.47644e-26
1.16083e-27
2.43114e-28
6.77818e-28
3.52743e-28
2.86023e-27
1.07501e-26
1.42351e-26
4.44787e-27
3.38495e-27
8.93641e-27
2.61159e-26
3.15228e-26
9.1223e-27
3.08649e-27
1.60629e-26
1.06794e-26
8.3328e-28
2.08198e-27
2.3605e-27
9.05822e-28
3.86208e-27
2.96538e-27
2.71723e-27
2.56356e-29
1.46082e-26
7.44092e-26
6.21461e-26
3.04751e-26
3.24203e-26
3.59975e-26
3.24127e-26
2.31859e-26
2.58423e-26
3.46119e-26
4.45174e-26
3.85691e-26
2.02417e-26
9.4421e-27
6.52546e-27
3.6973e-27
7.87897e-27
9.00076e-27
1.26268e-26
1.37917e-26
3.66767e-26
5.35985e-26
2.89676e-27
1.09185e-26
4.08926e-26
8.80201e-26
7.54553e-26
1.427e-25
1.50915e-25
6.50091e-26
2.27043e-26
9.46989e-27
7.33066e-26
1.28072e-24
1.16319e-24
8.13181e-25
6.10353e-25
1.72581e-25
2.6241e-28
6.14189e-26
2.3959e-27
1.17546e-26
2.48588e-27
2.97632e-28
5.64862e-30
1.40191e-29
2.67144e-30
1.1993e-31
4.66437e-32
6.83965e-31
6.4408e-31
2.63618e-32
3.17885e-32
5.82099e-33
9.96997e-33
2.49478e-32
1.11486e-33
2.4554e-33
3.2355e-33
6.0007e-35
4.2746e-33
3.67876e-32
5.07165e-33
1.91575e-33
1.80221e-34
9.25399e-34
1.1466e-33
8.20736e-34
3.26764e-33
9.34339e-35
4.36732e-34
9.27138e-36
6.2005e-34
1.57352e-40
1.87649e-34
1.3872e-33
3.99245e-34
3.93727e-35
1.68615e-34
1.54429e-34
3.71263e-34
1.90119e-33
6.96524e-33
2.86564e-33
5.23886e-34
6.86427e-34
4.39156e-33
1.62751e-32
5.62336e-33
5.54071e-34
1.45674e-33
8.83671e-34
6.54579e-34
1.15298e-33
1.44974e-33
1.46056e-33
4.2255e-33
2.61629e-33
1.70186e-33
2.22207e-34
2.94139e-33
1.18976e-32
1.69566e-32
8.23618e-33
6.64901e-33
6.4081e-33
3.62914e-33
2.83197e-33
6.63601e-34
4.32999e-33
9.05605e-33
8.81707e-33
6.59798e-33
2.25616e-33
6.37769e-34
8.83451e-34
9.32281e-34
2.01133e-33
8.76809e-33
1.15428e-32
9.88862e-33
1.08854e-32
2.50219e-33
3.14694e-34
4.4687e-33
6.53417e-33
4.8065e-33
1.9217e-32
6.67714e-32
1.10267e-32
6.52634e-33
2.44686e-33
5.07531e-32
6.80757e-30
3.44036e-30
4.62577e-30
2.30702e-30
1.79765e-32
2.47924e-32
3.8868e-30
3.99776e-32
2.61649e-31
2.47482e-32
2.42279e-33
4.21654e-36
7.35264e-36
1.48637e-36
3.58031e-38
8.89319e-39
2.86284e-38
5.13905e-37
2.17743e-38
6.28695e-38
3.11125e-39
1.09248e-39
1.1589e-38
1.07983e-39
9.04145e-40
1.89218e-39
8.63432e-41
6.20162e-39
3.4235e-38
1.94992e-39
8.7015e-40
7.3425e-41
3.51308e-41
3.16287e-47
6.76034e-41
1.82027e-39
7.12843e-41
3.53924e-40
3.50023e-42
6.46062e-41
2.70102e-47
6.31095e-41
2.29449e-40
6.67064e-41
2.0024e-42
2.87529e-41
5.69857e-41
1.03868e-41
2.34808e-40
8.05478e-40
6.49281e-40
3.49137e-40
6.48886e-40
1.93258e-39
3.31194e-39
9.28687e-40
1.60122e-40
1.87599e-40
3.48365e-40
5.74359e-40
8.06384e-40
6.82785e-40
9.39384e-40
1.96688e-39
1.6602e-39
1.38536e-39
2.5891e-40
1.63094e-39
4.7774e-39
3.07068e-39
1.08343e-39
8.099e-40
6.59971e-40
6.97216e-40
1.09917e-39
3.08783e-40
1.49442e-39
1.23576e-39
1.24437e-39
1.52336e-39
7.35577e-40
4.64482e-40
8.06893e-40
9.85929e-40
7.24214e-40
2.07812e-39
3.57383e-39
3.62079e-39
5.44623e-39
2.17677e-39
7.93873e-41
7.45853e-40
1.55364e-39
2.68902e-39
1.28158e-38
1.54552e-38
1.60627e-39
1.73059e-39
3.01331e-40
2.93369e-38
1.13222e-35
1.38944e-35
3.20512e-36
4.37726e-36
9.26607e-39
1.31485e-36
8.08684e-35
1.12755e-37
2.78339e-36
1.32595e-37
1.08943e-38
1.16576e-41
2.71512e-43
3.27689e-43
1.11979e-44
1.74443e-44
1.8357e-44
1.10177e-43
1.15506e-45
2.76754e-44
1.79376e-45
6.71848e-46
2.77386e-45
1.57584e-46
4.33021e-46
3.53532e-47
1.08838e-47
3.67993e-45
2.86124e-44
1.16915e-45
3.29656e-46
2.19948e-47
5.16634e-48
3.61226e-54
6.1787e-48
2.00507e-46
6.15363e-48
1.37981e-46
1.54707e-48
1.53167e-47
3.33705e-54
5.08773e-48
4.86546e-47
7.59661e-48
3.86774e-54
2.05677e-48
1.09435e-47
1.37288e-48
1.43959e-47
1.07035e-46
2.8421e-47
1.94113e-47
1.6907e-46
8.89368e-46
1.99169e-45
3.30144e-46
6.20536e-47
9.623e-47
1.24498e-46
1.82031e-46
2.51057e-46
2.758e-46
3.68639e-46
5.61581e-46
5.82483e-46
3.4897e-46
6.64254e-47
3.03947e-46
1.55168e-45
1.17344e-45
2.31541e-46
5.20304e-47
1.15729e-46
3.19362e-47
3.61569e-47
4.91847e-47
4.03434e-46
4.47128e-46
3.11521e-46
1.79838e-46
2.816e-46
1.11995e-46
2.07396e-46
6.08645e-46
5.86866e-46
1.29964e-45
6.28932e-46
1.37141e-45
3.58866e-45
1.12315e-45
9.47953e-48
9.53375e-47
4.82906e-47
2.22474e-46
6.55911e-45
1.79489e-44
1.16622e-45
5.51125e-47
7.36087e-47
3.67816e-44
1.88204e-42
1.78564e-41
5.19422e-42
6.5084e-42
3.55194e-45
1.21474e-41
2.00041e-39
1.38318e-43
7.71844e-42
3.52219e-43
6.99917e-45
1.67441e-47
2.13898e-49
1.89602e-49
3.42857e-51
1.84101e-50
6.18808e-51
2.60597e-50
5.73407e-52
4.30956e-51
5.02576e-52
4.65702e-52
1.92047e-51
4.27343e-59
1.54797e-52
2.64597e-53
1.79134e-54
5.69746e-53
2.74151e-51
1.35962e-52
3.33989e-53
3.15467e-54
5.23942e-55
6.40346e-61
1.1365e-54
6.66383e-53
6.30218e-55
2.40911e-54
4.62879e-56
1.57339e-55
1.2978e-61
2.12859e-55
1.00952e-54
3.06575e-55
2.21323e-61
1.15265e-55
2.77306e-54
3.49911e-55
4.95424e-55
1.49542e-53
7.20657e-54
1.63757e-54
1.70895e-60
6.0469e-53
2.76409e-52
6.36491e-53
9.90722e-54
3.70852e-53
6.82417e-53
6.51026e-53
5.73933e-53
5.49716e-53
1.13369e-52
2.23254e-52
2.74966e-52
1.73134e-52
2.64867e-53
3.66466e-54
6.52373e-53
2.08431e-52
4.9416e-53
5.07283e-54
1.632e-53
9.12697e-54
8.36804e-54
1.10397e-54
1.48205e-53
5.10336e-53
6.10334e-53
2.77116e-53
1.5764e-52
7.71125e-53
6.128e-53
4.24435e-53
2.25898e-52
6.00881e-52
2.69052e-52
2.67931e-52
1.3852e-51
1.03854e-51
8.89325e-57
9.48214e-55
1.0677e-53
6.40767e-54
9.12807e-54
1.0844e-50
1.06733e-51
4.13477e-53
7.37293e-56
4.16601e-50
2.18481e-48
3.6337e-48
5.56844e-48
8.1118e-48
2.41206e-52
3.28171e-47
9.65356e-45
1.15732e-48
1.29455e-53
5.0886e-49
8.51289e-51
4.65799e-54
8.42452e-56
7.21958e-56
1.28019e-57
2.0496e-56
4.84329e-57
5.00902e-57
1.81504e-58
2.14088e-57
1.81362e-63
1.95584e-58
2.02564e-57
1.36422e-64
1.21631e-58
4.25928e-60
5.24081e-61
1.44541e-59
2.45914e-58
1.50375e-59
5.10751e-60
6.47924e-61
2.00506e-61
4.48682e-67
3.26825e-61
5.86384e-60
7.44062e-62
2.32046e-61
4.83805e-63
3.73585e-63
4.52204e-69
2.14689e-62
1.5139e-61
2.33112e-62
3.01736e-68
1.85514e-74
4.07025e-61
1.70472e-61
3.31275e-61
6.68428e-60
3.3987e-61
2.05196e-61
3.84308e-67
9.42977e-61
2.29677e-59
1.29256e-59
3.42311e-60
7.6854e-60
4.31234e-60
6.37326e-60
5.65733e-60
1.12795e-59
3.50511e-59
1.14388e-58
1.19297e-58
1.95276e-59
2.48427e-60
5.62974e-61
1.65625e-61
1.26295e-59
1.18062e-59
1.95315e-60
6.08397e-60
1.05695e-60
9.11741e-61
1.94755e-61
9.74967e-62
6.79297e-60
2.00191e-59
1.71274e-59
5.61267e-59
9.35271e-60
1.59075e-59
1.30669e-59
1.70258e-59
1.96758e-58
1.58115e-58
1.50989e-58
3.47331e-58
3.25411e-58
2.59621e-63
1.21233e-61
1.5666e-60
2.48336e-60
4.58905e-60
2.10395e-57
5.37117e-58
4.36243e-59
1.25261e-61
2.18612e-56
1.26514e-54
1.86638e-54
2.03581e-54
5.01859e-54
1.48562e-58
3.23333e-52
1.14456e-57
2.01309e-54
3.01037e-59
1.87286e-57
3.82211e-57
1.83021e-60
3.71302e-62
4.38631e-63
5.88521e-69
1.04951e-62
4.15682e-63
4.32312e-63
2.45852e-65
4.87756e-64
4.36703e-70
9.77847e-73
2.22959e-64
1.22431e-70
1.04532e-64
2.96503e-66
1.20234e-67
8.78491e-67
1.94499e-65
7.84471e-67
3.27688e-67
1.01996e-68
2.41158e-68
1.82424e-73
1.38821e-67
1.85157e-66
8.12734e-69
1.82057e-68
6.69731e-70
4.40411e-70
4.96539e-76
2.79645e-69
3.06985e-68
5.87767e-69
9.87413e-76
5.71997e-82
3.51074e-88
2.2579e-68
1.3444e-67
3.56309e-66
1.89144e-67
5.31211e-68
1.26295e-74
1.06449e-67
1.71187e-68
8.83237e-67
5.79324e-67
1.48722e-66
5.26841e-67
4.64593e-67
1.3648e-66
7.18594e-67
2.86412e-66
2.84869e-65
5.17609e-65
8.44123e-66
4.11763e-67
2.82788e-68
2.49739e-68
7.69975e-75
4.74015e-67
4.11094e-67
2.03262e-66
3.68349e-67
1.68739e-67
1.69582e-68
7.21604e-69
2.95094e-69
3.07658e-66
8.69271e-66
3.93105e-65
5.77539e-66
8.60879e-67
3.16586e-66
5.74084e-66
6.48959e-66
4.73566e-65
8.13347e-65
1.16682e-64
9.36361e-65
1.24109e-69
8.09534e-68
1.14661e-66
2.33606e-68
1.49309e-66
1.99874e-63
1.64672e-68
1.55432e-65
1.64517e-67
1.87532e-62
8.05142e-61
1.54588e-60
3.16081e-61
2.70282e-61
9.97395e-65
1.10735e-57
1.52855e-63
3.27006e-61
5.68551e-65
1.583e-63
7.58918e-64
6.03714e-67
1.21317e-68
5.52763e-70
8.16262e-76
8.59344e-71
1.14618e-69
3.40489e-69
2.2992e-71
8.62065e-71
4.74685e-77
5.17738e-79
2.14022e-73
1.73266e-79
1.75056e-71
1.12421e-72
3.93064e-74
1.6512e-73
2.80655e-72
6.71971e-74
4.40597e-74
2.51186e-75
4.05564e-75
6.04105e-81
2.2108e-74
3.15762e-73
1.12093e-75
7.88887e-76
2.46334e-77
1.64879e-77
1.07986e-83
2.06899e-76
6.3703e-75
1.81172e-75
1.71334e-82
4.26514e-89
3.16844e-95
4.488e-89
1.82698e-75
5.26522e-73
5.09735e-74
1.61327e-74
2.87654e-81
4.99325e-75
8.28696e-75
5.81421e-75
4.4934e-74
2.17892e-73
8.46771e-74
2.41058e-74
1.31512e-72
1.07469e-72
3.07465e-74
6.22329e-74
6.65833e-72
2.73087e-72
1.67775e-73
6.42025e-75
1.09171e-75
1.44091e-82
4.1117e-89
9.27517e-84
1.72567e-73
7.78939e-74
4.08318e-74
2.14712e-75
8.54468e-76
7.64607e-76
5.57478e-75
1.74334e-73
1.62028e-71
4.46374e-72
1.0984e-72
1.27186e-72
2.86667e-72
6.55896e-72
2.19211e-71
8.16112e-71
1.81216e-70
1.13351e-70
1.75743e-76
3.48995e-74
1.18801e-72
2.68472e-74
3.07891e-73
6.86677e-70
7.04436e-75
1.0175e-80
7.75632e-74
1.62408e-68
3.45678e-67
8.76815e-67
5.09075e-67
4.07659e-68
3.52361e-71
6.84086e-64
1.53557e-69
2.2986e-67
4.30355e-71
7.89063e-70
7.73101e-72
2.27577e-73
6.1113e-75
1.74126e-76
1.09696e-82
3.89513e-77
1.03936e-77
9.69816e-76
2.22278e-77
1.0232e-76
4.23308e-83
6.31679e-86
6.78865e-80
5.47911e-86
6.02393e-81
1.00716e-79
6.99553e-81
3.44441e-80
8.34658e-79
2.40856e-80
2.0235e-80
9.67752e-83
2.23327e-81
1.40336e-87
2.27019e-81
3.04066e-80
1.18939e-82
8.12721e-83
2.1727e-84
4.85397e-85
7.45072e-91
1.83932e-84
7.80624e-82
8.02089e-82
1.08539e-88
1.95542e-95
1.20893e-102
1.14103e-95
8.72011e-89
1.85074e-82
4.64322e-81
3.72332e-81
9.89057e-88
1.33148e-81
2.57751e-81
2.42996e-81
1.17041e-81
3.71247e-80
2.4462e-80
1.08663e-80
9.39247e-79
4.03319e-79
2.87038e-81
9.45331e-81
9.70478e-81
2.58244e-79
8.19215e-80
2.61625e-81
4.60616e-82
1.47883e-89
9.13543e-98
1.69116e-90
1.44107e-83
1.00502e-80
1.24323e-80
1.00975e-81
3.13928e-82
3.94022e-83
1.28478e-81
9.59781e-81
1.93875e-79
2.56619e-78
1.31635e-78
1.55737e-78
2.0632e-78
5.84444e-78
2.005e-77
7.4196e-77
1.96713e-76
1.47046e-76
1.72597e-82
3.86726e-84
4.4011e-79
2.94568e-80
3.6281e-79
1.0308e-76
1.8978e-81
2.67045e-87
1.74549e-81
6.91119e-75
2.53383e-73
2.03284e-73
6.48042e-73
5.91375e-75
4.58368e-78
6.52874e-70
5.27513e-76
1.09983e-73
2.21654e-77
1.56124e-76
2.14896e-78
1.52806e-80
3.32058e-81
1.18811e-82
3.386e-89
1.11666e-83
5.02915e-84
1.17309e-84
1.54283e-84
6.86947e-83
4.29582e-89
6.98266e-92
1.76966e-86
6.95137e-93
1.26386e-87
3.18131e-88
5.86107e-89
2.04081e-95
8.04549e-86
7.37345e-87
1.11755e-86
4.82351e-89
1.04759e-87
5.89459e-94
1.57835e-88
3.83349e-87
1.59746e-89
1.10649e-89
3.58332e-91
7.64801e-92
6.92363e-98
3.96358e-91
3.14413e-97
1.12739e-88
5.61001e-95
1.19728e-101
9.00378e-109
2.07204e-102
8.76389e-96
2.81608e-89
8.37859e-96
1.95777e-88
1.70791e-94
2.55254e-88
1.29443e-87
9.62863e-88
7.0951e-91
1.99489e-97
2.58213e-87
3.30445e-87
6.768e-85
3.20302e-85
5.83744e-88
5.00472e-88
1.63013e-87
1.87479e-93
7.44589e-87
6.93246e-88
1.89508e-88
5.59392e-96
2.15088e-104
3.96942e-98
2.35322e-90
9.3552e-97
1.49157e-87
4.40769e-88
2.15011e-88
2.46415e-89
7.31878e-89
2.03343e-87
1.18586e-85
4.79281e-85
5.41028e-85
9.40748e-85
1.26816e-84
3.87122e-84
1.27221e-83
6.98792e-83
2.4166e-82
1.06756e-82
1.02658e-88
2.28992e-90
3.6338e-96
5.98979e-87
3.5782e-85
1.04519e-82
2.17479e-88
2.42593e-94
3.3767e-89
4.82036e-82
1.0631e-79
9.53835e-80
2.84411e-79
1.47974e-82
1.18689e-85
1.87701e-76
2.73616e-82
2.21165e-88
6.89183e-84
4.08266e-83
3.36589e-85
2.56159e-91
5.63175e-88
9.52276e-89
3.61525e-95
4.77006e-90
1.39471e-90
5.16084e-91
6.59588e-97
1.0197e-92
1.06521e-95
4.78476e-98
9.01475e-93
1.28748e-99
2.71986e-94
5.24944e-95
1.35073e-95
5.50714e-102
3.56169e-108
1.64157e-114
2.1109e-93
1.31482e-95
3.05784e-94
7.32629e-101
5.60348e-97
1.7285e-94
1.08489e-96
9.93901e-97
5.36971e-98
1.91317e-98
5.92374e-104
6.92228e-98
2.26867e-104
1.33879e-110
3.12391e-102
3.1325e-108
4.95198e-115
1.04446e-108
1.87462e-102
2.86289e-96
4.43698e-103
2.31933e-109
7.75117e-102
3.76521e-95
5.11038e-94
4.7282e-94
1.16227e-97
1.56246e-104
5.55992e-105
3.89303e-98
1.51987e-91
1.66059e-91
2.28301e-94
1.2758e-94
1.32293e-94
6.30486e-100
2.18897e-93
1.39632e-99
1.99791e-95
1.52954e-102
3.22992e-110
9.9937e-104
3.90062e-97
4.62208e-104
1.3354e-110
4.76129e-117
7.75078e-95
1.76864e-95
4.89082e-95
1.44967e-94
4.46432e-92
3.679e-91
1.03238e-91
1.33969e-91
1.6957e-91
1.40074e-90
1.36744e-90
3.35533e-89
3.05502e-88
1.62321e-88
7.98072e-95
6.97224e-97
8.64276e-103
2.15288e-102
7.54465e-92
8.47461e-89
1.60908e-94
1.77714e-101
1.14718e-95
2.79631e-91
1.08012e-86
3.6638e-86
8.84442e-86
1.14647e-90
1.89932e-93
2.08194e-83
4.69903e-89
1.26231e-94
1.01186e-90
8.56276e-90
1.84183e-92
2.0336e-99
7.40507e-98
1.83828e-95
2.9854e-101
5.18751e-96
1.22705e-96
5.29351e-98
1.03026e-103
4.0007e-99
2.44233e-105
5.71507e-105
2.6674e-99
3.66435e-106
9.44185e-101
2.14347e-101
5.94123e-102
6.30359e-109
3.72671e-115
2.9097e-121
8.80941e-101
1.64695e-102
5.51804e-101
1.00063e-107
8.13249e-106
2.98078e-103
3.67671e-114
4.83543e-106
4.91347e-105
6.01814e-105
5.74147e-110
3.43217e-104
-3.0944e-162
-1.93279e-168
3.21507e-171
4.35856e-166
6.53145e-122
3.12374e-115
6.8353e-109
8.54437e-103
2.1788e-110
1.58582e-116
4.8454e-110
6.47e-102
2.42973e-100
2.6235e-100
2.8187e-104
1.22648e-112
1.15404e-111
1.79193e-104
2.61116e-98
2.84723e-98
8.00388e-101
5.41418e-101
5.35845e-101
1.40319e-106
6.64066e-100
4.18353e-106
1.69158e-112
1.63745e-109
2.11398e-116
8.19276e-110
1.2454e-103
1.71041e-112
1.5076e-119
6.10942e-126
1.78089e-126
6.09376e-102
3.55783e-101
1.05181e-100
1.10604e-98
8.84061e-98
4.15264e-98
3.91459e-98
7.2621e-98
1.08581e-96
1.32518e-96
8.46734e-97
8.84528e-95
1.82056e-94
1.16065e-100
4.03491e-103
7.69943e-110
9.70703e-109
1.46447e-103
2.71542e-95
1.12121e-100
7.98763e-108
2.12941e-102
5.38835e-98
5.60465e-100
8.18548e-93
2.03211e-92
1.48985e-97
3.1152e-100
2.52588e-90
4.70598e-96
2.79745e-101
1.92397e-97
3.57671e-96
6.01155e-99
9.15005e-109
2.84305e-104
8.8038e-104
6.47974e-109
3.10575e-102
1.26584e-102
5.68496e-104
3.1313e-110
1.06681e-105
6.23368e-112
1.15214e-113
5.87811e-107
6.01649e-114
1.12442e-107
6.50888e-108
3.0989e-108
3.60584e-115
6.88002e-122
3.37267e-128
5.20533e-122
1.93468e-109
9.40974e-108
1.45017e-114
1.52057e-112
6.78029e-110
7.36288e-120
9.03425e-113
5.74578e-119
5.43749e-112
3.57661e-116
2.5125e-110
-2.31993e-168
-2.0923e-175
6.19007e-178
3.05951e-172
3.42842e-165
1.42246e-122
1.03665e-115
1.62097e-109
3.14361e-117
1.3596e-123
1.41655e-118
6.13812e-115
4.41238e-107
1.10964e-106
1.28418e-110
5.74542e-119
5.68464e-118
1.90556e-111
7.39466e-105
3.00665e-105
1.73714e-108
1.61465e-107
2.32036e-107
1.25271e-112
1.79962e-106
2.65699e-113
1.03302e-119
3.6003e-126
1.46271e-123
3.61595e-116
7.84875e-110
1.09293e-118
4.76549e-127
8.83472e-135
1.71902e-132
3.11712e-126
1.04568e-107
6.24306e-107
6.25554e-105
3.31212e-104
1.36194e-104
2.20686e-104
5.58124e-104
2.12495e-103
6.9644e-103
6.03772e-103
1.20414e-101
1.71664e-102
1.11049e-106
4.49874e-109