/*--------------------------------*- C++ -*----------------------------------*\
| =========                 |                                                 |
| \\      /  F ield         | OpenFOAM: The Open Source CFD Toolbox           |
|  \\    /   O peration     | Version:  2406                                  |
|   \\  /    A nd           | Website:  www.openfoam.com                      |
|    \\/     M anipulation  |                                                 |
\*---------------------------------------------------------------------------*/
FoamFile
{
    version     2.0;
    format      ascii;
    arch        "LSB;label=32;scalar=64";
    class       surfaceScalarField;
    location    "3";
    object      alphaPhi0.grout;
}
// * * * * * * * * * * * * * * * * * * * * * * * * * * * * * * * * * * * * * //

dimensions      [0 3 -1 0 0 0 0];

oriented        oriented;

internalField   nonuniform List<scalar> 
19800
(
-1.41681e-13
7.62321e-14
-1.38243e-13
-1.53637e-13
-2.43469e-13
-1.55875e-13
-1.94859e-13
-6.97058e-14
-1.75408e-14
-7.77678e-16
4.96753e-14
-7.82524e-15
6.54872e-14
-4.34503e-14
9.84531e-14
-6.82281e-14
1.63544e-13
-6.31211e-14
2.2868e-13
-3.60858e-14
2.62185e-13
-5.88931e-15
2.55346e-13
1.53412e-14
2.18215e-13
2.68712e-14
1.64314e-13
3.35404e-14
1.05369e-13
3.99135e-14
4.93642e-14
4.6949e-14
-9.11495e-16
5.22856e-14
-4.54777e-14
5.26659e-14
-8.31623e-14
4.65094e-14
-1.10041e-13
3.49927e-14
-1.21086e-13
2.15028e-14
-1.12754e-13
9.81379e-15
-8.54955e-14
2.33081e-15
-4.51746e-14
-3.421e-16
-1.70398e-15
1.53516e-15
3.48995e-14
7.75183e-15
5.81393e-14
1.81028e-14
6.5897e-14
3.17759e-14
5.88277e-14
4.71424e-14
3.84852e-14
6.22455e-14
6.83369e-15
7.54568e-14
-3.3093e-14
8.56552e-14
-7.68465e-14
9.18971e-14
-1.19421e-13
9.31289e-14
-1.56649e-13
8.84196e-14
-1.85779e-13
7.75806e-14
-2.04861e-13
6.15578e-14
-2.11927e-13
4.21835e-14
-2.05115e-13
2.14733e-14
-1.83677e-13
1.04678e-15
-1.48775e-13
-1.7969e-14
-1.03199e-13
-3.46731e-14
-5.03113e-14
-4.81503e-14
6.83457e-15
-5.75009e-14
6.56392e-14
-6.21083e-14
1.23642e-13
-6.19292e-14
1.78322e-13
-5.75902e-14
2.27207e-13
-5.01656e-14
2.68079e-13
-4.07035e-14
2.99023e-13
-2.97622e-14
3.18413e-13
-1.72884e-14
3.24964e-13
-2.96899e-15
3.17817e-13
1.31738e-14
2.96434e-13
3.03934e-14
2.60354e-13
4.73552e-14
2.09164e-13
6.26942e-14
1.4302e-13
7.5535e-14
6.34951e-14
8.55452e-14
-2.58845e-14
9.24978e-14
-1.19913e-13
9.57666e-14
-2.12581e-13
9.42496e-14
-2.97884e-13
8.68519e-14
-3.70057e-13
7.31691e-14
-4.23393e-13
5.38498e-14
-4.52264e-13
3.03933e-14
-4.51731e-13
4.60796e-15
-4.1859e-13
-2.18282e-14
-3.52234e-13
-4.74419e-14
-2.54886e-13
-7.07843e-14
-1.312e-13
-9.03112e-14
1.23535e-14
-1.04519e-13
1.67934e-13
-1.12244e-13
3.26575e-13
-1.12872e-13
4.7845e-13
-1.06297e-13
6.13445e-13
-9.27043e-14
7.22068e-13
-7.24109e-14
7.96467e-13
-4.59366e-14
8.31229e-13
-1.42344e-14
8.23738e-13
2.11063e-14
7.74026e-13
5.79215e-14
6.84267e-13
9.378e-14
5.58129e-13
1.26443e-13
4.00397e-13
1.54123e-13
2.17079e-13
1.75532e-13
1.61447e-14
1.89502e-13
-1.917e-13
1.94727e-13
-3.92811e-13
1.89572e-13
-5.72029e-13
1.72785e-13
-7.15446e-13
1.44366e-13
-8.13908e-13
1.0682e-13
-8.64928e-13
6.47017e-14
-8.72035e-13
2.30453e-14
-8.41052e-13
-1.58671e-14
-7.76503e-13
-5.29495e-14
-6.81136e-13
-8.89921e-14
-5.61633e-13
-1.16288e-13
-4.32665e-13
-1.17698e-13
-3.06098e-13
-8.95652e-14
-1.64954e-13
-7.20783e-14
-9.8613e-14
9.34831e-14
2.38154e-13
6.25599e-14
-1.16143e-13
4.58495e-14
-6.99703e-14
7.97349e-14
-2.34478e-14
1.14756e-13
-3.21838e-14
6.24103e-14
-5.76573e-14
1.06608e-14
-6.62977e-14
-4.29367e-15
-5.22676e-14
6.35708e-15
-2.45298e-14
1.28778e-14
2.35364e-15
-4.67076e-16
1.88766e-14
-3.04258e-14
2.45949e-14
-6.37028e-14
2.59488e-14
-9.02954e-14
2.82451e-14
-1.05665e-13
3.15444e-14
-1.09854e-13
3.26968e-14
-1.07077e-13
2.88274e-14
-1.03163e-13
1.96403e-14
-1.01397e-13
7.28398e-15
-1.00927e-13
-5.34531e-15
-9.8864e-14
-1.65759e-14
-9.29993e-14
-2.64486e-14
-8.29373e-14
-3.55332e-14
-7.00698e-14
-4.34901e-14
-5.6805e-14
-4.89226e-14
-4.52115e-14
-5.04043e-14
-3.5728e-14
-4.74625e-14
-2.67939e-14
-4.06082e-14
-1.55742e-14
-3.07241e-14
7.57429e-16
-1.87165e-14
2.3918e-14
-5.81111e-15
5.40479e-14
6.08726e-15
8.98465e-14
1.47425e-14
1.2897e-13
1.86086e-14
1.68409e-13
1.76334e-14
2.04836e-13
1.30599e-14
2.35018e-13
6.42207e-15
2.56254e-13
-1.32121e-15
2.66652e-13
-9.81539e-15
2.65171e-13
-1.8715e-14
2.51554e-13
-2.72296e-14
2.26329e-13
-3.43043e-14
1.90863e-13
-3.92225e-14
1.47295e-13
-4.20494e-14
9.82758e-14
-4.35662e-14
4.66556e-14
-4.48065e-14
-4.71808e-15
-4.65364e-14
-5.30392e-14
-4.89317e-14
-9.55732e-14
-5.15357e-14
-1.29826e-13
-5.34977e-14
-1.53861e-13
-5.40065e-14
-1.6662e-13
-5.26865e-14
-1.68085e-13
-4.96628e-14
-1.59241e-13
-4.52254e-14
-1.41895e-13
-3.93996e-14
-1.18455e-13
-3.18869e-14
-9.16762e-14
-2.25185e-14
-6.43601e-14
-1.18452e-14
-3.9006e-14
-1.28413e-15
-1.74834e-14
7.39793e-15
-8.2429e-16
1.29033e-14
1.08175e-14
1.49072e-14
1.80626e-14
1.39356e-14
2.21056e-14
1.0847e-14
2.44468e-14
6.41548e-15
2.65666e-14
1.30495e-15
2.9584e-14
-3.70763e-15
3.39781e-14
-7.62694e-15
3.94698e-14
-9.45616e-15
4.51057e-14
-8.58754e-15
4.95081e-14
-5.02303e-15
5.11964e-14
7.83484e-16
4.889e-14
8.34787e-15
4.17615e-14
1.75024e-14
2.96556e-14
2.83954e-14
1.32993e-14
4.11416e-14
-5.55289e-15
5.53993e-14
-2.41431e-14
7.01906e-14
-3.90586e-14
8.41516e-14
-4.68926e-14
9.60804e-14
-4.51196e-14
1.0552e-13
-3.27764e-14
1.12929e-13
-1.07407e-14
1.19331e-13
1.87386e-14
1.25372e-13
5.28721e-14
1.30476e-13
8.94575e-14
1.32459e-13
1.27353e-13
1.28483e-13
1.66476e-13
1.16592e-13
2.06451e-13
9.74928e-14
2.4507e-13
7.4425e-14
2.76542e-13
5.16901e-14
2.9263e-13
3.16447e-14
2.86947e-13
1.33947e-14
2.62009e-13
-7.24933e-15
2.30287e-13
-3.52801e-14
2.03523e-13
-7.26268e-14
1.72079e-13
-1.11455e-13
1.12862e-13
-1.43164e-13
4.64171e-15
-1.38368e-13
-3.73477e-14
1.2795e-13
4.69603e-13
8.30798e-14
-1.00741e-13
4.90679e-14
-7.7435e-14
8.56389e-14
-1.63445e-14
9.455e-14
-3.23223e-14
5.2643e-14
-4.74313e-14
3.0263e-14
-3.99799e-14
3.55551e-14
-1.99638e-14
4.74754e-14
-3.05468e-16
4.54818e-14
1.24424e-14
2.55887e-14
1.85068e-14
-3.84086e-15
2.06551e-14
-3.29855e-14
2.23638e-14
-5.76714e-14
2.44496e-14
-7.65992e-14
2.50338e-14
-8.90116e-14
2.2301e-14
-9.56816e-14
1.64922e-14
-9.89238e-14
9.54626e-15
-1.00688e-13
3.80625e-15
-1.01123e-13
1.06121e-15
-9.91167e-14
1.9874e-15
-9.3264e-14
5.76252e-15
-8.27277e-14
1.06107e-14
-6.81033e-14
1.52606e-14
-5.16006e-14
2.01397e-14
-3.58657e-14
2.70805e-14
-2.22427e-14
3.77403e-14
-9.95289e-15
5.20856e-14
3.16473e-15
6.8164e-14
1.91067e-14
8.31601e-14
3.86748e-14
9.46889e-14
6.15915e-14
1.01336e-13
8.72018e-14
1.02404e-13
1.14772e-13
9.75776e-14
1.43101e-13
8.70063e-14
1.70096e-13
7.16329e-14
1.9303e-13
5.32053e-14
2.09426e-13
3.38062e-14
2.17803e-13
1.52272e-14
2.17712e-13
-1.38445e-15
2.09243e-13
-1.55204e-14
1.92612e-13
-2.71328e-14
1.6823e-13
-3.64444e-14
1.37054e-13
-4.37503e-14
1.00835e-13
-4.92196e-14
6.20261e-14
-5.2817e-14
2.34464e-14
-5.44428e-14
-1.21387e-14
-5.41634e-14
-4.24116e-14
-5.22446e-14
-6.57955e-14
-4.8877e-14
-8.1535e-14
-4.38589e-14
-8.95145e-14
-3.66477e-14
-8.99758e-14
-2.68769e-14
-8.34257e-14
-1.49433e-14
-7.08684e-14
-2.12011e-15
-5.41217e-14
9.95759e-15
-3.57753e-14
2.00381e-14
-1.85901e-14
2.76459e-14
-4.63037e-15
3.28885e-14
5.30389e-15
3.59686e-14
1.16029e-14
3.68939e-14
1.53051e-14
3.56235e-14
1.75732e-14
3.24446e-14
1.95242e-14
2.81783e-14
2.23269e-14
2.39891e-14
2.72141e-14
2.09292e-14
3.51861e-14
1.95608e-14
4.65381e-14
1.99039e-14
6.05758e-14
2.16885e-14
7.57721e-14
2.46759e-14
9.02831e-14
2.88136e-14
1.02485e-13
3.41608e-14
1.11227e-13
4.07004e-14
1.15771e-13
4.82184e-14
1.15635e-13
5.63567e-14
1.10626e-13
6.4823e-14
1.01132e-13
7.36202e-14
8.84909e-14
8.31423e-14
7.51e-14
9.3984e-14
6.39865e-14
1.0651e-13
5.79124e-14
1.20321e-13
5.82581e-14
1.34048e-13
6.43921e-14
1.45626e-13
7.38189e-14
1.53173e-13
8.35235e-14
1.55768e-13
9.16519e-14
1.53806e-13
9.90076e-14
1.482e-13
1.08639e-13
1.39419e-13
1.2383e-13
1.26483e-13
1.44407e-13
1.07411e-13
1.64618e-13
8.01755e-14
1.74087e-13
4.50409e-14
1.64364e-13
6.46078e-15
1.36723e-13
-2.63318e-14
1.05236e-13
-4.45391e-14
8.90785e-14
-4.89766e-14
9.51842e-14
-6.1001e-14
1.16311e-13
-1.25303e-13
1.18903e-14
-1.55024e-13
4.2886e-14
2.78847e-14
4.79602e-13
5.25139e-14
-1.3125e-13
3.1701e-14
-1.17696e-13
5.97197e-14
-4.39486e-14
6.72949e-14
-5.37035e-14
4.72103e-14
-6.25636e-14
4.71119e-14
-4.57894e-14
6.30209e-14
-1.54252e-14
7.73749e-14
1.20968e-14
7.7103e-14
2.7926e-14
6.08759e-14
3.18203e-14
3.56894e-14
2.81048e-14
7.79679e-15
2.26734e-14
-2.09846e-14
1.94518e-14
-4.84171e-14
1.94597e-14
-7.08863e-14
2.2609e-14
-8.64023e-14
2.92745e-14
-9.59213e-14
4.05032e-14
-1.01044e-13
5.69012e-14
-1.02212e-13
7.79636e-14
-9.91606e-14
1.02231e-13
-9.15256e-14
1.27754e-13
-7.8823e-14
1.5234e-13
-6.10385e-14
1.73874e-13
-3.9675e-14
1.90855e-13
-1.78648e-14
2.02879e-13
1.01737e-15
2.10529e-13
1.5201e-14
2.146e-13
2.52951e-14
2.15208e-13
3.34213e-14
2.11524e-13
4.16037e-14
2.02344e-13
5.0833e-14
1.87008e-13
6.13189e-14
1.65938e-13
7.3185e-14
1.40505e-13
8.66168e-14
1.12484e-13
1.01361e-13
8.35995e-14
1.16307e-13
5.53672e-14
1.29734e-13
2.91357e-14
1.39996e-13
6.10883e-15
1.45988e-13
-1.27315e-14
1.47104e-13
-2.67508e-14
1.43019e-13
-3.57471e-14
1.33682e-13
-3.99336e-14
1.19547e-13
-3.97979e-14
1.0171e-13
-3.5882e-14
8.17695e-14
-2.86048e-14
6.15372e-14
-1.82669e-14
4.28163e-14
-5.26479e-15
2.72477e-14
9.64445e-15
1.6061e-14
2.52795e-14
9.71151e-15
4.02951e-14
7.67559e-15
5.361e-14
8.6797e-15
6.46748e-14
1.12763e-14
7.33602e-14
1.4321e-14
7.95831e-14
1.69861e-14
8.30233e-14
1.84278e-14
8.3205e-14
1.75957e-14
7.9872e-14
1.35423e-14
7.33146e-14
6.0699e-15
6.43491e-14
-3.81922e-15
5.39687e-14
-1.40659e-14
4.29655e-14
-2.2203e-14
3.18216e-14
-2.60554e-14
2.08986e-14
-2.41008e-14
1.06984e-14
-1.54618e-14
1.93268e-15
2.06646e-16
-4.65482e-15
2.26962e-14
-8.539e-15
5.10963e-14
-9.50388e-15
8.37236e-14
-7.49126e-15
1.18294e-13
-2.33523e-15
1.52302e-13
6.39033e-15
1.8341e-13
1.92646e-14
2.09682e-13
3.66793e-14
2.29652e-13
5.84469e-14
2.42351e-13
8.35642e-14
2.47379e-13
1.10288e-13
2.44995e-13
1.36512e-13
2.36052e-13
1.60321e-13
2.21787e-13
1.80427e-13
2.03403e-13
1.9629e-13
1.81801e-13
2.07735e-13
1.57397e-13
2.14399e-13
1.30348e-13
2.1526e-13
1.00837e-13
2.08909e-13
6.97738e-14
1.94275e-13
3.9199e-14
1.71806e-13
1.25592e-14
1.43774e-13
-6.57254e-15
1.13823e-13
-1.63318e-14
8.48887e-14
-1.85156e-14
5.74495e-14
-1.74274e-14
2.89843e-14
-1.68398e-14
-2.49309e-15
-1.76085e-14
-3.34391e-14
-2.0283e-14
-5.27418e-14
-2.5191e-14
-4.89639e-14
-1.86927e-14
-3.6777e-14
7.93296e-14
-9.70695e-14
1.71581e-14
-1.64411e-13
1.19051e-13
-4.66837e-14
3.68166e-13
2.43256e-14
-1.69562e-13
3.75134e-14
-1.04004e-13
5.14043e-14
-2.90571e-15
5.66776e-14
2.85191e-15
5.76851e-14
-5.17082e-15
7.37184e-14
1.28759e-15
8.88833e-14
1.07824e-14
9.19636e-14
1.15202e-14
7.99667e-14
6.7683e-16
5.69354e-14
-1.84859e-14
3.0623e-14
-3.9894e-14
4.60502e-15
-5.68804e-14
-2.20109e-14
-6.55736e-14
-4.79766e-14
-6.5679e-14
-6.89164e-14
-5.92759e-14
-8.17537e-14
-4.90373e-14
-8.74253e-14
-3.71244e-14
-8.86451e-14
-2.50156e-14
-8.69459e-14
-1.38559e-14
-8.25615e-14
-4.71141e-15
-7.52581e-14
1.35793e-15
-6.46118e-14
3.49193e-15
-5.03814e-14
1.41799e-15
-3.33488e-14
-4.11292e-15
-1.57437e-14
-1.12152e-14
-5.30358e-16
-1.73351e-14
1.0104e-14
-2.01545e-14
1.59293e-14
-1.84127e-14
1.86358e-14
-1.21871e-14
2.07394e-14
-2.60194e-15
2.44027e-14
8.69599e-15
3.09463e-14
1.99609e-14
4.09694e-14
2.95949e-14
5.45012e-14
3.63201e-14
7.08996e-14
3.93163e-14
8.87687e-14
3.82429e-14
1.06228e-13
3.30993e-14
1.21428e-13
2.40475e-14
1.32903e-13
1.13832e-14
1.39576e-13
-4.32128e-15
1.40685e-13
-2.20887e-14
1.35921e-13
-4.06154e-14
1.25717e-13
-5.85367e-14
1.11341e-13
-7.46795e-14
9.45887e-14
-8.81481e-14
7.72935e-14
-9.82831e-14
6.10105e-14
-1.04642e-13
4.69827e-14
-1.07066e-13
3.61693e-14
-1.05759e-13
2.90999e-14
-1.01258e-13
2.56186e-14
-9.43076e-14
2.48143e-14
-8.57099e-14
2.53198e-14
-7.62656e-14
2.58101e-14
-6.67626e-14
2.53365e-14
-5.79329e-14
2.33098e-14
-5.03145e-14
1.93009e-14
-4.40705e-14
1.29955e-14
-3.88773e-14
4.44782e-15
-3.39615e-14
-5.55736e-15
-2.82711e-14
-1.53766e-14
-2.06968e-14
-2.27889e-14
-1.02718e-14
-2.55517e-14
3.67072e-15
-2.19291e-14
2.13633e-14
-1.09663e-14
4.24918e-14
7.49738e-15
6.61452e-14
3.29389e-14
9.08835e-14
6.42587e-14
1.14939e-13
9.98577e-14
1.36505e-13
1.37727e-13
1.54021e-13
1.7558e-13
1.66381e-13
2.11006e-13
1.73022e-13
2.41632e-13
1.73937e-13
2.65311e-13
1.69621e-13
2.80389e-13
1.61002e-13
2.86019e-13
1.49355e-13
2.82379e-13
1.36196e-13
2.70598e-13
1.23149e-13
2.52279e-13
1.11815e-13
2.28864e-13
1.03571e-13
2.0109e-13
9.94112e-14
1.69076e-13
9.97051e-14
1.32842e-13
1.04132e-13
9.33167e-14
1.11582e-13
5.29179e-14
1.20404e-13
1.57778e-14
1.2855e-13
-1.34863e-14
1.34076e-13
-3.17655e-14
1.35234e-13
-4.00544e-14
1.30838e-13
-4.29005e-14
1.19986e-13
-4.38494e-14
1.02133e-13
-3.98812e-14
7.67679e-14
-2.54515e-14
4.4362e-14
-6.55657e-15
9.10167e-15
-5.82719e-15
-1.73579e-14
-2.99448e-14
-3.44739e-14
6.80404e-14
-1.06993e-13
2.2765e-14
-1.82379e-13
1.94365e-13
-3.09031e-14
3.55809e-13
3.19217e-14
-1.55641e-13
5.42726e-14
-8.59451e-14
5.25956e-14
7.11523e-16
4.67443e-14
2.96337e-15
6.04714e-14
-1.01644e-14
8.28375e-14
-7.9246e-15
9.19691e-14
-3.50475e-15
8.42923e-14
-8.19514e-15
6.38092e-14
-2.19448e-14
3.83037e-14
-3.9518e-14
1.55153e-14
-5.38628e-14
-4.10523e-15
-5.87114e-14
-2.49105e-14
-5.16273e-14
-4.76062e-14
-3.43359e-14
-6.80522e-14
-1.09454e-14
-8.19937e-14
1.41585e-14
-8.91081e-14
3.77307e-14
-9.15988e-14
5.78496e-14
-9.1177e-14
7.35554e-14
-8.82811e-14
8.43549e-14
-8.2584e-14
8.98696e-14
-7.32756e-14
8.97072e-14
-5.95691e-14
8.37273e-14
-4.16879e-14
7.26095e-14
-2.15685e-14
5.83015e-14
-2.43255e-15
4.38116e-14
1.26834e-14
3.22684e-14
2.24149e-14
2.57876e-14
2.75023e-14
2.48732e-14
3.0035e-14
2.86136e-14
3.23168e-14
3.53237e-14
3.61804e-14
4.31006e-14
4.28407e-14
5.0094e-14
5.28427e-14
5.46585e-14
6.5859e-14
5.55705e-14
8.05964e-14
5.22397e-14
9.51481e-14
4.47231e-14
1.07662e-13
3.3519e-14
1.16819e-13
1.93505e-14
1.2183e-13
3.12041e-15
1.22199e-13
-1.40205e-14
1.17713e-13
-3.07156e-14
1.08722e-13
-4.56489e-14
9.63472e-14
-5.7848e-14
8.22892e-14
-6.68204e-14
6.83195e-14
-7.24806e-14
5.58592e-14
-7.50182e-14
4.58748e-14
-7.48464e-14
3.89481e-14
-7.25995e-14
3.52496e-14
-6.90447e-14
3.43798e-14
-6.48754e-14
3.53185e-14
-6.05237e-14
3.6689e-14
-5.61552e-14
3.72407e-14
-5.18466e-14
3.62218e-14
-4.77608e-14
3.34074e-14
-4.41354e-14
2.88756e-14
-4.1075e-14
2.28295e-14
-3.83176e-14
1.5669e-14
-3.5165e-14
8.22317e-15
-3.06252e-14
1.86689e-15
-2.36627e-14
-1.66939e-15
-1.34205e-14
-7.36952e-16
6.37739e-16
5.79589e-15
1.86287e-14
1.83329e-14
4.01488e-14
3.66036e-14
6.42014e-14
5.98566e-14
8.92386e-14
8.70381e-14
1.13381e-13
1.16884e-13
1.34771e-13
1.47952e-13
1.51921e-13
1.78648e-13
1.63918e-13
2.07274e-13
1.70419e-13
2.32117e-13
1.7151e-13
2.51578e-13
1.67561e-13
2.64381e-13
1.59182e-13
2.69806e-13
1.47316e-13
2.67861e-13
1.33364e-13
2.59191e-13
1.19224e-13
2.4475e-13
1.07075e-13
2.25264e-13
9.89529e-14
2.00942e-13
9.6151e-14
1.71503e-13
9.88279e-14
1.36817e-13
1.05899e-13
9.76154e-14
1.15569e-13
5.63115e-14
1.2599e-13
1.70042e-14
1.35943e-13
-1.52649e-14
1.44483e-13
-3.70855e-14
1.50042e-13
-4.92394e-14
1.49442e-13
-5.68331e-14
1.39222e-13
-6.30932e-14
1.18518e-13
-6.24484e-14
9.04593e-14
-4.54084e-14
5.8126e-14
-1.80202e-14
2.17938e-14
-9.54361e-15
-1.44803e-14
-3.28278e-14
-5.29442e-14
6.30735e-14
-1.39711e-13
1.69269e-14
-2.01231e-13
2.73923e-13
9.86233e-15
3.7555e-13
4.28571e-14
-1.33468e-13
5.62548e-14
-8.25005e-14
5.12312e-14
-2.36896e-14
3.39935e-14
-2.59396e-14
6.09367e-14
-4.0124e-14
8.8434e-14
-3.80871e-14
9.12564e-14
-3.1614e-14
7.51346e-14
-3.08551e-14
4.99048e-14
-3.56478e-14
2.62599e-14
-4.16752e-14
1.14146e-14
-4.324e-14
1.88394e-15
-3.58913e-14
-1.07566e-14
-1.90509e-14
-2.96891e-14
4.43915e-15
-5.10399e-14
3.02068e-14
-6.90431e-14
5.45131e-14
-8.12972e-14
7.54306e-14
-8.86434e-14
9.27237e-14
-9.24182e-14
1.06993e-13
-9.32364e-14
1.18875e-13
-9.09372e-14
1.28558e-13
-8.46021e-14
1.35614e-13
-7.29751e-14
1.39204e-13
-5.55769e-14
1.38699e-13
-3.37788e-14
1.34405e-13
-1.08297e-14
1.27808e-13
9.43675e-15
1.20989e-13
2.43668e-14
1.1555e-13
3.3462e-14
1.11873e-13
3.80544e-14
1.09171e-13
4.02786e-14
1.06126e-13
4.22369e-14
1.01483e-13
4.56477e-14
9.42785e-14
5.16447e-14
8.38291e-14
6.04597e-14
6.98191e-14
7.12166e-14
5.24952e-14
8.22316e-14
3.27253e-14
9.17605e-14
1.17692e-14
9.86369e-14
-9.07443e-15
1.02335e-13
-2.86494e-14
1.02615e-13
-4.5885e-14
9.93141e-14
-5.97162e-14
9.25507e-14
-6.92009e-14
8.30667e-14
-7.37946e-14
7.2225e-14
-7.3546e-14
6.15857e-14
-6.9066e-14
5.24154e-14
-6.13482e-14
4.54893e-14
-5.16132e-14
4.11662e-14
-4.12143e-14
3.94559e-14
-3.14975e-14
3.99291e-14
-2.35451e-14
4.16324e-14
-1.79129e-14
4.32565e-14
-1.45615e-14
4.35749e-14
-1.30533e-14
4.18829e-14
-1.28616e-14
3.81472e-14
-1.35463e-14
3.28347e-14
-1.4696e-14
2.66489e-14
-1.57509e-14
2.04135e-14
-1.592e-14
1.51277e-14
-1.42944e-14
1.20114e-14
-1.00805e-14
1.23571e-14
-2.79421e-15
1.71962e-14
7.66873e-15
2.69733e-14
2.10495e-14
4.14372e-14
3.67408e-14
5.98063e-14
5.37792e-14
8.10803e-14
7.08878e-14
1.04301e-13
8.66619e-14
1.28635e-13
9.98923e-14
1.53285e-13
1.09899e-13
1.77336e-13
1.16696e-13
1.99656e-13
1.20878e-13
2.18945e-13
1.23291e-13
2.33929e-13
1.24654e-13
2.43656e-13
1.25355e-13
2.47744e-13
1.25512e-13
2.46416e-13
1.25272e-13
2.40241e-13
1.25107e-13
2.29608e-13
1.25921e-13
2.14308e-13
1.28743e-13
1.93444e-13
1.34175e-13
1.66009e-13
1.41736e-13
1.31701e-13
1.49712e-13
9.18323e-14
1.55591e-13
4.94877e-14
1.57362e-13
9.13757e-15
1.54637e-13
-2.49469e-14
1.48891e-13
-5.04843e-14
1.41502e-13
-6.86676e-14
1.31201e-13
-8.25122e-14
1.13726e-13
-9.21776e-14
8.65529e-14
-9.11154e-14
5.37496e-14
-7.28641e-14
2.28467e-14
-4.69811e-14
-3.39006e-15
-4.23119e-14
-2.63904e-14
-4.556e-14
-6.06799e-14
7.12157e-14
-1.5288e-13
6.66567e-15
-2.01013e-13
3.59121e-13
4.4857e-14
3.49643e-13
4.63166e-14
-1.34417e-13
4.18607e-14
-9.63598e-14
4.9598e-14
-5.29765e-14
2.19401e-14
-5.00504e-14
6.02708e-14
-5.65564e-14
9.29382e-14
-5.15686e-14
9.1238e-14
-4.2913e-14
6.87712e-14
-3.69191e-14
4.02864e-14
-3.34343e-14
1.93424e-14
-2.99471e-14
1.26092e-14
-2.29055e-14
1.2869e-14
-1.01121e-14
7.91982e-15
7.43061e-15
-7.57624e-15
2.65425e-14
-2.98779e-14
4.36738e-14
-5.15488e-14
5.66109e-14
-6.79851e-14
6.52746e-14
-7.86083e-14
7.12436e-14
-8.46108e-14
7.66091e-14
-8.72343e-14
8.29888e-14
-8.70459e-14
9.10904e-14
-8.34941e-14
1.00612e-13
-7.51186e-14
1.10353e-13
-6.06864e-14
1.18661e-13
-4.06326e-14
1.24232e-13
-1.76644e-14
1.26774e-13
4.14817e-15
1.26981e-13
2.1262e-14
1.25775e-13
3.21489e-14
1.23478e-13
3.74514e-14
1.19604e-13
3.91002e-14
1.13315e-13
3.93366e-14
1.03989e-13
4.01795e-14
9.14123e-14
4.31547e-14
7.56247e-14
4.89483e-14
5.68254e-14
5.71011e-14
3.55152e-14
6.61681e-14
1.26637e-14
7.44491e-14
-1.04014e-14
8.07766e-14
-3.23533e-14
8.47472e-14
-5.21509e-14
8.63472e-14
-6.90248e-14
8.55312e-14
-8.22965e-14
8.2242e-14
-9.1324e-14
7.67683e-14
-9.5678e-14
6.99335e-14
-9.53619e-14
6.28473e-14
-9.08573e-14
5.6457e-14
-8.29968e-14
5.13096e-14
-7.28395e-14
4.76283e-14
-6.16387e-14
4.54493e-14
-5.07921e-14
4.45772e-14
-4.16146e-14
4.44304e-14
-3.49707e-14
4.40581e-14
-3.10062e-14
4.24698e-14
-2.91918e-14
3.90964e-14
-2.86461e-14
3.40581e-14
-2.8482e-14
2.80809e-14
-2.79496e-14
2.2195e-14
-2.63682e-14
1.74737e-14
-2.30344e-14
1.49413e-14
-1.72804e-14
1.5562e-14
-8.67803e-15
2.01406e-14
2.76367e-15
2.90869e-14
1.65552e-14
4.21827e-14
3.18459e-14
5.85568e-14
4.75951e-14
7.6955e-14
6.26897e-14
9.61835e-14
7.60054e-14
1.15476e-13
8.65e-14
1.34575e-13
9.34075e-14
1.53482e-13
9.64977e-14
1.72046e-13
9.62607e-14
1.89618e-13
9.3877e-14
2.05006e-13
9.09259e-14
2.16791e-13
8.89334e-14
2.23869e-13
8.89418e-14
2.25912e-13
9.12965e-14
2.23448e-13
9.5729e-14
2.17343e-13
1.01707e-13
2.07973e-13
1.08828e-13
1.9451e-13
1.17055e-13
1.75032e-13
1.26515e-13
1.47488e-13
1.36957e-13
1.11326e-13
1.47038e-13
6.86637e-14
1.54203e-13
2.44144e-14
1.55421e-13
-1.55304e-14
1.4899e-13
-4.72041e-14
1.35867e-13
-7.12388e-14
1.19255e-13
-9.16644e-14
1.01602e-13
-1.10318e-13
8.20069e-14
-1.21186e-13
5.76364e-14
-1.13923e-13
2.91017e-14
-8.78285e-14
2.67971e-15
-6.28906e-14
-1.40031e-14
-7.24569e-14
-2.05304e-14
-5.89971e-14
-4.05422e-14
8.66854e-14
-1.3134e-13
-6.27602e-15
-1.78795e-13
4.41577e-13
6.49943e-14
2.73861e-13
4.43723e-14
-1.42515e-13
2.44382e-14
-1.09026e-13
5.56777e-14
-6.58833e-14
1.72991e-14
-5.17101e-14
6.03764e-14
-4.80939e-14
9.56652e-14
-4.17753e-14
9.09195e-14
-3.56628e-14
6.38027e-14
-3.09056e-14
3.25125e-14
-2.6446e-14
1.32926e-14
-2.05208e-14
1.25723e-14
-1.08922e-14
2.01332e-14
2.96852e-15
2.10323e-14
1.89097e-14
8.44009e-15
3.36113e-14
-1.38708e-14
4.41176e-14
-3.71028e-14
4.90876e-14
-5.48282e-14
4.92969e-14
-6.54472e-14
4.70977e-14
-7.03816e-14
4.51679e-14
-7.18843e-14
4.54673e-14
-7.1591e-14
4.88838e-14
-6.96437e-14
5.52924e-14
-6.4666e-14
6.36422e-14
-5.48068e-14
7.21663e-14
-3.93714e-14
7.89779e-14
-1.99679e-14
8.28858e-14
-1.71275e-16
8.38234e-14
1.62039e-14
8.25062e-14
2.69359e-14
7.9645e-14
3.20526e-14
7.5434e-14
3.31913e-14
6.96662e-14
3.25306e-14
6.21561e-14
3.20873e-14
5.29352e-14
3.34219e-14
4.20942e-14
3.73804e-14
2.96095e-14
4.37854e-14
1.54642e-14
5.14446e-14
-5.64828e-17
5.87487e-14
-1.6264e-14
6.4526e-14
-3.23076e-14
6.84669e-14
-4.75023e-14
7.0834e-14
-6.14154e-14
7.1879e-14
-7.36889e-14
7.16053e-14
-8.38802e-14
7.00141e-14
-9.15363e-14
6.74116e-14
-9.64114e-14
6.43541e-14
-9.8576e-14
6.12984e-14
-9.83272e-14
5.83642e-14
-9.60634e-14
5.54364e-14
-9.22976e-14
5.24254e-14
-8.77607e-14
4.93473e-14
-8.33684e-14
4.61536e-14
-7.99315e-14
4.25583e-14
-7.77682e-14
3.81355e-14
-7.65161e-14
3.26692e-14
-7.52924e-14
2.64748e-14
-7.30647e-14
2.04278e-14
-6.89524e-14
1.56983e-14
-6.23054e-14
1.34086e-14
-5.26364e-14
1.44236e-14
-3.96037e-14
1.92968e-14
-2.31404e-14
2.82404e-14
-3.64998e-15
4.10171e-14
1.79079e-14
5.68116e-14
4.01359e-14
7.42592e-14
6.14631e-14
9.17555e-14
8.04085e-14
1.07975e-13
9.57369e-14
1.22337e-13
1.06516e-13
1.35144e-13
1.12155e-13
1.47261e-13
1.12498e-13
1.5947e-13
1.07942e-13
1.71837e-13
9.94986e-14
1.83432e-13
8.87275e-14
1.92618e-13
7.74856e-14
1.97783e-13
6.75668e-14
1.98155e-13
6.03193e-14
1.94141e-13
5.63934e-14
1.86892e-13
5.57191e-14
1.77193e-13
5.77889e-14
1.64391e-13
6.20935e-14
1.46113e-13
6.85004e-14
1.19388e-13
7.71488e-14
8.269e-14
8.78634e-14
3.80907e-14
9.92918e-14
-8.23217e-15
1.08718e-13
-4.80438e-14
1.12892e-13
-7.59989e-14
1.09802e-13
-9.40428e-14
9.98682e-14
-1.10112e-13
8.56882e-14
-1.28142e-13
7.00318e-14
-1.38753e-13
5.37172e-14
-1.25747e-13
3.55528e-14
-8.91451e-14
1.63146e-14
-6.0931e-14
4.76744e-15
-8.65261e-14
6.31567e-15
-6.65516e-14
-4.48918e-15
9.5646e-14
-9.29507e-14
-2.32069e-14
-1.49777e-13
5.05381e-13
7.60737e-14
1.74658e-13
4.00547e-14
-1.40734e-13
1.76056e-14
-1.07421e-13
7.42613e-14
-5.91082e-14
2.31381e-14
-3.61529e-14
6.27662e-14
-2.66685e-14
9.67615e-14
-2.31849e-14
8.9506e-14
-2.38396e-14
5.89814e-14
-2.52271e-14
2.54971e-14
-2.50942e-14
7.49729e-15
-2.13683e-14
1.11356e-14
-1.22396e-14
2.39335e-14
1.72469e-15
2.92084e-14
1.75067e-14
1.92871e-14
3.15835e-14
-2.05266e-15
4.11309e-14
-2.50992e-14
4.48388e-14
-4.21142e-14
4.3312e-14
-5.08026e-14
3.87081e-14
-5.30124e-14
3.35943e-14
-5.21069e-14
2.98753e-14
-5.08429e-14
2.84702e-14
-5.01018e-14
2.95075e-14
-4.87108e-14
3.246e-14
-4.43527e-14
3.6137e-14
-3.521e-14
3.89393e-14
-2.14855e-14
3.95528e-14
-5.69024e-15
3.76298e-14
8.6624e-15
3.38441e-14
1.89713e-14
2.92772e-14
2.46306e-14
2.47235e-14
2.67376e-14
2.04746e-14
2.70717e-14
1.65464e-14
2.72812e-14
1.28882e-14
2.85926e-14
9.30156e-15
3.17086e-14
5.28172e-15
3.66002e-14
1.30765e-16
4.2398e-14
-6.65236e-15
4.77684e-14
-1.50749e-14
5.16883e-14
-2.47339e-14
5.40111e-14
-3.51573e-14
5.53265e-14
-4.60238e-14
5.63172e-14
-5.70889e-14
5.72702e-14
-6.80038e-14
5.81279e-14
-7.83095e-14
5.88259e-14
-8.76265e-14
5.94216e-14
-9.58007e-14
5.98787e-14
-1.02825e-13
5.98357e-14
-1.08648e-13
5.8704e-14
-1.13114e-13
5.60386e-14
-1.16142e-13
5.18162e-14
-1.17904e-13
4.63706e-14
-1.18786e-13
4.01104e-14
-1.19067e-13
3.33459e-14
-1.18594e-13
2.64002e-14
-1.16723e-13
1.98612e-14
-1.12561e-13
1.46896e-14
-1.05307e-13
1.20445e-14
-9.44451e-14
1.29407e-14
-7.97294e-14
1.79651e-14
-6.11133e-14
2.7177e-14
-3.87831e-14
4.01397e-14
-1.33203e-14
5.59577e-14
1.41483e-14
7.32898e-14
4.19778e-14
9.04376e-14
6.8251e-14
1.05642e-13
9.11313e-14
1.17577e-13
1.09154e-13
1.2584e-13
1.21354e-13
1.31147e-13
1.27238e-13
1.35047e-13
1.26707e-13
1.39208e-13
1.19999e-13
1.44576e-13
1.07721e-13
1.5084e-13
9.09214e-14
1.56515e-13
7.11622e-14
1.59659e-13
5.04666e-14
1.58887e-13
3.10827e-14
1.54074e-13
1.50409e-14
1.46223e-13
3.67285e-15
1.36472e-13
-2.65676e-15
1.24731e-13
-4.33523e-15
1.08986e-13
-1.91204e-15
8.59161e-14
4.50012e-15
5.30308e-14
1.51888e-14
1.12466e-14
3.0158e-14
-3.35656e-14
4.81731e-14
-7.22951e-14
6.64518e-14
-9.7822e-14
8.11074e-14
-1.11038e-13
8.84416e-14
-1.20625e-13
8.68654e-14
-1.32956e-13
7.8647e-14
-1.40274e-13
6.82693e-14
-1.24475e-13
5.69173e-14
-8.09227e-14
4.24636e-14
-4.82558e-14
3.15436e-14
-8.78869e-14
3.31235e-14
-6.77177e-14
2.33745e-14
8.91363e-14
-6.43055e-14
-4.10216e-14
-1.31612e-13
5.36936e-13
8.47695e-14
7.47656e-14
3.66968e-14
-1.26201e-13
2.66306e-14
-9.19071e-14
1.02255e-13
-4.24593e-14
3.61587e-14
-1.85909e-14
6.63171e-14
-8.92278e-15
9.64516e-14
-9.95822e-15
8.73775e-14
-1.66812e-14
5.4923e-14
-2.33861e-14
2.06376e-14
-2.72271e-14
4.3955e-15
-2.57349e-14
1.16321e-14
-1.72404e-14
2.8134e-14
-3.10815e-15
3.63423e-14
1.32007e-14
2.82933e-14
2.82536e-14
7.77714e-15
3.94481e-14
-1.49442e-14
4.52895e-14
-3.11403e-14
4.57842e-14
-3.79249e-14
4.24554e-14
-3.7487e-14
3.75085e-14
-3.4165e-14
3.27574e-14
-3.17011e-14
2.91843e-14
-3.1647e-14
2.71473e-14
-3.31178e-14
2.66023e-14
-3.35943e-14
2.70053e-14
-3.04216e-14
2.7248e-14
-2.24703e-14
2.60748e-14
-1.09552e-14
2.28227e-14
1.29447e-15
1.78245e-14
1.15706e-14
1.21019e-14
1.86492e-14
6.68247e-15
2.28984e-14
2.16528e-15
2.54463e-14
-1.2437e-15
2.73482e-14
-3.54943e-15
2.93054e-14
-4.99137e-15
3.17243e-14
-6.20303e-15
3.46676e-14
-8.15147e-15
3.76871e-14
-1.17332e-14
3.99347e-14
-1.73341e-14
4.07272e-14
-2.47545e-14
4.01418e-14
-3.35217e-14
3.90483e-14
-4.32359e-14
3.85174e-14
-5.36279e-14
3.91672e-14
-6.43969e-14
4.10048e-14
-7.51294e-14
4.37351e-14
-8.54477e-14
4.70489e-14
-9.52016e-14
5.05646e-14
-1.04436e-13
5.3602e-14
-1.13126e-13
5.51955e-14
-1.20959e-13
5.44764e-14
-1.27399e-13
5.11273e-14
-1.31987e-13
4.55282e-14
-1.34565e-13
3.85153e-14
-1.35197e-13
3.10256e-14
-1.33884e-13
2.39331e-14
-1.3034e-13
1.81282e-14
-1.24036e-13
1.46321e-14
-1.14455e-13
1.45219e-14
-1.01324e-13
1.8646e-14
-8.46653e-14
2.73065e-14
-6.46976e-14
4.01012e-14
-4.17695e-14
5.59763e-14
-1.64368e-14
7.33993e-14
1.03638e-14
9.05509e-14
3.72142e-14
1.05529e-13
6.23244e-14
1.16635e-13
8.38445e-14
1.2277e-13
1.00236e-13
1.23825e-13
1.10534e-13
1.20854e-13
1.14396e-13
1.15836e-13
1.11979e-13
1.11034e-13
1.03712e-13
1.08157e-13
9.01365e-14
1.077e-13
7.18987e-14
1.08794e-13
4.99325e-14
1.09694e-13
2.57453e-14
1.08689e-13
1.56565e-15
1.04952e-13
-1.98862e-14
9.87975e-14
-3.60837e-14
9.10714e-14
-4.55231e-14
8.20094e-14
-4.81718e-14
7.02419e-14
-4.50891e-14
5.29079e-14
-3.74657e-14
2.71997e-14
-2.57709e-14
-6.98291e-15
-9.7788e-15
-4.51668e-14
1.06735e-14
-7.93163e-14
3.46485e-14
-1.02695e-13
5.93009e-14
-1.15068e-13
7.96048e-14
-1.2259e-13
9.0109e-14
-1.30059e-13
8.92514e-14
-1.32305e-13
8.12786e-14
-1.14886e-13
7.02577e-14
-6.83591e-14
5.55145e-14
-3.22913e-14
4.22334e-14
-8.37317e-14
4.01563e-14
-6.49273e-14
2.81854e-14
6.89541e-14
-5.98098e-14
-5.3959e-14
-1.31038e-13
5.32827e-13
8.89101e-14
-2.06403e-14
3.72967e-14
-1.02363e-13
4.85828e-14
-6.84751e-14
1.31043e-13
-2.61829e-14
5.02584e-14
-8.5599e-15
6.95611e-14
-2.05537e-15
9.59078e-14
-5.79842e-15
8.63553e-14
-1.40998e-14
5.36221e-14
-2.14324e-14
2.01096e-14
-2.54592e-14
6.1883e-15
-2.37921e-14
1.61194e-14
-1.51938e-14
3.45139e-14
-1.58444e-15
4.37891e-14
1.36954e-14
3.62016e-14
2.80407e-14
1.55494e-14
3.97019e-14
-7.63609e-15
4.74039e-14
-2.38177e-14
5.06218e-14
-2.94201e-14
5.0097e-14
-2.67213e-14
4.75353e-14
-2.08186e-14
4.46733e-14
-1.63374e-14
4.26196e-14
-1.54956e-14
4.18731e-14
-1.78461e-14
4.25638e-14
-2.10369e-14
4.4402e-14
-2.2085e-14
4.64648e-14
-1.89258e-14
4.73576e-14
-1.15466e-14
4.58848e-14
-1.8478e-15
4.17031e-14
7.69978e-15
3.5374e-14
1.54904e-14
2.7849e-14
2.12445e-14
1.99424e-14
2.54436e-14
1.21964e-14
2.85468e-14
4.99746e-15
3.07135e-14
-1.43545e-15
3.19991e-14
-7.26035e-15
3.25048e-14
-1.30982e-14
3.22243e-14
-1.97343e-14
3.09068e-14
-2.76207e-14
2.83214e-14
-3.66306e-14
2.47703e-14
-4.62694e-14
2.12738e-14
-5.60782e-14
1.91266e-14
-6.5817e-14
1.91867e-14
-7.53284e-14
2.15318e-14
-8.43604e-14
2.56896e-14
-9.26232e-14
3.10612e-14
-1.00021e-13
3.70594e-14
-1.06742e-13
4.29236e-14
-1.13037e-13
4.75906e-14
-1.18861e-13
4.99346e-14
-1.23724e-13
4.92683e-14
-1.26912e-13
4.57023e-14
-1.27862e-13
4.00928e-14
-1.26366e-13
3.36727e-14
-1.22473e-13
2.76946e-14
-1.16242e-13
2.33021e-14
-1.07607e-13
2.15705e-14
-9.64752e-14
2.34979e-14
-8.29114e-14
2.98051e-14
-6.72347e-14
4.06214e-14
-4.99336e-14
5.52547e-14
-3.15141e-14
7.22002e-14
-1.24444e-14
8.93853e-14
6.73935e-15
1.04539e-13
2.52617e-14
1.15581e-13
4.20371e-14
1.20976e-13
5.57987e-14
1.20057e-13
6.53879e-14
1.13243e-13
7.0065e-14
1.02048e-13
6.969e-14
8.87909e-14
6.4696e-14
7.60136e-14
5.58647e-14
6.57913e-14
4.40104e-14
5.91754e-14
2.97403e-14
5.60008e-14
1.34659e-14
5.51409e-14
-4.26493e-15
5.50834e-14
-2.2276e-14
5.45597e-14
-3.85062e-14
5.28919e-14
-5.03682e-14
4.98861e-14
-5.57506e-14
4.52637e-14
-5.40701e-14
3.79916e-14
-4.65762e-14
2.60265e-14
-3.54995e-14
7.23767e-15
-2.26635e-14
-1.85499e-14
-8.56442e-15
-4.77343e-14
7.43793e-15
-7.40797e-14
2.61554e-14
-9.31984e-14
4.71544e-14
-1.06137e-13
6.73168e-14
-1.16553e-13