/*--------------------------------*- C++ -*----------------------------------*\
| =========                 |                                                 |
| \\      /  F ield         | OpenFOAM: The Open Source CFD Toolbox           |
|  \\    /   O peration     | Version:  2406                                  |
|   \\  /    A nd           | Website:  www.openfoam.com                      |
|    \\/     M anipulation  |                                                 |
\*---------------------------------------------------------------------------*/
FoamFile
{
    version     2.0;
    format      ascii;
    arch        "LSB;label=32;scalar=64";
    class       volScalarField;
    location    "3";
    object      p;
}
// * * * * * * * * * * * * * * * * * * * * * * * * * * * * * * * * * * * * * //

dimensions      [1 -1 -2 0 0 0 0];

internalField   nonuniform List<scalar> 
10000
(
1857.43
1864.4
1866.85
1868.94
1874.94
1879.86
1883.83
1888.07
1893.69
1900.54
1907.47
1913.03
1916.25
1916.89
1915.19
1911.53
1906.18
1899.35
1891.19
1881.97
1872.19
1862.48
1853.49
1845.65
1839.12
1833.94
1830.03
1827.36
1825.9
1825.69
1826.74
1829.09
1832.72
1837.59
1843.64
1850.79
1858.91
1867.82
1877.3
1887.07
1896.82
1906.21
1914.91
1922.59
1928.96
1933.81
1936.95
1938.3
1937.85
1935.73
1932.18
1927.53
1922.17
1916.51
1910.86
1905.45
1900.4
1895.69
1891.18
1886.66
1881.88
1876.57
1870.55
1863.76
1856.27
1848.32
1840.3
1832.71
1826.1
1821.01
1817.87
1816.95
1818.3
1821.8
1827.09
1833.71
1841.11
1848.73
1856.1
1862.85
1868.78
1873.79
1877.89
1881.1
1883.46
1884.96
1885.6
1885.42
1884.54
1883.18
1881.61
1880.11
1878.89
1878.02
1877.4
1876.8
1875.89
1874.33
1872
1868.9
1716.24
1723.11
1728.06
1731.82
1737.22
1742
1746.52
1751.98
1758.85
1766.12
1772.54
1777.08
1779.19
1778.86
1776.34
1771.98
1766.08
1758.89
1750.64
1741.63
1732.27
1723.06
1714.46
1706.81
1700.27
1694.86
1690.57
1687.39
1685.34
1684.52
1685.03
1686.93
1690.27
1695.07
1701.29
1708.87
1717.65
1727.4
1737.81
1748.52
1759.15
1769.34
1778.7
1786.87
1793.54
1798.43
1801.39
1802.34
1801.36
1798.61
1794.39
1789.08
1783.09
1776.83
1770.68
1764.9
1759.63
1754.83
1750.37
1745.99
1741.42
1736.38
1730.7
1724.31
1717.29
1709.88
1702.48
1695.62
1689.84
1685.66
1683.45
1683.41
1685.54
1689.63
1695.29
1702
1709.17
1716.24
1722.74
1728.33
1732.9
1736.47
1739.22
1741.28
1742.79
1743.76
1744.17
1744.05
1743.5
1742.79
1742.22
1742.03
1742.24
1742.6
1742.76
1742.57
1742.09
1741.03
1738.44
1735.04
1577.65
1582.7
1587.96
1593.45
1598.69
1603.64
1608.96
1615.35
1622.75
1629.96
1635.91
1639.81
1641.23
1640.13
1636.8
1631.7
1625.34
1618.07
1610.17
1601.83
1593.31
1584.95
1577.12
1570.1
1564.06
1559.04
1555.01
1551.94
1549.83
1548.74
1548.83
1550.22
1553.04
1557.34
1563.13
1570.35
1578.88
1588.48
1598.86
1609.62
1620.38
1630.71
1640.22
1648.51
1655.26
1660.21
1663.22
1664.24
1663.36
1660.78
1656.79
1651.77
1646.09
1640.15
1634.26
1628.66
1623.45
1618.63
1614.04
1609.47
1604.62
1599.27
1593.25
1586.55
1579.3
1571.79
1564.44
1557.79
1552.38
1548.69
1547.08
1547.71
1550.55
1555.34
1561.65
1568.95
1576.6
1584.03
1590.74
1596.38
1600.82
1604.11
1606.43
1607.98
1608.92
1609.3
1609.11
1608.37
1607.18
1605.84
1604.76
1604.32
1604.55
1605.01
1605.05
1604.38
1603.51
1602.71
1600.55
1597.97
1439.84
1443.26
1447.09
1452.7
1458.28
1463.86
1470.16
1477.61
1485.68
1492.89
1498.37
1501.61
1502.33
1500.56
1496.64
1491.15
1484.67
1477.63
1470.24
1462.59
1454.79
1447.09
1439.78
1433.15
1427.38
1422.52
1418.57
1415.47
1413.25
1411.97
1411.79
1412.86
1415.32
1419.23
1424.64
1431.49
1439.69
1449.01
1459.14
1469.71
1480.32
1490.53
1499.95
1508.17
1514.87
1519.8
1522.85
1523.99
1523.34
1521.11
1517.58
1513.07
1507.93
1502.51
1497.06
1491.8
1486.81
1482.06
1477.41
1472.65
1467.53
1461.86
1455.54
1448.59
1441.18
1433.65
1426.44
1420.08
1415.12
1412.02
1411.1
1412.51
1416.18
1421.83
1429.01
1437.16
1445.62
1453.76
1461.04
1467.08
1471.73
1475.03
1477.17
1478.36
1478.76
1478.41
1477.32
1475.51
1473.17
1470.68
1468.57
1467.22
1466.73
1466.68
1466.38
1465.34
1463.92
1462.63
1459.69
1457.14
1299.49
1302.63
1306.6
1312.16
1318.06
1324.33
1331.38
1339.33
1347.42
1354.1
1358.79
1361.33
1361.6
1359.64
1355.76
1350.45
1344.27
1337.57
1330.49
1323.04
1315.29
1307.42
1299.75
1292.62
1286.33
1281.05
1276.87
1273.8
1271.84
1271.02
1271.44
1273.17
1276.26
1280.72
1286.52
1293.58
1301.78
1310.92
1320.72
1330.83
1340.86
1350.42
1359.14
1366.66
1372.71
1377.08
1379.68
1380.52
1379.75
1377.58
1374.3
1370.23
1365.67
1360.92
1356.16
1351.54
1347.1
1342.81
1338.52
1334.06
1329.2
1323.8
1317.78
1311.23
1304.36
1297.5
1291.09
1285.61
1281.55
1279.32
1279.18
1281.25
1285.42
1291.41
1298.78
1306.99
1315.44
1323.54
1330.79
1336.86
1341.59
1345
1347.22
1348.45
1348.8
1348.33
1346.99
1344.78
1341.84
1338.53
1335.36
1332.68
1330.56
1328.73
1326.87
1324.82
1322.64
1320.65
1317
1314.77
1160.4
1162.65
1166.21
1171.07
1176.59
1183.24
1190.77
1199.12
1207.26
1213.68
1218.04
1220.51
1221.14
1219.93
1217.02
1212.74
1207.5
1201.55
1194.98
1187.77
1179.99
1171.86
1163.76
1156.1
1149.28
1143.59
1139.23
1136.26
1134.67
1134.41
1135.43
1137.71
1141.21
1145.86
1151.58
1158.29
1165.89
1174.24
1183.12
1192.26
1201.34
1210.03
1217.99
1224.91
1230.52
1234.65
1237.18
1238.13
1237.6
1235.78
1232.93
1229.35
1225.33
1221.11
1216.89
1212.75
1208.72
1204.75
1200.72
1196.47
1191.84
1186.71
1181.03
1174.9
1168.55
1162.32
1156.61
1151.88
1148.55
1146.98
1147.41
1149.95
1154.51
1160.84
1168.53
1177.06
1185.84
1194.28
1201.92
1208.41
1213.59
1217.44
1220.02
1221.41
1221.67
1220.77
1218.72
1215.53
1211.43
1206.83
1202.26
1198.05
1194.13
1190.21
1186.29
1182.81
1179.97
1177.55
1173.65
1172.3
1021.92
1023.17
1025.88
1029.85
1034.64
1041.41
1049.09
1057.51
1065.57
1071.78
1076.06
1078.81
1080.2
1080.15
1078.55
1075.48
1071.18
1065.82
1059.48
1052.19
1044.08
1035.44
1026.73
1018.48
1011.17
1005.24
1000.93
998.371
997.492
998.143
1000.13
1003.27
1007.39
1012.36
1018.04
1024.34
1031.21
1038.56
1046.27
1054.16
1062
1069.52
1076.44
1082.52
1087.51
1091.24
1093.59
1094.55
1094.21
1092.71
1090.28
1087.16
1083.64
1079.94
1076.23
1072.6
1069.07
1065.57
1062.01
1058.27
1054.22
1049.76
1044.88
1039.67
1034.35
1029.22
1024.62
1020.93
1018.49
1017.61
1018.48
1021.22
1025.79
1032.01
1039.55
1047.95
1056.66
1065.14
1072.92
1079.65
1085.17
1089.41
1092.36
1094
1094.27
1093.08
1090.38
1086.24
1080.93
1074.93
1068.8
1062.92
1057.25
1051.53
1045.79
1040.85
1037.43
1034.95
1031.19
1031.12
882.795
883.019
884.725
888.108
892.429
899.487
907.366
915.832
923.771
929.81
934.075
937.215
939.479
940.66
940.422
938.602
935.268
930.56
924.572
917.389
909.2
900.359
891.37
882.808
875.241
869.154
864.887
862.58
862.167
863.423
866.045
869.727
874.21
879.285
884.802
890.668
896.838
903.279
909.933
916.692
923.392
929.833
935.798
941.064
945.42
948.697
950.786
951.661
951.372
950.037
947.833
944.982
941.731
938.313
934.908
931.618
928.468
925.417
922.385
919.274
915.988
912.459
908.682
904.736
900.79
897.088
893.912
891.545
890.25
890.245
891.696
894.702
899.272
905.292
912.51
920.535
928.871
936.997
944.449
950.9
956.175
960.216
962.991
964.428
964.381
962.695
959.296
954.305
948.068
941.103
933.923
926.865
919.997
913.219
906.586
900.786
897.011
894.604
891.046
892.164
742.481
741.85
742.979
746.426
750.825
758.385
766.499
774.9
782.555
788.261
792.361
795.724
798.685
800.939
801.93
801.285
798.953
795.051
789.712
783.07
775.336
766.857
758.119
749.691
742.153
736.024
731.693
729.353
728.974
730.328
733.075
736.854
741.351
746.321
751.594
757.063
762.68
768.421
774.254
780.109
785.866
791.372
796.456
800.933
804.624
807.372
809.07
809.682
809.241
807.842
805.632
802.801
799.578
796.199
792.869
789.731
786.847
784.208
781.759
779.421
777.118
774.791
772.424
770.065
767.828
765.881
764.424
763.652
763.736
764.82
767.011
770.384
774.958
780.667
787.326
794.614
802.096
809.288
815.749
821.171
825.408
828.448
830.317
830.975
830.276
828.017
824.091
818.63
812.057
804.923
797.65
790.399
783.219
776.212
769.542
763.578
759.704
757.308
753.74
755.515
601.471
600.208
601.395
605.498
610.357
618.399
626.596
634.692
641.803
646.955
650.705
654.112
657.582
660.706
662.734
663.109
661.683
658.574
653.981
648.095
641.138
633.414
625.342
617.436
610.245
604.289
599.989
597.587
597.112
598.378
601.057
604.774
609.186
614.021
619.077
624.221
629.378
634.509
639.584
644.551
649.327
653.803
657.856
661.353
664.158
666.139
667.201
667.302
666.47
664.785
662.38
659.427
656.139
652.753
649.502
646.572
644.072
642.035
640.429
639.188
638.233
637.494
636.923
636.514
636.303
636.367
636.805
637.714
639.18
641.271
644.045
647.548
651.805
656.786
662.372
668.326
674.304
679.902
684.742
688.56
691.259
692.889
693.553
693.289
691.989
689.433
685.45
680.134
673.913
667.353
660.784
654.17
647.425
640.757
634.477
628.719
624.931
622.439
618.698
620.513
460.267
458.565
460.323
465.376
470.824
479.187
487.317
494.989
501.491
506.118
509.618
513.178
517.219
521.218
524.236
525.555
524.942
522.54
518.639
513.523
507.443
500.661
493.509
486.413
479.861
474.345
470.282
467.948
467.417
468.555
471.068
474.591
478.774
483.325
488.02
492.699
497.26
501.647
505.829
509.775
513.436
516.745
519.628
522.001
523.772
524.838
525.114
524.558
523.189
521.089
518.389
515.263
511.92
508.602
505.557
503
501.081
499.863
499.331
499.415
500.019
501.044
502.399
504.014
505.844
507.869
510.087
512.501
515.118
517.946
521.005
524.325
527.937
531.843
535.987
540.219
544.303
547.948
550.874
552.894
553.964
554.181
553.712
552.663
550.98
548.44
544.819
540.128
534.736
529.158
523.642
518
512.019
505.94
500.165
494.708
491.143
488.548
484.706
486.169
319.1
317.152
319.693
325.61
331.554
340.045
348.059
355.376
361.436
365.807
369.377
373.367
378.154
383.091
387.084
389.277
389.38
387.576
384.274
379.888
374.735
369.057
363.094
357.161
351.645
346.965
343.491
341.481
341.02
342.008
344.185
347.217
350.775
354.582
358.426
362.155
365.669
368.917
371.888
374.58
376.98
379.061
380.782
382.091
382.919
383.178
382.78
381.67
379.856
377.417
374.498
371.288
368.014
364.926
362.281
360.307
359.165
358.928
359.577
361.022
363.135
365.778
368.815
372.123
375.594
379.133
382.659
386.105
389.424
392.59
395.609
398.514
401.348
404.143
406.882
409.486
411.808
413.665
414.881
415.345
415.057
414.137
412.772
411.111
409.141
406.666
403.444
399.441
394.945
390.38
385.885
381.164
375.925
370.459
365.196
360.046
356.824
354.231
350.546
351.578
178.267
176.307
179.519
185.855
192.013
200.424
208.31
215.415
221.278
225.719
229.682
234.327
239.933
245.753
250.591
253.51
254.183
252.846
250.04
246.335
242.152
237.738
233.256
228.887
224.881
221.529
219.098
217.766
217.581
218.438
220.108
222.298
224.734
227.201
229.549
231.686
233.562
235.17
236.537
237.705
238.706
239.541
240.188
240.601
240.713
240.427
239.639
238.267
236.292
233.784
230.894
227.837
224.865
222.246
220.24
219.071
218.89
219.753
221.612
224.341
227.769
231.712
235.994
240.459
244.959
249.361
253.541
257.398
260.861
263.905
266.549
268.853
270.892
272.722
274.354
275.742
276.791
277.389
277.439
276.889
275.757
274.145
272.215
270.107
267.835
265.245
262.141
258.507
254.618
250.814
247.122
243.127
238.487
233.567
228.817
223.992
221.173
218.712
215.437
216.193
38.3937
36.6273
40.0977
46.1777
52.0761
60.1047
67.7549
74.6835
80.4974
85.2229
89.7808
95.1687
101.542
108.093
113.599
117.095
118.241
117.307
114.947
111.883
108.663
105.576
102.729
100.175
98.0041
96.3427
95.3067
94.9505
95.2361
96.0248
97.0995
98.2188
99.1813
99.8665
100.233
100.294
100.091
99.6917
99.1837
98.6599
98.1909
97.8048
97.484
97.1736
96.7867
96.2086
95.3087
93.9735
92.1506
89.8838
87.3202
84.6888
82.2645
80.3326
79.1565
78.9471
79.8329
81.8367
84.8732
88.7698
93.3055
98.2512
103.397
108.56
113.58
118.309
122.615
126.386
129.554
132.107
134.101
135.642
136.853
137.83
138.611
139.163
139.41
139.271
138.695
137.669
136.214
134.386
132.27
129.946
127.41
124.551
121.252
117.592
113.898
110.503
107.344
103.899
99.7473
95.3295
91.1132
86.6548
84.2017
81.9452
79.2016
79.8971
-99.7579
-101.271
-98.157
-93.0475
-87.9861
-80.7752
-73.645
-67.052
-61.3337
-56.2933
-51.1097
-45.017
-37.998
-30.8644
-24.7943
-20.7355
-19.0503
-19.4739
-21.304
-23.7077
-26.0153
-27.8651
-29.1664
-29.9616
-30.3088
-30.2476
-29.8257
-29.1323
-28.3115
-27.5553
-27.0804
-27.0837
-27.6888
-28.9135
-30.677
-32.8401
-35.2448
-37.7325
-40.1468
-42.3442
-44.2178
-45.7208
-46.8732
-47.7499
-48.4644
-49.1571
-49.982
-51.0794
-52.5343
-54.3353
-56.357
-58.3752
-60.1065
-61.2556
-61.5577
-60.8136
-58.9165
-55.8713
-51.7951
-46.8967
-41.4375
-35.6867
-29.8882
-24.2472
-18.9353
-14.1024
-9.88145
-6.38124
-3.66544
-1.72971
-0.489964
0.205881
0.539046
0.664662
0.663782
0.528514
0.19127
-0.419388
-1.33385
-2.53827
-4.00502
-5.7221
-7.69681
-9.95905
-12.5802
-15.6693
-19.2616
-23.1623
-26.9393
-30.2152
-33.0609
-36.0886
-39.7929
-43.7013
-47.3424
-51.3667
-53.5553
-55.6053
-57.8374
-57.0673
-235.777
-237.15
-234.983
-231.395
-227.665
-221.733
-215.505
-209.55
-204.136
-198.929
-193.247
-186.597
-179.09
-171.489
-164.863
-160.113
-157.64
-157.26
-158.314
-159.942
-161.388
-162.205
-162.269
-161.664
-160.549
-159.095
-157.491
-155.952
-154.723
-154.048
-154.15
-155.191
-157.23
-160.199
-163.912
-168.111
-172.527
-176.908
-181.029
-184.701
-187.786
-190.221
-192.03
-193.311
-194.208
-194.891
-195.535
-196.3
-197.294
-198.538
-199.939
-201.295
-202.332
-202.757
-202.307
-200.788
-198.103
-194.268
-189.41
-183.747
-177.559
-171.139
-164.762
-158.663
-153.034
-148.038
-143.815
-140.475
-138.081
-136.628
-136.024
-136.092
-136.608
-137.352
-138.178
-139.038
-139.971
-141.039
-142.266
-143.623
-145.065
-146.595
-148.288
-150.283
-152.762
-155.878
-159.63
-163.721
-167.626
-170.894
-173.56
-176.253
-179.525
-182.889
-185.917
-189.422
-191.432
-193.306
-195.088
-194.253
-369.857
-371.324
-370.406
-368.55
-366.368
-362.01
-356.986
-351.95
-347.092
-341.963
-336.03
-329.067
-321.29
-313.363
-306.193
-300.604
-297.06
-295.522
-295.482
-296.155
-296.77
-296.8
-296.05
-294.581
-292.584
-290.305
-288.02
-286.033
-284.66
-284.186
-284.835
-286.744
-289.933
-294.28
-299.53
-305.344
-311.363
-317.255
-322.739
-327.583
-331.621
-334.772
-337.058
-338.594
-339.555
-340.142
-340.556
-340.973
-341.517
-342.235
-343.065
-343.838
-344.301
-344.174
-343.196
-341.174
-338.01
-333.71
-328.386
-322.242
-315.545
-308.59
-301.673
-295.061
-288.984
-283.64
-279.189
-275.752
-273.401
-272.138
-271.88
-272.46
-273.641
-275.164
-276.81
-278.452
-280.063
-281.672
-283.299
-284.914
-286.465
-287.942
-289.438
-291.156
-293.372
-296.317
-299.996
-304.071
-307.959
-311.168
-313.679
-316.086
-318.937
-321.744
-324.15
-327.065
-328.905
-330.616
-331.957
-331.178
-502.707
-504.477
-504.704
-504.392
-503.606
-500.809
-497.05
-493.039
-488.895
-484.081
-478.192
-471.233
-463.494
-455.497
-447.939
-441.534
-436.805
-433.903
-432.55
-432.139
-431.959
-431.442
-430.3
-428.514
-426.243
-423.736
-421.302
-419.284
-418.034
-417.857
-418.979
-421.522
-425.485
-430.732
-436.988
-443.876
-450.985
-457.929
-464.378
-470.069
-474.806
-478.488
-481.122
-482.825
-483.793
-484.26
-484.453
-484.57
-484.75
-485.059
-485.458
-485.808
-485.882
-485.412
-484.142
-481.876
-478.502
-474.013
-468.493
-462.115
-455.113
-447.767
-440.375
-433.232
-426.615
-420.77
-415.897
-412.14
-409.577
-408.214
-407.982
-408.74
-410.274
-412.328
-414.637
-416.992
-419.275
-421.45
-423.519
-425.466
-427.253
-428.868
-430.383
-432.004
-434.039
-436.767
-440.228
-444.091
-447.78
-450.808
-453.122
-455.254
-457.706
-459.984
-461.808
-464.106
-465.711
-467.23
-468.054
-467.467
-635.28
-637.365
-638.318
-639.065
-639.207
-637.638
-634.922
-631.798
-628.343
-623.974
-618.381
-611.751
-604.42
-596.741
-589.163
-582.246
-576.535
-572.367
-569.73
-568.26
-567.383
-566.533
-565.335
-563.663
-561.589
-559.315
-557.124
-555.36
-554.379
-554.495
-555.93
-558.804
-563.12
-568.755
-575.454
-582.848
-590.516
-598.042
-605.065
-611.295
-616.516
-620.6
-623.528
-625.4
-626.416
-626.826
-626.887
-626.817
-626.775
-626.836
-626.981
-627.091
-626.958
-626.326
-624.939
-622.593
-619.166
-614.631
-609.055
-602.58
-595.411
-587.801
-580.038
-572.432
-565.297
-558.93
-553.58
-549.42
-546.535
-544.919
-544.502
-545.158
-546.717
-548.958
-551.622
-554.449
-557.232
-559.851
-562.268
-564.487
-566.513
-568.363
-570.097
-571.876
-573.965
-576.63
-579.917
-583.529
-586.941
-589.718
-591.803
-593.662
-595.735
-597.537
-598.851
-600.562
-601.838
-603.094
-603.276
-602.938
-768.358
-770.522
-771.676
-772.9
-773.365
-772.493
-770.401
-767.832
-764.852
-760.895
-755.721
-749.657
-743.071
-736.145
-729.059
-722.172
-715.988
-710.975
-707.367
-705.061
-703.663
-702.664
-701.634
-700.334
-698.729
-696.937
-695.187
-693.786
-693.077
-693.369
-694.89
-697.764
-702.013
-707.549
-714.164
-721.535
-729.26
-736.921
-744.145
-750.624
-756.128
-760.51
-763.722
-765.833
-767.018
-767.526
-767.623
-767.543
-767.458
-767.453
-767.519
-767.548
-767.347
-766.669
-765.257
-762.898
-759.459
-754.904
-749.288
-742.745
-735.464
-727.682
-719.674
-711.747
-704.235
-697.468
-691.734
-687.238
-684.072
-682.212
-681.56
-681.981
-683.33
-685.437
-688.089
-691.027
-693.993
-696.791
-699.335
-701.638
-703.772
-705.817
-707.853
-709.993
-712.411
-715.281
-718.607
-722.109
-725.334
-727.916
-729.815
-731.429
-733.143
-734.522
-735.4
-736.58
-737.457
-738.363
-737.795
-737.631
-902.209
-904.079
-905.016
-906.233
-906.482
-905.774
-903.862
-901.456
-898.629
-894.899
-890.1
-884.671
-879.021
-873.187
-867.087
-860.843
-854.847
-849.608
-845.538
-842.764
-841.09
-840.1
-839.35
-838.523
-837.48
-836.248
-834.982
-833.939
-833.426
-833.743
-835.124
-837.705
-841.535
-846.569
-852.661
-859.55
-866.884
-874.268
-881.329
-887.76
-893.326
-897.874
-901.338
-903.749
-905.246
-906.045
-906.393
-906.521
-906.599
-906.712
-906.854
-906.925
-906.746
-906.079
-904.674
-902.316
-898.861
-894.268
-888.591
-881.969
-874.598
-866.716
-858.591
-850.524
-842.84
-835.875
-829.935
-825.248
-821.914
-819.899
-819.071
-819.258
-820.307
-822.079
-824.419
-827.114
-829.906
-832.563
-834.96
-837.119
-839.176
-841.3
-843.619
-846.216
-849.157
-852.481
-856.096
-859.714
-862.947
-865.5
-867.334
-868.776
-870.168
-871.175
-871.679
-872.383
-872.842
-873.32
-871.958
-871.778
-1036.56
-1037.8
-1038.32
-1039.26
-1038.97
-1038.06
-1036.02
-1033.48
-1030.49
-1026.73
-1022.12
-1017.21
-1012.48
-1007.86
-1003.06
-997.949
-992.744
-987.907
-983.93
-981.107
-979.419
-978.566
-978.138
-977.778
-977.278
-976.587
-975.787
-975.068
-974.691
-974.934
-976.028
-978.125
-981.3
-985.55
-990.792
-996.84
-1003.41
-1010.14
-1016.69
-1022.77
-1028.15
-1032.68
-1036.3
-1039.01
-1040.91
-1042.16
-1042.96
-1043.51
-1043.95
-1044.35
-1044.7
-1044.9
-1044.8
-1044.17
-1042.78
-1040.43
-1036.97
-1032.36
-1026.66
-1020
-1012.59
-1004.7
-996.591
-988.558
-980.907
-973.952
-967.985
-963.239
-959.828
-957.724
-956.78
-956.788
-957.56
-958.953
-960.845
-963.078
-965.436
-967.696
-969.728
-971.571
-973.418
-975.524
-978.077
-981.14
-984.675
-988.568
-992.611
-996.494
-999.891
-1002.57
-1004.48
-1005.86
-1007
-1007.71
-1007.9
-1008.18
-1008.26
-1008.27
-1006.17
-1005.74
-1170.86
-1171.28
-1171.4
-1171.98
-1171.11
-1169.86
-1167.63
-1164.83
-1161.47
-1157.44
-1152.78
-1148.16
-1144.13
-1140.61
-1137.15
-1133.4
-1129.38
-1125.42
-1122
-1119.5
-1118.03
-1117.42
-1117.32
-1117.38
-1117.36
-1117.16
-1116.8
-1116.41
-1116.17
-1116.33
-1117.09
-1118.64
-1121.05
-1124.36
-1128.55
-1133.5
-1139.01
-1144.78
-1150.53
-1155.98
-1160.92
-1165.24
-1168.87
-1171.82
-1174.14
-1175.92
-1177.31
-1178.43
-1179.38
-1180.2
-1180.86
-1181.26
-1181.25
-1180.66
-1179.29
-1176.96
-1173.56
-1169.03
-1163.41
-1156.85
-1149.56
-1141.79
-1133.84
-1126
-1118.54
-1111.75
-1105.89
-1101.16
-1097.69
-1095.48
-1094.41
-1094.27
-1094.83
-1095.92
-1097.41
-1099.17
-1101.03
-1102.81
-1104.4
-1105.88
-1107.49
-1109.56
-1112.32
-1115.82
-1119.9
-1124.31
-1128.72
-1132.81
-1136.35
-1139.18
-1141.24
-1142.65
-1143.65
-1144.16
-1144.16
-1144.07
-1143.87
-1143.44
-1140.73
-1139.89
-1304.56
-1304.16
-1304
-1304.28
-1302.98
-1301.47
-1299.2
-1296.21
-1292.44
-1288
-1283.1
-1278.49
-1274.83
-1272.1
-1269.77
-1267.35
-1264.65
-1261.82
-1259.25
-1257.33
-1256.26
-1255.97
-1256.19
-1256.62
-1257.03
-1257.28
-1257.35
-1257.3
-1257.25
-1257.37
-1257.86
-1258.86
-1260.49
-1262.82
-1265.86
-1269.57
-1273.83
-1278.44
-1283.16
-1287.77
-1292.11
-1296.07
-1299.6
-1302.71
-1305.41
-1307.75
-1309.77
-1311.53
-1313.07
-1314.37
-1315.37
-1315.98
-1316.08
-1315.52
-1314.16
-1311.89
-1308.6
-1304.27
-1298.92
-1292.66
-1285.69
-1278.25
-1270.62
-1263.09
-1255.94
-1249.41
-1243.71
-1239.02
-1235.47
-1233.09
-1231.82
-1231.49
-1231.89
-1232.81
-1234.07
-1235.54
-1237.05
-1238.46
-1239.71
-1240.9
-1242.35
-1244.43
-1247.41
-1251.29
-1255.8
-1260.53
-1265.04
-1269.07
-1272.49
-1275.29
-1277.42
-1278.89
-1279.88
-1280.35
-1280.29
-1279.94
-1279.6
-1278.83
-1275.75
-1274.46
-1437.41
-1436.31
-1435.97
-1435.99
-1434.56
-1433
-1430.92
-1427.94
-1423.84
-1418.98
-1413.75
-1408.96
-1405.36
-1403.01
-1401.46
-1400.11
-1398.63
-1396.98
-1395.4
-1394.22
-1393.66
-1393.75
-1394.3
-1395.07
-1395.85
-1396.52
-1397.01
-1397.32
-1397.49
-1397.63
-1397.89
-1398.4
-1399.29
-1400.64
-1402.52
-1404.95
-1407.89
-1411.24
-1414.84
-1418.53
-1422.19
-1425.73
-1429.12
-1432.35
-1435.41
-1438.27
-1440.92
-1443.31
-1445.42
-1447.18
-1448.51
-1449.31
-1449.48
-1448.92
-1447.57
-1445.35
-1442.23
-1438.2
-1433.27
-1427.53
-1421.11
-1414.2
-1407.08
-1400
-1393.23
-1387.01
-1381.5
-1376.87
-1373.21
-1370.59
-1369.04
-1368.46
-1368.7
-1369.56
-1370.81
-1372.26
-1373.71
-1375.02
-1376.16
-1377.27
-1378.7
-1380.87
-1384.08
-1388.25
-1393
-1397.76
-1402.02
-1405.55
-1408.44
-1410.84
-1412.8
-1414.27
-1415.32
-1415.91
-1415.96
-1415.47
-1415.11
-1414.18
-1411.03
-1409.36
-1569.54
-1567.87
-1567.34
-1567.13
-1565.84
-1564.41
-1562.76
-1560
-1555.76
-1550.6
-1545.1
-1540.06
-1536.28
-1533.96
-1532.76
-1532.15
-1531.67
-1531.11
-1530.55
-1530.18
-1530.21
-1530.7
-1531.57
-1532.66
-1533.78
-1534.82
-1535.68
-1536.32
-1536.7
-1536.87
-1536.91
-1536.94
-1537.12
-1537.55
-1538.33
-1539.54
-1541.21
-1543.32
-1545.82
-1548.61
-1551.62
-1554.78
-1558.05
-1561.41
-1564.81
-1568.16
-1571.38
-1574.34
-1576.94
-1579.08
-1580.65
-1581.56
-1581.75
-1581.17
-1579.8
-1577.64
-1574.7
-1571.02
-1566.6
-1561.52
-1555.83
-1549.67
-1543.22
-1536.73
-1530.44
-1524.58
-1519.31
-1514.77
-1511.04
-1508.2
-1506.35
-1505.49
-1505.56
-1506.4
-1507.78
-1509.43
-1511.12
-1512.65
-1513.97
-1515.25
-1516.84
-1519.2
-1522.59
-1526.92
-1531.7
-1536.19
-1539.82
-1542.42
-1544.29
-1545.87
-1547.33
-1548.63
-1549.72
-1550.49
-1550.74
-1550.2
-1549.91
-1548.99
-1546.06
-1544.21
-1701.4
-1699.26
-1698.44
-1697.92
-1696.97
-1695.8
-1694.7
-1692.31
-1688.13
-1682.91
-1677.32
-1672.13
-1668.09
-1665.54
-1664.35
-1664.12
-1664.37
-1664.77
-1665.19
-1665.66
-1666.31
-1667.23
-1668.42
-1669.77
-1671.17
-1672.5
-1673.65
-1674.52
-1675.03
-1675.16
-1674.95
-1674.51
-1673.99
-1673.56
-1673.35
-1673.48
-1674.03
-1675.06
-1676.58
-1678.58
-1681.01
-1683.84
-1687.03
-1690.52
-1694.22
-1697.99
-1701.68
-1705.09
-1708.06
-1710.44
-1712.14
-1713.07
-1713.22
-1712.57
-1711.17
-1709.06
-1706.31
-1702.98
-1699.12
-1694.74
-1689.89
-1684.62
-1679.04
-1673.31
-1667.64
-1662.25
-1657.31
-1652.96
-1649.27
-1646.34
-1644.27
-1643.18
-1643.09
-1643.92
-1645.46
-1647.42
-1649.49
-1651.45
-1653.2
-1654.88
-1656.8
-1659.41
-1662.95
-1667.28
-1671.83
-1675.78
-1678.47
-1679.81
-1680.31
-1680.66
-1681.29
-1682.18
-1683.14
-1683.97
-1684.32
-1683.73
-1683.48
-1682.67
-1680.17
-1678.34
-1833.56
-1831.02
-1829.79
-1828.88
-1828.37
-1827.47
-1826.91
-1824.96
-1821.04
-1816.04
-1810.69
-1805.58
-1801.36
-1798.48
-1797.06
-1796.9
-1797.62
-1798.8
-1800.14
-1801.47
-1802.78
-1804.13
-1805.59
-1807.14
-1808.72
-1810.22
-1811.53
-1812.51
-1813.03
-1813.03
-1812.5
-1811.57
-1810.41
-1809.21
-1808.15
-1807.39
-1807.04
-1807.2
-1807.93
-1809.27
-1811.21
-1813.74
-1816.81
-1820.33
-1824.19
-1828.22
-1832.18
-1835.85
-1839.02
-1841.5
-1843.19
-1844.05
-1844.08
-1843.35
-1841.93
-1839.91
-1837.39
-1834.44
-1831.12
-1827.48
-1823.51
-1819.23
-1814.67
-1809.89
-1805.05
-1800.34
-1795.91
-1791.93
-1788.48
-1785.66
-1783.58
-1782.39
-1782.21
-1783.02
-1784.67
-1786.88
-1789.32
-1791.73
-1793.99
-1796.16
-1798.53
-1801.44
-1805.08
-1809.27
-1813.38
-1816.56
-1818.13
-1818.04
-1816.97
-1815.88
-1815.39
-1815.56
-1816.08
-1816.64
-1816.78
-1815.91
-1815.51
-1814.78
-1812.72
-1811.08
-1966.59
-1963.74
-1962.03
-1960.7
-1960.64
-1959.98
-1959.83
-1958.31
-1954.84
-1950.38
-1945.62
-1940.96
-1936.81
-1933.68
-1931.92
-1931.6
-1932.52
-1934.27
-1936.42
-1938.56
-1940.53
-1942.31
-1943.99
-1945.64
-1947.28
-1948.83
-1950.16
-1951.11
-1951.54
-1951.33
-1950.48
-1949.09
-1947.36
-1945.52
-1943.78
-1942.34
-1941.32
-1940.85
-1940.98
-1941.78
-1943.27
-1945.44
-1948.23
-1951.57
-1955.32
-1959.28
-1963.21
-1966.85
-1969.95
-1972.32
-1973.87
-1974.57
-1974.46
-1973.66
-1972.28
-1970.44
-1968.24
-1965.75
-1963.05
-1960.18
-1957.14
-1953.92
-1950.5
-1946.89
-1943.14
-1939.37
-1935.73
-1932.37
-1929.41
-1926.95
-1925.11
-1924.05
-1923.91
-1924.74
-1926.44
-1928.78
-1931.42
-1934.13
-1936.76
-1939.37
-1942.16
-1945.35
-1949.03
-1952.96
-1956.49
-1958.76
-1959.14
-1957.61
-1954.99
-1952.38
-1950.61
-1949.76
-1949.42
-1949.16
-1948.55
-1947
-1946.08
-1945.17
-1943.36
-1942.02
-2100.84
-2097.89
-2095.77
-2094.09
-2094.43
-2093.96
-2094.06
-2092.92
-2090.07
-2086.44
-2082.66
-2078.84
-2075.13
-2071.98
-2069.93
-2069.33
-2070.2
-2072.27
-2074.99
-2077.83
-2080.4
-2082.57
-2084.41
-2086.08
-2087.65
-2089.11
-2090.34
-2091.18
-2091.46
-2091.04
-2089.91
-2088.17
-2086
-2083.68
-2081.45
-2079.52
-2078.03
-2077.09
-2076.77
-2077.11
-2078.13
-2079.81
-2082.12
-2084.96
-2088.2
-2091.66
-2095.11
-2098.31
-2101
-2103.02
-2104.25
-2104.7
-2104.44
-2103.62
-2102.39
-2100.87
-2099.17
-2097.33
-2095.41
-2093.43
-2091.4
-2089.32
-2087.16
-2084.88
-2082.46
-2079.92
-2077.37
-2074.92
-2072.72
-2070.88
-2069.54
-2068.83
-2068.92
-2069.88
-2071.65
-2074.01
-2076.7
-2079.47
-2082.23
-2085.04
-2088.04
-2091.37
-2094.98
-2098.53
-2101.36
-2102.65
-2101.84
-2099.01
-2094.98
-2090.96
-2087.84
-2085.72
-2084.04
-2082.37
-2080.36
-2077.61
-2075.66
-2074.2
-2072.28
-2071.34
-2236.46
-2233.72
-2231.41
-2229.56
-2230.25
-2229.92
-2230.1
-2229.28
-2227.18
-2224.63
-2222.12
-2219.52
-2216.67
-2213.89
-2211.77
-2210.9
-2211.54
-2213.61
-2216.61
-2219.9
-2222.9
-2225.36
-2227.29
-2228.89
-2230.3
-2231.57
-2232.64
-2233.32
-2233.44
-2232.87
-2231.56
-2229.6
-2227.18
-2224.55
-2221.98
-2219.71
-2217.87
-2216.57
-2215.86
-2215.76
-2216.25
-2217.32
-2218.92
-2220.95
-2223.3
-2225.83
-2228.34
-2230.63
-2232.52
-2233.85
-2234.55
-2234.64
-2234.22
-2233.44
-2232.47
-2231.45
-2230.46
-2229.53
-2228.63
-2227.75
-2226.89
-2226.07
-2225.25
-2224.4
-2223.44
-2222.35
-2221.12
-2219.83
-2218.62
-2217.63
-2216.99
-2216.86
-2217.38
-2218.64
-2220.58
-2223.02
-2225.68
-2228.36
-2231
-2233.69
-2236.58
-2239.74
-2243.03
-2246
-2247.98
-2248.22
-2246.28
-2242.29
-2237.08
-2231.84
-2227.43
-2223.87
-2220.5
-2216.91
-2212.97
-2208.54
-2205.12
-2202.67
-2200.28
-2199.88
-2373.35
-2371.21
-2369
-2367.23
-2368.21
-2368.01
-2368.15
-2367.59
-2366.32
-2364.96
-2363.88
-2362.74
-2361.14
-2359.16
-2357.35
-2356.38
-2356.76
-2358.59
-2361.52
-2364.91
-2368.1
-2370.69
-2372.62
-2374.07
-2375.25
-2376.28
-2377.12
-2377.63
-2377.62
-2376.95
-2375.56
-2373.51
-2370.96
-2368.16
-2365.36
-2362.81
-2360.67
-2359.03
-2357.93
-2357.36
-2357.3
-2357.69
-2358.46
-2359.52
-2360.76
-2362.06
-2363.28
-2364.31
-2365.03
-2365.36
-2365.29
-2364.86
-2364.21
-2363.48
-2362.86
-2362.47
-2362.38
-2362.56
-2362.93
-2363.4
-2363.92
-2364.46
-2365.03
-2365.6
-2366.12
-2366.49
-2366.67
-2366.67
-2366.59
-2366.58
-2366.81
-2367.43
-2368.58
-2370.35
-2372.67
-2375.35
-2378.11
-2380.72
-2383.12
-2385.43
-2387.82
-2390.38
-2392.91
-2394.96
-2395.83
-2394.89
-2391.79
-2386.76
-2380.6
-2374.37
-2368.8
-2363.79
-2358.61
-2352.91
-2346.82
-2340.48
-2335.39
-2331.71
-2328.66
-2329.01
-2511.22
-2510
-2508.19
-2506.77
-2507.97
-2507.9
-2507.92
-2507.56
-2507.1
-2506.91
-2507.2
-2507.58
-2507.46
-2506.69
-2505.61
-2504.88
-2505.11
-2506.62
-2509.26
-2512.45
-2515.55
-2518.08
-2519.91
-2521.16
-2522.07
-2522.81
-2523.4
-2523.69
-2523.53
-2522.76
-2521.3
-2519.18
-2516.53
-2513.57
-2510.55
-2507.71
-2505.24
-2503.23
-2501.72
-2500.69
-2500.09
-2499.84
-2499.84
-2499.96
-2500.11
-2500.16
-2500.03
-2499.66
-2499.02
-2498.15
-2497.1
-2496
-2494.99
-2494.26
-2493.97
-2494.23
-2495.08
-2496.46
-2498.22
-2500.18
-2502.2
-2504.19
-2506.13
-2508.03
-2509.86
-2511.54
-2513.01
-2514.23
-2515.29
-2516.32
-2517.5
-2519
-2520.96
-2523.44
-2526.37
-2529.55
-2532.66
-2535.39
-2537.62
-2539.42
-2541.01
-2542.5
-2543.78
-2544.42
-2543.81
-2541.43
-2537.06
-2531
-2524.02
-2516.99
-2510.46
-2504.16
-2497.34
-2489.73
-2481.72
-2473.69
-2467.11
-2462.33
-2458.72
-2460.01
-2649.59
-2649.48
-2648.29
-2647.44
-2648.76
-2648.87
-2648.73
-2648.53
-2648.77
-2649.57
-2650.98
-2652.66
-2654
-2654.65
-2654.69
-2654.58
-2654.96
-2656.27
-2658.55
-2661.41
-2664.27
-2666.63
-2668.29
-2669.33
-2669.96
-2670.38
-2670.64
-2670.65
-2670.25
-2669.26
-2667.62
-2665.31
-2662.44
-2659.22
-2655.87
-2652.66
-2649.77
-2647.33
-2645.39
-2643.94
-2642.88
-2642.13
-2641.54
-2640.97
-2640.28
-2639.35
-2638.09
-2636.49
-2634.6
-2632.52
-2630.45
-2628.57
-2627.11
-2626.27
-2626.19
-2626.98
-2628.65
-2631.11
-2634.14
-2637.52
-2640.98
-2644.35
-2647.56
-2650.6
-2653.48
-2656.18
-2658.65
-2660.88
-2662.93
-2664.93
-2667.07
-2669.52
-2672.4
-2675.76
-2679.51
-2683.42
-2687.11
-2690.21
-2692.45
-2693.81
-2694.45
-2694.55
-2694.11
-2692.86
-2690.35
-2686.22
-2680.38
-2673.24
-2665.48
-2657.79
-2650.48
-2643.17
-2635.11
-2626.15
-2616.85
-2607.76
-2600.34
-2594.97
-2591.25
-2593.45
-2787.93
-2788.87
-2788.44
-2788.31
-2789.7
-2790.04
-2789.8
-2789.75
-2790.54
-2792.04
-2794.16
-2796.71
-2799.23
-2801.24
-2802.53
-2803.35
-2804.18
-2805.54
-2807.62
-2810.21
-2812.84
-2815.07
-2816.62
-2817.51
-2817.92
-2818.02
-2817.91
-2817.53
-2816.73
-2815.37
-2813.34
-2810.63
-2807.34
-2803.65