/*--------------------------------*- C++ -*----------------------------------*\
| =========                 |                                                 |
| \\      /  F ield         | OpenFOAM: The Open Source CFD Toolbox           |
|  \\    /   O peration     | Version:  2406                                  |
|   \\  /    A nd           | Website:  www.openfoam.com                      |
|    \\/     M anipulation  |                                                 |
\*---------------------------------------------------------------------------*/
FoamFile
{
    version     2.0;
    format      ascii;
    arch        "LSB;label=32;scalar=64";
    class       volScalarField;
    location    "3";
    object      p_rgh;
}
// * * * * * * * * * * * * * * * * * * * * * * * * * * * * * * * * * * * * * //

dimensions      [1 -1 -2 0 0 0 0];

internalField   nonuniform List<scalar> 
10000
(
1926.1
1933.07
1935.52
1937.61
1943.61
1948.53
1952.5
1956.74
1962.36
1969.21
1976.14
1981.7
1984.92
1985.56
1983.86
1980.2
1974.85
1968.02
1959.86
1950.64
1940.86
1931.15
1922.16
1914.32
1907.79
1902.61
1898.7
1896.03
1894.57
1894.36
1895.41
1897.76
1901.39
1906.26
1912.31
1919.46
1927.58
1936.49
1945.97
1955.74
1965.49
1974.88
1983.58
1991.26
1997.63
2002.48
2005.62
2006.97
2006.52
2004.4
2000.85
1996.2
1990.84
1985.18
1979.53
1974.12
1969.07
1964.36
1959.85
1955.33
1950.55
1945.24
1939.22
1932.43
1924.94
1916.99
1908.97
1901.38
1894.77
1889.68
1886.54
1885.62
1886.97
1890.47
1895.76
1902.38
1909.78
1917.4
1924.77
1931.52
1937.45
1942.46
1946.56
1949.77
1952.13
1953.63
1954.27
1954.09
1953.21
1951.85
1950.28
1948.78
1947.56
1946.69
1946.07
1945.47
1944.56
1943
1940.67
1937.57
1922.25
1929.12
1934.07
1937.83
1943.23
1948.01
1952.53
1957.99
1964.86
1972.13
1978.55
1983.09
1985.2
1984.87
1982.35
1977.99
1972.09
1964.9
1956.65
1947.64
1938.28
1929.07
1920.47
1912.82
1906.28
1900.87
1896.58
1893.4
1891.35
1890.53
1891.04
1892.94
1896.28
1901.08
1907.3
1914.88
1923.66
1933.41
1943.82
1954.53
1965.16
1975.35
1984.71
1992.88
1999.55
2004.44
2007.4
2008.35
2007.37
2004.62
2000.4
1995.09
1989.1
1982.84
1976.69
1970.91
1965.64
1960.84
1956.38
1952
1947.43
1942.39
1936.71
1930.32
1923.3
1915.89
1908.49
1901.63
1895.85
1891.67
1889.46
1889.42
1891.55
1895.64
1901.3
1908.01
1915.18
1922.25
1928.75
1934.34
1938.91
1942.48
1945.23
1947.29
1948.8
1949.77
1950.18
1950.06
1949.51
1948.8
1948.23
1948.04
1948.25
1948.61
1948.77
1948.58
1948.1
1947.04
1944.45
1941.05
1921
1926.05
1931.31
1936.8
1942.04
1946.99
1952.31
1958.7
1966.1
1973.31
1979.26
1983.16
1984.58
1983.48
1980.15
1975.05
1968.69
1961.42
1953.52
1945.18
1936.66
1928.3
1920.47
1913.45
1907.41
1902.39
1898.36
1895.29
1893.18
1892.09
1892.18
1893.57
1896.39
1900.69
1906.48
1913.7
1922.23
1931.83
1942.21
1952.97
1963.73
1974.06
1983.57
1991.86
1998.61
2003.56
2006.57
2007.59
2006.71
2004.13
2000.14
1995.12
1989.44
1983.5
1977.61
1972.01
1966.8
1961.98
1957.39
1952.82
1947.97
1942.62
1936.6
1929.9
1922.65
1915.14
1907.79
1901.14
1895.73
1892.04
1890.43
1891.06
1893.9
1898.69
1905
1912.3
1919.95
1927.38
1934.09
1939.73
1944.17
1947.46
1949.78
1951.33
1952.27
1952.65
1952.46
1951.72
1950.53
1949.19
1948.11
1947.67
1947.9
1948.36
1948.4
1947.73
1946.86
1946.06
1943.9
1941.32
1920.53
1923.95
1927.78
1933.39
1938.97
1944.55
1950.85
1958.3
1966.37
1973.58
1979.06
1982.3
1983.02
1981.25
1977.33
1971.84
1965.36
1958.32
1950.93
1943.28
1935.48
1927.78
1920.47
1913.84
1908.07
1903.21
1899.26
1896.16
1893.94
1892.66
1892.48
1893.55
1896.01
1899.92
1905.33
1912.18
1920.38
1929.7
1939.83
1950.4
1961.01
1971.22
1980.64
1988.86
1995.56
2000.49
2003.54
2004.68
2004.03
2001.8
1998.27
1993.76
1988.62
1983.2
1977.75
1972.49
1967.5
1962.75
1958.1
1953.34
1948.22
1942.55
1936.23
1929.28
1921.87
1914.34
1907.13
1900.77
1895.81
1892.71
1891.79
1893.2
1896.87
1902.52
1909.7
1917.85
1926.31
1934.45
1941.73
1947.77
1952.42
1955.72
1957.86
1959.05
1959.45
1959.1
1958.01
1956.2
1953.86
1951.37
1949.26
1947.91
1947.42
1947.37
1947.07
1946.03
1944.61
1943.32
1940.38
1937.83
1917.52
1920.66
1924.63
1930.19
1936.09
1942.36
1949.41
1957.36
1965.45
1972.13
1976.82
1979.36
1979.63
1977.67
1973.79
1968.48
1962.3
1955.6
1948.52
1941.07
1933.32
1925.45
1917.78
1910.65
1904.36
1899.08
1894.9
1891.83
1889.87
1889.05
1889.47
1891.2
1894.29
1898.75
1904.55
1911.61
1919.81
1928.95
1938.75
1948.86
1958.89
1968.45
1977.17
1984.69
1990.74
1995.11
1997.71
1998.55
1997.78
1995.61
1992.33
1988.26
1983.7
1978.95
1974.19
1969.57
1965.13
1960.84
1956.55
1952.09
1947.23
1941.83
1935.81
1929.26
1922.39
1915.53
1909.12
1903.64
1899.58
1897.35
1897.21
1899.28
1903.45
1909.44
1916.81
1925.02
1933.47
1941.57
1948.82
1954.89
1959.62
1963.03
1965.25
1966.48
1966.83
1966.36
1965.02
1962.81
1959.87
1956.56
1953.39
1950.71
1948.59
1946.76
1944.9
1942.85
1940.67
1938.68
1935.03
1932.8
1915.77
1918.02
1921.58
1926.44
1931.96
1938.61
1946.14
1954.49
1962.63
1969.05
1973.41
1975.88
1976.51
1975.3
1972.39
1968.11
1962.87
1956.92
1950.35
1943.14
1935.36
1927.23
1919.13
1911.47
1904.65
1898.96
1894.6
1891.63
1890.04
1889.78
1890.8
1893.08
1896.58
1901.23
1906.95
1913.66
1921.26
1929.61
1938.49
1947.63
1956.71
1965.4
1973.36
1980.28
1985.89
1990.02
1992.55
1993.5
1992.97
1991.15
1988.3
1984.72
1980.7
1976.48
1972.26
1968.12
1964.09
1960.12
1956.09
1951.84
1947.21
1942.08
1936.4
1930.27
1923.92
1917.69
1911.98
1907.25
1903.92
1902.35
1902.78
1905.32
1909.88
1916.21
1923.9
1932.43
1941.21
1949.65
1957.29
1963.78
1968.96
1972.81
1975.39
1976.78
1977.04
1976.14
1974.09
1970.9
1966.8
1962.2
1957.63
1953.42
1949.5
1945.58
1941.66
1938.18
1935.34
1932.92
1929.02
1927.67
1914.63
1915.88
1918.59
1922.56
1927.35
1934.12
1941.8
1950.22
1958.28
1964.49
1968.77
1971.52
1972.91
1972.86
1971.26
1968.19
1963.89
1958.53
1952.19
1944.9
1936.79
1928.15
1919.44
1911.19
1903.88
1897.95
1893.64
1891.08
1890.2
1890.85
1892.84
1895.98
1900.1
1905.07
1910.75
1917.05
1923.92
1931.27
1938.98
1946.87
1954.71
1962.22
1969.15
1975.23
1980.22
1983.95
1986.3
1987.26
1986.92
1985.42
1982.99
1979.87
1976.35
1972.65
1968.94
1965.31
1961.78
1958.28
1954.72
1950.98
1946.93
1942.47
1937.59
1932.38
1927.06
1921.93
1917.33
1913.64
1911.2
1910.32
1911.19
1913.93
1918.5
1924.72
1932.26
1940.66
1949.37
1957.85
1965.63
1972.36
1977.88
1982.12
1985.07
1986.71
1986.98
1985.79
1983.09
1978.95
1973.64
1967.64
1961.51
1955.63
1949.96
1944.24
1938.5
1933.56
1930.14
1927.66
1923.9
1923.83
1912.84
1913.07
1914.78
1918.16
1922.48
1929.54
1937.42
1945.88
1953.82
1959.86
1964.13
1967.27
1969.53
1970.71
1970.47
1968.65
1965.32
1960.61
1954.62
1947.44
1939.25
1930.41
1921.42
1912.86
1905.29
1899.2
1894.94
1892.63
1892.22
1893.47
1896.09
1899.78
1904.26
1909.33
1914.85
1920.72
1926.89
1933.33
1939.98
1946.74
1953.44
1959.88
1965.85
1971.11
1975.47
1978.75
1980.84
1981.71
1981.42
1980.09
1977.88
1975.03
1971.78
1968.36
1964.96
1961.67
1958.52
1955.47
1952.44
1949.32
1946.04
1942.51
1938.73
1934.79
1930.84
1927.14
1923.96
1921.6
1920.3
1920.29
1921.75
1924.75
1929.32
1935.34
1942.56
1950.58
1958.92
1967.05
1974.5
1980.95
1986.23
1990.27
1993.04
1994.48
1994.43
1992.74
1989.35
1984.35
1978.12
1971.15
1963.97
1956.91
1950.05
1943.27
1936.64
1930.84
1927.06
1924.65
1921.1
1922.21
1909.87
1909.24
1910.37
1913.82
1918.22
1925.77
1933.89
1942.29
1949.94
1955.65
1959.75
1963.11
1966.08
1968.33
1969.32
1968.68
1966.34
1962.44
1957.1
1950.46
1942.73
1934.25
1925.51
1917.08
1909.54
1903.41
1899.08
1896.74
1896.36
1897.72
1900.47
1904.24
1908.74
1913.71
1918.98
1924.45
1930.07
1935.81
1941.64
1947.5
1953.26
1958.76
1963.85
1968.32
1972.01
1974.76
1976.46
1977.07
1976.63
1975.23
1973.02
1970.19
1966.97
1963.59
1960.26
1957.12
1954.24
1951.6
1949.15
1946.81
1944.51
1942.18
1939.81
1937.46
1935.22
1933.27
1931.81
1931.04
1931.13
1932.21
1934.4
1937.77
1942.35
1948.06
1954.72
1962
1969.49
1976.68
1983.14
1988.56
1992.8
1995.84
1997.71
1998.36
1997.67
1995.41
1991.48
1986.02
1979.45
1972.31
1965.04
1957.79
1950.61
1943.6
1936.93
1930.97
1927.09
1924.7
1921.13
1922.9
1906.2
1904.94
1906.12
1910.23
1915.09
1923.13
1931.33
1939.42
1946.53
1951.68
1955.43
1958.84
1962.31
1965.44
1967.46
1967.84
1966.41
1963.3
1958.71
1952.83
1945.87
1938.14
1930.07
1922.17
1914.97
1909.02
1904.72
1902.32
1901.84
1903.11
1905.79
1909.5
1913.92
1918.75
1923.81
1928.95
1934.11
1939.24
1944.31
1949.28
1954.06
1958.53
1962.59
1966.08
1968.89
1970.87
1971.93
1972.03
1971.2
1969.52
1967.11
1964.16
1960.87
1957.48
1954.23
1951.3
1948.8
1946.76
1945.16
1943.92
1942.96
1942.22
1941.65
1941.24
1941.03
1941.1
1941.53
1942.44
1943.91
1946
1948.78
1952.28
1956.53
1961.52
1967.1
1973.06
1979.03
1984.63
1989.47
1993.29
1995.99
1997.62
1998.28
1998.02
1996.72
1994.16
1990.18
1984.86
1978.64
1972.08
1965.51
1958.9
1952.15
1945.49
1939.21
1933.45
1929.66
1927.17
1923.43
1925.24
1902.34
1900.64
1902.39
1907.45
1912.89
1921.26
1929.39
1937.06
1943.56
1948.19
1951.69
1955.25
1959.29
1963.29
1966.31
1967.63
1967.01
1964.61
1960.71
1955.59
1949.51
1942.73
1935.58
1928.48
1921.93
1916.41
1912.35
1910.02
1909.49
1910.62
1913.14
1916.66
1920.84
1925.39
1930.09
1934.77
1939.33
1943.72
1947.9
1951.85
1955.51
1958.82
1961.7
1964.07
1965.84
1966.91
1967.18
1966.63
1965.26
1963.16
1960.46
1957.33
1953.99
1950.67
1947.63
1945.07
1943.15
1941.93
1941.4
1941.48
1942.09
1943.11
1944.47
1946.08
1947.91
1949.94
1952.16
1954.57
1957.19
1960.02
1963.08
1966.4
1970.01
1973.91
1978.06
1982.29
1986.37
1990.02
1992.94
1994.96
1996.03
1996.25
1995.78
1994.73
1993.05
1990.51
1986.89
1982.2
1976.81
1971.23
1965.71
1960.07
1954.09
1948.01
1942.24
1936.78
1933.21
1930.62
1926.78
1928.24
1898.51
1896.56
1899.1
1905.02
1910.96
1919.46
1927.47
1934.79
1940.85
1945.22
1948.79
1952.78
1957.56
1962.5
1966.49
1968.69
1968.79
1966.99
1963.68
1959.3
1954.15
1948.47
1942.5
1936.57
1931.06
1926.37
1922.9
1920.89
1920.43
1921.42
1923.59
1926.63
1930.18
1933.99
1937.84
1941.57
1945.08
1948.33
1951.3
1953.99
1956.39
1958.47
1960.19
1961.5
1962.33
1962.59
1962.19
1961.08
1959.27
1956.83
1953.91
1950.7
1947.42
1944.34
1941.69
1939.72
1938.58
1938.34
1938.99
1940.43
1942.55
1945.19
1948.22
1951.53
1955
1958.54
1962.07
1965.52
1968.83
1972
1975.02
1977.92
1980.76
1983.55
1986.29
1988.9
1991.22
1993.08
1994.29
1994.75
1994.47
1993.55
1992.18
1990.52
1988.55
1986.08
1982.85
1978.85
1974.35
1969.79
1965.29
1960.57
1955.34
1949.87
1944.61
1939.46
1936.23
1933.64
1929.96
1930.99
1895.02
1893.06
1896.27
1902.6
1908.76
1917.17
1925.06
1932.17
1938.03
1942.47
1946.43
1951.08
1956.68
1962.5
1967.34
1970.26
1970.93
1969.6
1966.79
1963.09
1958.9
1954.49
1950.01
1945.64
1941.63
1938.28
1935.85
1934.52
1934.33
1935.19
1936.86
1939.05
1941.48
1943.95
1946.3
1948.44
1950.31
1951.92
1953.29
1954.46
1955.46
1956.29
1956.94
1957.35
1957.46
1957.18
1956.39
1955.02
1953.04
1950.53
1947.64
1944.59
1941.62
1939
1936.99
1935.82
1935.64
1936.5
1938.36
1941.09
1944.52
1948.46
1952.74
1957.21
1961.71
1966.11
1970.29
1974.15
1977.61
1980.65
1983.3
1985.6
1987.64
1989.47
1991.1
1992.49
1993.54
1994.14
1994.19
1993.64
1992.51
1990.9
1988.96
1986.86
1984.58
1981.99
1978.89
1975.26
1971.37
1967.56
1963.87
1959.88
1955.24
1950.32
1945.57
1940.74
1937.92
1935.46
1932.19
1932.94
1892.48
1890.72
1894.19
1900.27
1906.17
1914.19
1921.84
1928.77
1934.59
1939.31
1943.87
1949.26
1955.63
1962.18
1967.69
1971.19
1972.33
1971.4
1969.04
1965.97
1962.75
1959.67
1956.82
1954.27
1952.09
1950.43
1949.4
1949.04
1949.33
1950.11
1951.19
1952.31
1953.27
1953.96
1954.32
1954.38
1954.18
1953.78
1953.27
1952.75
1952.28
1951.89
1951.57
1951.26
1950.88
1950.3
1949.4
1948.06
1946.24
1943.97
1941.41
1938.78
1936.35
1934.42
1933.25
1933.04
1933.92
1935.93
1938.96
1942.86
1947.4
1952.34
1957.49
1962.65
1967.67
1972.4
1976.71
1980.48
1983.64
1986.2
1988.19
1989.73
1990.94
1991.92
1992.7
1993.25
1993.5
1993.36
1992.78
1991.76
1990.3
1988.48
1986.36
1984.04
1981.5
1978.64
1975.34
1971.68
1967.99
1964.59
1961.43
1957.99
1953.84
1949.42
1945.2
1940.74
1938.29
1936.04
1933.29
1933.99
1891.67
1890.16
1893.27
1898.38
1903.44
1910.65
1917.79
1924.38
1930.1
1935.14
1940.32
1946.41
1953.43
1960.57
1966.64
1970.69
1972.38
1971.96
1970.13
1967.72
1965.41
1963.56
1962.26
1961.47
1961.12
1961.18
1961.6
1962.3
1963.12
1963.87
1964.35
1964.35
1963.74
1962.52
1960.75
1958.59
1956.19
1953.7
1951.28
1949.09
1947.21
1945.71
1944.56
1943.68
1942.97
1942.27
1941.45
1940.35
1938.9
1937.09
1935.07
1933.05
1931.32
1930.17
1929.87
1930.62
1932.51
1935.56
1939.63
1944.53
1949.99
1955.74
1961.54
1967.18
1972.49
1977.33
1981.55
1985.05
1987.76
1989.7
1990.94
1991.64
1991.97
1992.09
1992.09
1991.96
1991.62
1991.01
1990.1
1988.89
1987.42
1985.71
1983.73
1981.47
1978.85
1975.76
1972.17
1968.27
1964.49
1961.21
1958.37
1955.34
1951.64
1947.73
1944.09
1940.06
1937.87
1935.82
1933.59
1934.36
1892.99
1891.62
1893.79
1897.37
1901.1
1907.04
1913.26
1919.22
1924.63
1929.84
1935.52
1942.17
1949.68
1957.28
1963.91
1968.66
1971.13
1971.51
1970.46
1968.83
1967.38
1966.57
1966.5
1967.11
1968.22
1969.67
1971.28
1972.82
1974.05
1974.72
1974.62
1973.58
1971.54
1968.57
1964.86
1960.66
1956.24
1951.86
1947.74
1944.07
1940.98
1938.55
1936.74
1935.46
1934.56
1933.88
1933.24
1932.47
1931.48
1930.23
1928.83
1927.48
1926.44
1926.01
1926.46
1927.98
1930.67
1934.5
1939.36
1945.02
1951.21
1957.63
1964.01
1970.11
1975.74
1980.73
1984.95
1988.3
1990.69
1992.14
1992.75
1992.68
1992.16
1991.42
1990.59
1989.73
1988.8
1987.73
1986.5
1985.15
1983.7
1982.17
1980.48
1978.49
1976.01
1972.89
1969.14
1965.05
1961.14
1957.88
1955.21
1952.52
1949.24
1945.88
1942.85
1939.35
1937.34
1935.46
1933.68
1934.52
1896.25
1894.79
1895.7
1897.56
1899.74
1904.1
1909.12
1914.16
1919.02
1924.15
1930.08
1937.04
1944.82
1952.75
1959.92
1965.51
1969.05
1970.59
1970.63
1969.95
1969.34
1969.31
1970.06
1971.53
1973.53
1975.8
1978.09
1980.08
1981.45
1981.92
1981.27
1979.37
1976.18
1971.83
1966.58
1960.77
1954.75
1948.85
1943.37
1938.53
1934.49
1931.34
1929.05
1927.52
1926.56
1925.97
1925.55
1925.14
1924.59
1923.87
1923.04
1922.27
1921.81
1921.94
1922.91
1924.94
1928.1
1932.4
1937.72
1943.87
1950.57
1957.52
1964.44
1971.05
1977.13
1982.47
1986.92
1990.36
1992.71
1993.97
1994.23
1993.65
1992.47
1990.95
1989.3
1987.66
1986.05
1984.44
1982.81
1981.2
1979.64
1978.17
1976.67
1974.95
1972.74
1969.79
1966.11
1962.04
1958.15
1954.94
1952.43
1950.02
1947.17
1944.37
1941.96
1939.05
1937.21
1935.49
1934.15
1934.93
1900.74
1898.97
1898.75
1899.06
1899.84
1902.64
1906.4
1910.41
1914.56
1919.37
1925.26
1932.22
1939.96
1947.95
1955.51
1961.92
1966.65
1969.55
1970.9
1971.31
1971.49
1972.01
1973.15
1974.94
1977.21
1979.71
1982.15
1984.17
1985.42
1985.59
1984.47
1981.93
1977.96
1972.72
1966.46
1959.57
1952.46
1945.52
1939.07
1933.38
1928.64
1924.96
1922.33
1920.63
1919.66
1919.19
1919
1918.88
1918.7
1918.39
1917.99
1917.64
1917.57
1918.04
1919.31
1921.57
1924.95
1929.44
1934.96
1941.34
1948.34
1955.68
1963.07
1970.22
1976.84
1982.68
1987.55
1991.31
1993.87
1995.24
1995.47
1994.71
1993.18
1991.12
1988.81
1986.46
1984.18
1982
1979.93
1977.98
1976.2
1974.58
1973.07
1971.45
1969.41
1966.68
1963.22
1959.36
1955.67
1952.64
1950.33
1948.2
1945.74
1943.47
1941.64
1939.34
1937.74
1936.22
1935.4
1935.98
1905.51
1903.42
1902.47
1901.73
1901.58
1903.15
1905.87
1908.99
1912.45
1916.82
1922.41
1929.04
1936.37
1944.05
1951.63
1958.54
1964.26
1968.42
1971.06
1972.53
1973.41
1974.26
1975.45
1977.13
1979.2
1981.48
1983.67
1985.43
1986.41
1986.3
1984.86
1981.99
1977.67
1972.03
1965.34
1957.94
1950.27
1942.75
1935.73
1929.49
1924.27
1920.19
1917.26
1915.39
1914.37
1913.96
1913.9
1913.97
1914.02
1913.95
1913.81
1913.7
1913.83
1914.46
1915.85
1918.2
1921.62
1926.16
1931.73
1938.21
1945.38
1952.99
1960.75
1968.36
1975.49
1981.86
1987.21
1991.37
1994.26
1995.87
1996.29
1995.63
1994.07
1991.83
1989.17
1986.34
1983.56
1980.94
1978.52
1976.3
1974.28
1972.43
1970.69
1968.91
1966.82
1964.16
1960.87
1957.26
1953.85
1951.07
1948.99
1947.13
1945.05
1943.25
1941.94
1940.23
1938.95
1937.7
1937.51
1937.85
1909.77
1907.61
1906.45
1905.23
1904.76
1905.64
1907.73
1910.3
1913.28
1917.24
1922.41
1928.47
1935.06
1941.98
1949.07
1955.96
1962.14
1967.15
1970.76
1973.07
1974.47
1975.47
1976.5
1977.8
1979.4
1981.19
1982.94
1984.34
1985.05
1984.76
1983.24
1980.37
1976.12
1970.58
1963.97
1956.59
1948.87
1941.21
1933.99
1927.51
1922
1917.62
1914.41
1912.3
1911.11
1910.6
1910.51
1910.59
1910.67
1910.68
1910.61
1910.58
1910.78
1911.46
1912.87
1915.23
1918.67
1923.23
1928.84
1935.39
1942.67
1950.45
1958.46
1966.38
1973.89
1980.66
1986.4
1990.89
1994.06
1995.92
1996.57
1996.15
1994.8
1992.69
1990.04
1987.1
1984.14
1981.34
1978.79
1976.49
1974.36
1972.31
1970.28
1968.14
1965.72
1962.85
1959.52
1956.02
1952.8
1950.21
1948.31
1946.7
1944.99
1943.61
1942.73
1941.55
1940.67
1939.77
1940.34
1940.5
1913.26
1911.39
1910.45
1909.24
1908.99
1909.7
1911.61
1914.01
1916.84
1920.57
1925.37
1930.8
1936.45
1942.28
1948.38
1954.63
1960.62
1965.86
1969.93
1972.71
1974.38
1975.37
1976.12
1976.95
1977.99
1979.22
1980.49
1981.53
1982.04
1981.73
1980.35
1977.76
1973.94
1968.9
1962.81
1955.92
1948.59
1941.2
1934.14
1927.71
1922.14
1917.6
1914.13
1911.72
1910.22
1909.43
1909.08
1908.95
1908.87
1908.76
1908.62
1908.54
1908.72
1909.39
1910.8
1913.15
1916.61
1921.2
1926.88
1933.5
1940.87
1948.75
1956.88
1964.95
1972.63
1979.6
1985.53
1990.22
1993.56
1995.57
1996.4
1996.21
1995.16
1993.39
1991.05
1988.36
1985.56
1982.91
1980.51
1978.35
1976.29
1974.17
1971.85
1969.25
1966.31
1962.99
1959.37
1955.76
1952.52
1949.97
1948.14
1946.69
1945.3
1944.29
1943.79
1943.09
1942.63
1942.15
1943.51
1943.69
1916.25
1915.01
1914.49
1913.55
1913.84
1914.75
1916.79
1919.33
1922.32
1926.08
1930.69
1935.6
1940.33
1944.95
1949.75
1954.86
1960.07
1964.9
1968.88
1971.7
1973.39
1974.24
1974.67
1975.03
1975.53
1976.22
1977.02
1977.74
1978.12
1977.88
1976.78
1974.68
1971.51
1967.26
1962.02
1955.97
1949.4
1942.67
1936.12
1930.04
1924.66
1920.13
1916.51
1913.8
1911.9
1910.65
1909.85
1909.3
1908.86
1908.46
1908.11
1907.91
1908.01
1908.64
1910.03
1912.38
1915.84
1920.45
1926.15
1932.81
1940.22
1948.11
1956.22
1964.25
1971.9
1978.86
1984.82
1989.57
1992.98
1995.09
1996.03
1996.02
1995.25
1993.86
1991.96
1989.73
1987.37
1985.11
1983.08
1981.24
1979.39
1977.29
1974.73
1971.67
1968.14
1964.24
1960.2
1956.32
1952.92
1950.24
1948.33
1946.95
1945.81
1945.1
1944.91
1944.63
1944.55
1944.54
1946.64
1947.07
1919.29
1918.87
1918.75
1918.17
1919.04
1920.29
1922.52
1925.32
1928.68
1932.71
1937.37
1941.99
1946.02
1949.54
1953
1956.75
1960.77
1964.73
1968.15
1970.65
1972.12
1972.73
1972.83
1972.77
1972.79
1972.99
1973.35
1973.74
1973.98
1973.82
1973.06
1971.51
1969.1
1965.79
1961.6
1956.65
1951.14
1945.37
1939.62
1934.17
1929.23
1924.91
1921.28
1918.33
1916.01
1914.23
1912.84
1911.72
1910.77
1909.95
1909.29
1908.89
1908.9
1909.49
1910.86
1913.19
1916.59
1921.12
1926.74
1933.3
1940.59
1948.36
1956.31
1964.15
1971.61
1978.4
1984.26
1988.99
1992.46
1994.67
1995.74
1995.88
1995.32
1994.23
1992.74
1990.98
1989.12
1987.34
1985.75
1984.27
1982.66
1980.59
1977.83
1974.33
1970.25
1965.84
1961.43
1957.34
1953.8
1950.97
1948.91
1947.5
1946.5
1945.99
1945.99
1946.08
1946.28
1946.71
1949.42
1950.26
1922.93
1923.33
1923.49
1923.21
1924.51
1926.02
1928.29
1931.28
1935.05
1939.49
1944.39
1949
1952.66
1955.39
1957.72
1960.14
1962.84
1965.67
1968.24
1970.16
1971.23
1971.52
1971.3
1970.87
1970.46
1970.21
1970.14
1970.19
1970.24
1970.12
1969.63
1968.63
1967
1964.67
1961.63
1957.92
1953.66
1949.05
1944.33
1939.72
1935.38
1931.42
1927.89
1924.78
1922.08
1919.74
1917.72
1915.96
1914.42
1913.12
1912.12
1911.51
1911.41
1911.97
1913.33
1915.6
1918.89
1923.22
1928.57
1934.83
1941.8
1949.24
1956.87
1964.4
1971.55
1978.08
1983.78
1988.47
1992.02
1994.4
1995.67
1996
1995.6
1994.68
1993.42
1991.95
1990.44
1989.03
1987.78
1986.59
1985.14
1983.06
1980.08
1976.2
1971.69
1966.96
1962.45
1958.42
1955
1952.2
1950.07
1948.6
1947.61
1947.14
1947.2
1947.55
1947.89
1948.66
1951.74
1953.03
1927.42
1928.52
1928.86
1928.84
1930.27
1931.83
1933.91
1936.89
1940.99
1945.85
1951.08
1955.87
1959.47
1961.82
1963.37
1964.72
1966.2
1967.85
1969.43
1970.61
1971.17
1971.08
1970.53
1969.76
1968.98
1968.31
1967.82
1967.51
1967.34
1967.2
1966.94
1966.43
1965.54
1964.19
1962.31
1959.88
1956.94
1953.59
1949.99
1946.3
1942.64
1939.1
1935.71
1932.48
1929.42
1926.56
1923.91
1921.52
1919.41
1917.65
1916.32
1915.52
1915.35
1915.91
1917.26
1919.48
1922.6
1926.63
1931.56
1937.3
1943.72
1950.63
1957.75
1964.83
1971.6
1977.82
1983.33
1987.96
1991.62
1994.24
1995.79
1996.37
1996.13
1995.27
1994.02
1992.57
1991.12
1989.81
1988.67
1987.56
1986.13
1983.96
1980.75
1976.58
1971.83
1967.07
1962.81
1959.28
1956.39
1953.99
1952.03
1950.56
1949.51
1948.92
1948.87
1949.36
1949.72
1950.65
1953.8
1955.47
1932.63
1934.3
1934.83
1935.04
1936.33
1937.76
1939.41
1942.17
1946.41
1951.57
1957.07
1962.11
1965.89
1968.21
1969.41
1970.02
1970.5
1971.06
1971.62
1971.99
1971.96
1971.47
1970.6
1969.51
1968.39
1967.35
1966.49
1965.85
1965.47
1965.3
1965.26
1965.23
1965.05
1964.62
1963.84
1962.63
1960.96
1958.85
1956.35
1953.56
1950.55
1947.39
1944.12
1940.76
1937.36
1934.01
1930.79
1927.83
1925.23
1923.09
1921.52
1920.61
1920.42
1921
1922.37
1924.53
1927.47
1931.15
1935.57
1940.65
1946.34
1952.5
1958.95
1965.44
1971.73
1977.59
1982.86
1987.4
1991.13
1993.97
1995.82
1996.68
1996.61
1995.77
1994.39
1992.74
1991.05
1989.52
1988.2
1986.92
1985.33
1982.97
1979.58
1975.25
1970.47
1965.98
1962.35
1959.75
1957.88
1956.3
1954.84
1953.54
1952.45
1951.68
1951.44
1951.97
1952.26
1953.18
1956.11
1957.96
1938.11
1940.25
1941.07
1941.59
1942.54
1943.71
1944.81
1947.2
1951.38
1956.6
1962.19
1967.38
1971.42
1973.97
1975.16
1975.39
1975.14
1974.74
1974.32
1973.85
1973.2
1972.28
1971.09
1969.74
1968.34
1967.01
1965.86
1964.99
1964.48
1964.35
1964.56
1965
1965.52
1965.95
1966.16
1966.03
1965.48
1964.45
1962.93
1960.93
1958.5
1955.67
1952.48
1948.99
1945.29
1941.52
1937.83
1934.42
1931.45
1929.07
1927.37
1926.44
1926.29
1926.94
1928.34
1930.45
1933.2
1936.53
1940.39
1944.77
1949.62
1954.89
1960.47
1966.2
1971.87
1977.26
1982.2
1986.55
1990.24
1993.17
1995.24
1996.33
1996.42
1995.59
1994.05
1992.09
1990.02
1988.06
1986.31
1984.63
1982.71
1980.1
1976.56
1972.23
1967.68
1963.73
1961.04
1959.7
1959.2
1958.85
1958.22
1957.33
1956.37
1955.54
1955.19
1955.78
1956.03
1956.84
1959.34
1961.17
1943.29
1945.83
1947.06
1947.97
1948.48
1949.38
1949.94
1951.89
1955.81
1960.81
1966.16
1971.27
1975.49
1978.37
1979.79
1979.95
1979.23
1978.05
1976.71
1975.38
1974.07
1972.72
1971.26
1969.71
1968.13
1966.63
1965.32
1964.34
1963.82
1963.82
1964.35
1965.28
1966.44
1967.64
1968.7
1969.46
1969.81
1969.65
1968.92
1967.58
1965.64
1963.11
1960.04
1956.52
1952.66
1948.63
1944.67
1941
1937.83
1935.35
1933.66
1932.8
1932.77
1933.5
1934.92
1936.94
1939.46
1942.41
1945.73
1949.37
1953.34
1957.62
1962.18
1966.96
1971.8
1976.51
1980.94
1984.92
1988.37
1991.19
1993.27
1994.46
1994.64
1993.83
1992.18
1989.97
1987.53
1985.12
1982.86
1980.69
1978.32
1975.41
1971.77
1967.58
1963.47
1960.29
1958.72
1958.81
1959.88
1960.97
1961.46
1961.29
1960.76
1960.21
1960.07
1960.94
1961.34
1962.07
1964.13
1965.77
1947.6
1950.45
1952.16
1953.49
1953.55
1954.21
1954.36
1955.88
1959.35
1963.81
1968.57
1973.23
1977.38
1980.51
1982.27
1982.59
1981.67
1979.92
1977.77
1975.63
1973.66
1971.88
1970.2
1968.55
1966.91
1965.36
1964.03
1963.08
1962.65
1962.86
1963.71
1965.1
1966.83
1968.67
1970.41
1971.85
1972.87
1973.34
1973.21
1972.41
1970.92
1968.75
1965.96
1962.62
1958.87
1954.91
1950.98
1947.34
1944.24
1941.87
1940.32
1939.62
1939.73
1940.53
1941.91
1943.75
1945.95
1948.44
1951.14
1954.01
1957.05
1960.27
1963.69
1967.3
1971.05
1974.82
1978.46
1981.82
1984.78
1987.24
1989.08
1990.14
1990.28
1989.45
1987.74
1985.41
1982.77
1980.06
1977.43
1974.82
1972.03
1968.84
1965.16
1961.23
1957.7
1955.43
1955.05
1956.58
1959.2
1961.81
1963.58
1964.43
1964.77
1965.03
1965.64
1967.19
1968.11
1969.02
1970.83
1972.17
1950.69
1953.64
1955.76
1957.44
1957.1
1957.57
1957.47
1958.61
1961.46
1965.09
1968.87
1972.69
1976.4
1979.55
1981.6
1982.2
1981.33
1979.26
1976.54
1973.7
1971.13
1968.96
1967.12
1965.45
1963.88
1962.42
1961.19
1960.35
1960.07
1960.49
1961.62
1963.36
1965.53
1967.85
1970.08
1972.01
1973.5
1974.44
1974.76
1974.42
1973.4
1971.71
1969.41
1966.57
1963.33
1959.87
1956.42
1953.22
1950.53
1948.51
1947.28
1946.83
1947.09
1947.91
1949.14
1950.66
1952.36
1954.2
1956.12
1958.1
1960.13
1962.21
1964.37
1966.65
1969.07
1971.61
1974.16
1976.61
1978.81
1980.65
1981.99
1982.7
1982.61
1981.65
1979.88
1977.52
1974.83
1972.06
1969.3
1966.49
1963.49
1960.16
1956.55
1953
1950.17
1948.88
1949.69
1952.52
1956.55
1960.57
1963.69
1965.81
1967.49
1969.16
1971.17
1973.92
1975.87
1977.33
1979.25
1980.19
1952.41
1955.15
1957.46
1959.31
1958.62
1958.95
1958.77
1959.59
1961.69
1964.24
1966.75
1969.35
1972.2
1974.98
1977.1
1977.97
1977.33
1975.26
1972.26
1968.97
1965.97
1963.51
1961.58
1959.98
1958.57
1957.3
1956.24
1955.55
1955.43
1956
1957.31
1959.27
1961.69
1964.32
1966.89
1969.16
1971
1972.3
1973.01
1973.11
1972.62
1971.55
1969.95
1967.92
1965.57
1963.04
1960.53
1958.24
1956.35
1955.02
1954.32
1954.23
1954.65
1955.43
1956.4
1957.42
1958.41
1959.34
1960.24
1961.12
1961.98
1962.8
1963.62
1964.47
1965.43
1966.52
1967.75
1969.04
1970.25
1971.24
1971.88
1972.01
1971.49
1970.23
1968.29
1965.85
1963.19
1960.51
1957.87
1955.18
1952.29
1949.13
1945.84
1942.87
1940.89
1940.65
1942.59
1946.58
1951.79
1957.03
1961.44
1965
1968.37
1971.96
1975.9
1980.33
1983.75
1986.2
1988.59
1988.99
1952.86
1955
1957.21
1958.98
1958
1958.2
1958.06
1958.62
1959.89
1961.25
1962.33
1963.47
1965.07
1967.05
1968.86
1969.83
1969.45
1967.62
1964.69
1961.3
1958.11
1955.52
1953.59
1952.14
1950.96
1949.93
1949.09
1948.58
1948.59
1949.26
1950.65
1952.7
1955.25
1958.05
1960.85
1963.4
1965.54
1967.18
1968.28
1968.84
1968.91
1968.52
1967.75
1966.69
1965.45
1964.15
1962.93
1961.9
1961.18
1960.85
1960.92
1961.35
1962
1962.73
1963.35
1963.74
1963.83
1963.65
1963.28
1962.81
1962.29
1961.75
1961.18
1960.61
1960.09
1959.72
1959.54
1959.54
1959.62
1959.63
1959.4
1958.78
1957.63
1955.86
1953.54
1950.86
1948.1
1945.49
1943.09
1940.78
1938.39
1935.83
1933.3
1931.25
1930.38
1931.32
1934.42
1939.45
1945.61
1951.84
1957.42
1962.42
1967.6
1973.3
1979.39
1985.73
1990.82
1994.5
1997.55
1997.2
1952.33
1953.55
1955.36
1956.78
1955.58
1955.65
1955.63
1955.99
1956.45
1956.64
1956.35
1955.97
1956.09
1956.86
1957.94
1958.67
1958.44
1956.93
1954.29
1951.1
1948
1945.47
1943.64
1942.39
1941.48
1940.74
1940.15
1939.86
1940.02
1940.79
1942.25
1944.37
1947.02
1949.98
1953
1955.84
1958.31
1960.32
1961.83
1962.86
1963.46
1963.71
1963.71
1963.59
1963.44
1963.39
1963.52
1963.89
1964.53
1965.4
1966.45
1967.55
1968.56
1969.29
1969.58
1969.32
1968.47
1967.09
1965.33
1963.37
1961.35
1959.36
1957.42
1955.52
1953.69
1952.01
1950.54
1949.32
1948.26
1947.23
1946.05
1944.55
1942.59
1940.11
1937.18
1934
1930.89
1928.16
1925.93
1924.13
1922.54
1921.05
1919.77
1919.13
1919.74
1922.12
1926.49
1932.55
1939.53
1946.56
1953.09
1959.39
1966.21
1973.82
1981.83
1989.86
1996.44
2001.22
2004.83
2003.54
1951.3
1951.41
1952.6
1953.45
1952.13
1952.02
1952.16
1952.36
1952.12
1951.32
1949.91
1948.23
1946.89
1946.24
1946.2
1946.31
1945.93
1944.62
1942.34
1939.48
1936.62
1934.26
1932.6
1931.56
1930.93
1930.51
1930.25
1930.24
1930.64
1931.63
1933.27
1935.58
1938.45
1941.67
1945.02
1948.23
1951.12
1953.56
1955.5
1956.95
1958.01
1958.76
1959.35
1959.92
1960.61
1961.54
1962.8
1964.4
1966.29
1968.37
1970.44
1972.32
1973.78
1974.62
1974.7
1973.91
1972.24
1969.78
1966.75
1963.37
1959.91
1956.54
1953.33
1950.29
1947.41
1944.71
1942.24
1940.01
1937.96
1935.96
1933.82
1931.37
1928.49
1925.13
1921.38
1917.47
1913.78
1910.68
1908.44
1907.08
1906.44
1906.34
1906.78
1908.03
1910.54
1914.67
1920.51
1927.65
1935.41
1943.1
1950.41
1957.72
1965.78
1974.74
1984.04
1993.13
2000.55
2005.92
2009.64
2007.44
1950.3
1949.36
1949.79
1949.91
1948.53
1948.19
1948.43
1948.48
1947.69
1946.19
1944.07
1941.52
1939
1936.99
1935.7
1934.88
1934.05
1932.69
1930.61
1928.02
1925.39
1923.16
1921.61
1920.72
1920.31
1920.21
1920.32
1920.7
1921.5
1922.86
1924.89
1927.6
1930.89
1934.58
1938.42
1942.16
1945.58
1948.51
1950.89
1952.74
1954.15
1955.24
1956.18
1957.14
1958.3
1959.8
1961.75
1964.16
1966.95
1969.93
1972.86
1975.44
1977.37
1978.41
1978.41
1977.29
1975.06
1971.85
1967.88
1963.44
1958.83
1954.34
1950.1
1946.18
1942.54
1939.15
1936
1933.08
1930.29
1927.49
1924.5
1921.13
1917.31
1913.02
1908.38
1903.64
1899.22
1895.6
1893.16
1892.11
1892.37
1893.77
1896.15
1899.58
1904.25
1910.35
1917.77
1926.09
1934.63
1942.91
1950.82
1958.83
1967.64
1977.25
1987.01
1996.31
2003.68
2008.83
2012.1
2009.28
1949.9
1948.11
1947.77
1947.01
1945.57
1944.84
1945.01
1944.84
1943.63
1941.73
1939.32
1936.41
1933.21
1930.2
1927.79
1926.03
1924.56
1922.93
1920.84
1918.34
1915.76
1913.51
1911.88
1910.96
1910.64
1910.76
1911.23
1912.05
1913.34
1915.21
1917.78
1921.05
1924.93
1929.25
1933.73
1938.12
1942.15
1945.63
1948.49
1950.73
1952.44
1953.78
1954.92
1956.07
1957.42
1959.14
1961.33
1964.06
1967.23
1970.66
1974.05
1977.04
1979.28
1980.49
1980.49
1979.21
1976.71
1973.13
1968.69
1963.69
1958.44
1953.25
1948.36
1943.85
1939.73
1935.94
1932.42
1929.08
1925.83
1922.48
1918.83
1914.72
1910.08
1904.96
1899.52
1894.05
1888.99
1884.87
1882.19
1881.31
1882.31
1885.04
1889.26
1894.77
1901.56
1909.53
1918.5
1927.9
1937.19
1945.97
1954.35
1962.8
1971.93
1981.58
1991.07
1999.82
2006.27
2010.54
2012.89
2009.97
1950.52
1948.22
1947.09
1945.31
1943.66
1942.3
1942.07
1941.46
1939.88
1937.78
1935.4
1932.55
1929.19
1925.71
1922.63
1920.19
1918.21
1916.28
1914.07
1911.51
1908.82
1906.35
1904.42
1903.23
1902.76
1902.91
1903.58
1904.74
1906.44
1908.79
1911.86
1915.66
1920.11
1925.02
1930.14
1935.15
1939.8
1943.88
1947.26
1949.95
1952.05
1953.7
1955.11
1956.45
1957.93
1959.71
1961.9
1964.57
1967.66
1971.03
1974.38
1977.37
1979.61
1980.79
1980.72
1979.35
1976.75
1973.09
1968.59
1963.51
1958.14
1952.77
1947.64
1942.9
1938.56
1934.58
1930.88
1927.34
1923.84
1920.19
1916.17
1911.6
1906.43
1900.76
1894.79
1888.87
1883.43
1879.03
1876.23
1875.48
1876.99
1880.71
1886.32
1893.48
1901.89
1911.33
1921.43
1931.67
1941.48