/*--------------------------------*- C++ -*----------------------------------*\
| =========                 |                                                 |
| \\      /  F ield         | OpenFOAM: The Open Source CFD Toolbox           |
|  \\    /   O peration     | Version:  2406                                  |
|   \\  /    A nd           | Website:  www.openfoam.com                      |
|    \\/     M anipulation  |                                                 |
\*---------------------------------------------------------------------------*/
FoamFile
{
    version     2.0;
    format      ascii;
    arch        "LSB;label=32;scalar=64";
    class       surfaceScalarField;
    location    "3";
    object      phi;
}
// * * * * * * * * * * * * * * * * * * * * * * * * * * * * * * * * * * * * * //

dimensions      [0 3 -1 0 0 0 0];

oriented        oriented;

internalField   nonuniform List<scalar> 
19800
(
-1.35082e-13
6.86426e-14
-1.04856e-13
1.05229e-13
-1.08816e-13
4.38136e-14
-1.72124e-13
-1.09202e-15
-1.57265e-13
1.35789e-14
-1.41435e-13
1.2959e-14
-1.47876e-13
-1.09543e-14
-1.77841e-13
-4.61731e-14
-2.01109e-13
-7.48159e-14
-1.92979e-13
-8.0317e-14
-1.47305e-13
-6.12936e-14
-7.70014e-14
-2.80743e-14
-1.46834e-15
8.43593e-15
6.62974e-14
4.2854e-14
1.23096e-13
7.36115e-14
1.70897e-13
9.9229e-14
2.12451e-13
1.17126e-13
2.48469e-13
1.24704e-13
2.76202e-13
1.20621e-13
2.9056e-13
1.05966e-13
2.87787e-13
8.46846e-14
2.68603e-13
6.23589e-14
2.37956e-13
4.37508e-14
2.02001e-13
3.12352e-14
1.65181e-13
2.52121e-14
1.2914e-13
2.54687e-14
9.33099e-14
3.18889e-14
5.62514e-14
4.41612e-14
1.69152e-14
6.12164e-14
-2.47192e-14
8.11251e-14
-6.77563e-14
1.01492e-13
-1.10925e-13
1.19908e-13
-1.53015e-13
1.34125e-13
-1.92906e-13
1.4208e-13
-2.29324e-13
1.42142e-13
-2.6069e-13
1.33627e-13
-2.85277e-13
1.17218e-13
-3.0151e-13
9.48535e-14
-3.08187e-13
6.9069e-14
-3.04497e-13
4.2248e-14
-2.90014e-13
1.62612e-14
-2.64777e-13
-7.42328e-15
-2.29433e-13
-2.74488e-14
-1.85272e-13
-4.24616e-14
-1.34083e-13
-5.13169e-14
-7.8028e-14
-5.34605e-14
-1.96548e-14
-4.92164e-14
3.79697e-14
-3.97771e-14
9.13002e-14
-2.6863e-14
1.36721e-13
-1.21965e-14
1.71249e-13
2.94894e-15
1.93201e-13
1.78831e-14
2.02558e-13
3.22589e-14
2.00916e-13
4.5667e-14
1.91155e-13
5.74148e-14
1.76955e-13
6.6698e-14
1.62243e-13
7.3019e-14
1.50634e-13
7.64747e-14
1.44901e-13
7.76406e-14
1.46572e-13
7.71433e-14
1.55696e-13
7.52722e-14
1.70786e-13
7.19075e-14
1.8894e-13
6.67242e-14
2.06176e-13
5.94003e-14
2.17985e-13
4.96212e-14
2.20105e-13
3.6939e-14
2.09353e-13
2.07284e-14
1.84328e-13
4.12913e-16
1.45772e-13
-2.41127e-14
9.6518e-14
-5.21311e-14
4.10469e-14
-8.20621e-14
-1.52121e-14
-1.11759e-13
-6.67037e-14
-1.38948e-13
-1.08562e-13
-1.61564e-13
-1.37325e-13
-1.77843e-13
-1.51451e-13
-1.8626e-13
-1.51545e-13
-1.85469e-13
-1.40199e-13
-1.74453e-13
-1.21421e-13
-1.52886e-13
-9.97098e-14
-1.21617e-13
-7.8993e-14
-8.29702e-14
-6.17077e-14
-4.06639e-14
-4.84269e-14
8.8024e-16
-3.81234e-14
3.75582e-14
-2.91385e-14
6.66964e-14
-2.0256e-14
8.74358e-14
-1.16325e-14
1.00378e-13
-4.77139e-15
1.06193e-13
-1.92132e-15
1.04423e-13
-4.51792e-15
9.28663e-14
-1.2064e-14
6.91171e-14
-2.13854e-14
3.33053e-14
-2.81282e-14
-8.76648e-15
-2.86619e-14
-4.64077e-14
-2.14842e-14
-7.03714e-14
-5.60714e-15
-8.35228e-14
2.29676e-14
-9.85857e-14
6.13804e-14
-1.18674e-13
8.1256e-14
-1.08863e-13
-6.31619e-14
-2.00105e-13
5.68398e-14
-2.14579e-13
1.19004e-13
-2.01435e-13
8.38982e-14
-2.42169e-13
2.87568e-14
-2.32825e-13
3.13719e-14
-2.31829e-13
2.60906e-14
-2.66462e-13
-3.63245e-15
-3.1572e-13
-3.8175e-14
-3.31111e-13
-5.5373e-14
-2.93512e-13
-4.47876e-14
-2.0942e-13
-1.36323e-14
-9.95207e-14
2.52602e-14
1.38268e-14
6.43809e-14
1.16265e-13
1.01821e-13
2.03135e-13
1.36556e-13
2.75593e-13
1.64754e-13
3.36118e-13
1.80426e-13
3.8526e-13
1.78922e-13
4.20076e-13
1.5987e-13
4.35648e-13
1.2737e-13
4.28718e-13
8.81033e-14
4.0074e-13
4.87873e-14
3.57695e-13
1.41992e-14
3.07093e-13
-1.35993e-14
2.54637e-13
-3.46171e-14
2.02609e-13
-4.94653e-14
1.50306e-13
-5.81378e-14
9.57196e-14
-5.98476e-14
3.73164e-14
-5.3862e-14
-2.49783e-14
-4.0565e-14
-8.99015e-14
-2.18605e-14
-1.55616e-13
-6.29886e-16
-2.20318e-13
2.02748e-14
-2.82214e-13
3.87418e-14
-3.39116e-13
5.34823e-14
-3.8826e-13
6.37642e-14
-4.26673e-13
6.9252e-14
-4.51803e-13
7.00845e-14
-4.61914e-13
6.69656e-14
-4.56053e-13
6.1053e-14
-4.33828e-13
5.36895e-14
-3.95358e-13
4.61707e-14
-3.41454e-13
3.9627e-14
-2.73873e-13
3.49116e-14
-1.95399e-13
3.23976e-14
-1.09749e-13
3.1764e-14
-2.13992e-14
3.19786e-14
6.46248e-14
3.1581e-14
1.43103e-13
2.91539e-14
2.09202e-13
2.3763e-14
2.59197e-13
1.52171e-14
2.911e-13
4.1371e-15
3.05039e-13
-8.14149e-15
3.03313e-13
-1.98418e-14
2.90154e-13
-2.91774e-14
2.71163e-13
-3.48107e-14
2.52431e-13
-3.6122e-14
2.39466e-13
-3.31671e-14
2.36213e-13
-2.64238e-14
2.44432e-13
-1.65788e-14
2.63502e-13
-4.53203e-15
2.90543e-13
8.43849e-15
3.20705e-13
2.05795e-14
3.47663e-13
2.98182e-14
3.6441e-13
3.41493e-14
3.6444e-13
3.20573e-14
3.431e-13
2.27749e-14
2.98726e-13
6.32018e-15
2.33172e-13
-1.66025e-14
1.5157e-13
-4.47278e-14
6.14511e-14
-7.63476e-14
-2.84671e-14
-1.0946e-13
-1.0953e-13
-1.41985e-13
-1.74285e-13
-1.72005e-13
-2.17443e-13
-1.97936e-13
-2.36632e-13
-2.18554e-13
-2.32814e-13
-2.32913e-13
-2.1018e-13
-2.40254e-13
-1.75361e-13
-2.40029e-13
-1.35981e-13
-2.32038e-13
-9.87938e-14
-2.16671e-13
-6.8032e-14
-1.95022e-13
-4.45145e-14
-1.68882e-13
-2.61621e-14
-1.40376e-13
-9.58149e-15
-1.11518e-13
7.55269e-15
-8.35744e-14
2.49059e-14
-5.69529e-14
3.89225e-14
-3.14782e-14
4.46796e-14
-7.65046e-15
3.87317e-14
1.24121e-14
2.29969e-14
2.48443e-14
5.40467e-15
2.64437e-14
-3.56673e-15
1.81555e-14
2.47839e-16
7.56928e-15
1.12532e-14
5.06462e-15
2.32235e-14
1.25219e-14
4.90903e-14
1.66852e-14
1.02515e-13
6.67922e-15
1.17082e-13
-1.18321e-16
-6.18798e-15
-1.63106e-13
5.93771e-14
-2.14921e-13
1.12841e-13
-2.30912e-13
1.09334e-13
-2.39152e-13
9.10113e-14
-2.4239e-13
8.70204e-14
-2.64005e-13
6.96328e-14
-3.1208e-13
3.41155e-14
-3.56545e-13
4.43837e-16
-3.52585e-13
-1.06723e-14
-2.96456e-13
8.00369e-15
-2.01436e-13
4.5879e-14
-8.56371e-14
8.76939e-14
3.24579e-14
1.24821e-13
1.38866e-13
1.55295e-13
2.26447e-13
1.78557e-13
2.94117e-13
1.92129e-13
3.45122e-13
1.92395e-13
3.83241e-13
1.77606e-13
4.09113e-13
1.49717e-13
4.19827e-13
1.14019e-13
4.12166e-13
7.70134e-14
3.86154e-13
4.40497e-14
3.45887e-13
1.79033e-14
2.97581e-13
-1.15751e-15
2.4688e-13
-1.43016e-14
1.97019e-13
-2.29059e-14
1.48353e-13
-2.78224e-14
9.911e-14
-2.92707e-14
4.69334e-14
-2.71672e-14
-9.56514e-15
-2.15756e-14
-7.00592e-14
-1.29907e-14
-1.32858e-13
-2.2948e-15
-1.95795e-13
9.53588e-15
-2.56767e-13
2.1728e-14
-3.1358e-13
3.38035e-14
-3.63569e-13
4.54723e-14
-4.03669e-13
5.65021e-14
-4.31008e-13
6.67082e-14
-4.43521e-13
7.60385e-14
-4.40096e-13
8.46219e-14
-4.20326e-13
9.27015e-14
-3.84331e-13
1.005e-13
-3.32933e-13
1.08102e-13
-2.68016e-13
1.15372e-13
-1.92677e-13
1.21846e-13
-1.10989e-13
1.26629e-13
-2.75851e-14
1.28392e-13
5.27437e-14
1.25633e-13
1.2539e-13
1.17145e-13
1.8637e-13
1.02514e-13
2.32877e-13
8.2387e-14
2.63755e-13
5.84135e-14
2.7969e-13
3.29196e-14
2.83097e-13
8.48702e-15
2.7784e-13
-1.24508e-14
2.68846e-13
-2.7947e-14
2.61507e-13
-3.67979e-14
2.60784e-13
-3.86898e-14
2.70148e-13
-3.42053e-14
2.9072e-13
-2.47006e-14
3.20936e-13
-1.21066e-14
3.56786e-13
1.28428e-15
3.92425e-13
1.30304e-14
4.20946e-13
2.07747e-14
4.35251e-13
2.25178e-14
4.29097e-13
1.68998e-14
3.98285e-13
3.41015e-15
3.41719e-13
-1.75541e-14
2.61967e-13
-4.481e-14
1.65044e-13
-7.66503e-14
5.94712e-14
-1.1116e-13
-4.50702e-14
-1.46501e-13
-1.39104e-13
-1.81109e-13
-2.14505e-13
-2.13768e-13
-2.65392e-13
-2.43565e-13
-2.88835e-13
-2.6977e-13
-2.85322e-13
-2.91694e-13
-2.58803e-13
-3.08616e-13
-2.16068e-13
-3.19797e-13
-1.65333e-13
-3.24632e-13
-1.14301e-13
-3.22761e-13
-6.82036e-14
-3.14209e-13
-2.87102e-14
-2.99281e-13
5.89922e-15
-2.78505e-13
3.8934e-14
-2.52335e-13
7.28124e-14
-2.21184e-13
1.06501e-13
-1.85418e-13
1.34814e-13
-1.46017e-13
1.49829e-13
-1.04912e-13
1.45685e-13
-6.51841e-14
1.23885e-13
-2.97369e-14
9.6448e-14
-5.10034e-17
8.01492e-14
2.41412e-14
8.33032e-14
4.33254e-14
9.42548e-14
5.80245e-14
9.26895e-14
6.99534e-14
8.6726e-14
8.17276e-14
1.17307e-13
9.83738e-14
1.05786e-13
1.23018e-13
8.85011e-14
-1.23853e-13
1.06801e-13
-1.73823e-13
1.41599e-13
-2.31901e-13
1.09934e-13
-2.49893e-13
9.91456e-14
-2.65738e-13
1.00093e-13
-3.01412e-13
8.18843e-14
-3.49055e-13
5.44045e-14
-3.73554e-13
3.93471e-14
-3.41561e-13
4.99232e-14
-2.66095e-13
8.47985e-14
-1.6511e-13
1.29231e-13
-5.12115e-14
1.67238e-13
6.25595e-14
1.9074e-13
1.63364e-13
1.99576e-13
2.42314e-13
1.96914e-13
2.97525e-13
1.85343e-13
3.34123e-13
1.66526e-13
3.59611e-13
1.42648e-13
3.779e-13
1.17251e-13
3.87281e-13
9.46353e-14
3.83358e-13
7.86922e-14
3.63655e-13
7.17286e-14
3.29853e-13
7.36992e-14
2.86811e-13
8.21059e-14
2.40014e-13
9.27735e-14
1.93281e-13
1.01211e-13
1.47661e-13
1.04003e-13
1.01716e-13
9.96412e-14
5.29318e-14
8.85474e-14
-5.30829e-16
7.2431e-14
-5.87485e-14
5.35134e-14
-1.20145e-13
3.40781e-14
-1.8239e-13
1.64003e-14
-2.43124e-13
2.72262e-15
-2.99975e-13
-5.02181e-15
-3.50186e-13
-5.65436e-15
-3.90592e-13
9.91419e-16
-4.18164e-13
1.42313e-14
-4.30683e-13
3.29732e-14
-4.26995e-13
5.60851e-14
-4.06795e-13
8.24591e-14
-3.70408e-13
1.10847e-13
-3.18944e-13
1.39713e-13
-2.54663e-13
1.6728e-13
-1.81106e-13
1.91708e-13
-1.02731e-13
2.11293e-13
-2.42497e-14
2.24581e-13
4.9948e-14
2.30442e-13
1.16117e-13
2.28155e-13
1.71365e-13
2.1754e-13
2.13901e-13
1.99111e-13
2.43281e-13
1.74192e-13
2.60503e-13
1.44947e-13
2.67899e-13
1.14197e-13
2.68899e-13
8.49721e-14
2.6772e-13
5.98717e-14
2.68883e-13
4.04846e-14
2.76446e-13
2.71168e-14
2.93068e-13
1.89225e-14
3.19208e-13
1.4278e-14
3.52812e-13
1.11424e-14
3.89565e-13
7.27229e-15
4.23548e-13
3.61619e-16
4.48052e-13
-1.17197e-14
4.56468e-13
-3.05193e-14
4.43265e-13
-5.65571e-14
4.05041e-13
-8.90813e-14
3.41436e-13
-1.26185e-13
2.55564e-13
-1.6525e-13
1.53751e-13
-2.03507e-13
4.46009e-14
-2.38514e-13
-6.22702e-14
-2.68429e-13
-1.57497e-13
-2.92126e-13
-2.33013e-13
-3.0921e-13
-2.82889e-13
-3.20013e-13
-3.04047e-13
-3.25523e-13
-2.96816e-13
-3.2722e-13
-2.651e-13
-3.26756e-13
-2.15828e-13
-3.25561e-13
-1.57565e-13
-3.24404e-13
-9.84409e-14
-3.23164e-13
-4.41113e-14
-3.20849e-13
3.52995e-15
-3.16064e-13
4.60713e-14
-3.07509e-13
8.68296e-14
-2.94479e-13
1.27892e-13
-2.76646e-13
1.67586e-13
-2.53855e-13
1.99435e-13
-2.25787e-13
2.14635e-13
-1.92598e-13
2.07146e-13
-1.54924e-13
1.79783e-13
-1.13201e-13
1.45446e-13
-6.58935e-14
1.21381e-13
-1.08938e-14
1.17147e-13
4.89556e-14
1.26244e-13
1.01228e-13
1.27985e-13
1.32188e-13
1.17576e-13
1.47731e-13
1.42891e-13
1.72245e-13
1.04777e-13
2.05194e-13
1.44152e-13
-1.17915e-13
9.14267e-14
-1.74288e-13
1.27856e-13
-2.3866e-13
1.08528e-13
-2.69586e-13
1.20706e-13
-2.97451e-13
1.43434e-13
-3.34095e-13
1.37043e-13
-3.68221e-13
1.20792e-13
-3.67248e-13
1.14795e-13
-3.10144e-13
1.28041e-13
-2.22745e-13
1.56195e-13
-1.2479e-13
1.84836e-13
-2.24902e-14
1.99441e-13
7.82336e-14
1.93156e-13
1.67879e-13
1.68051e-13
2.37681e-13
1.31172e-13
2.85304e-13
8.99686e-14
3.16596e-13
5.00707e-14
3.40334e-13
1.55106e-14
3.61188e-13
-1.07578e-14
3.77046e-13
-2.67848e-14
3.81962e-13
-3.19119e-14
3.71086e-13
-2.69234e-14
3.43623e-13
-1.41092e-14
3.02698e-13
2.83041e-15
2.53382e-13
1.91459e-14
2.00419e-13
2.98603e-14
1.46601e-13
3.09945e-14
9.23108e-14
2.08114e-14
3.6351e-14
4.27695e-16
-2.24493e-14
-2.66175e-14
-8.39017e-14
-5.56065e-14
-1.46283e-13
-8.19405e-14
-2.07196e-13
-1.01859e-13
-2.64479e-13
-1.12569e-13
-3.16308e-13
-1.1224e-13
-3.60673e-13
-1.00181e-13
-3.95023e-13
-7.70579e-14
-4.16631e-13
-4.4819e-14
-4.23361e-13
-6.21871e-15
-4.14158e-13
3.57905e-14
-3.89009e-13
7.84533e-14
-3.48687e-13
1.19305e-13
-2.9472e-13
1.56139e-13
-2.29629e-13
1.87048e-13
-1.57019e-13
2.10559e-13
-8.12683e-14
2.25747e-13
-6.89746e-15
2.32263e-13
6.2012e-14
2.30307e-13
1.22172e-13
2.20582e-13
1.71311e-13
2.04225e-13
2.08398e-13
1.82659e-13
2.33788e-13
1.5743e-13
2.49116e-13
1.30132e-13
2.56949e-13
1.02452e-13
2.60383e-13
7.61796e-14
2.62792e-13
5.30002e-14
2.67619e-13
3.40446e-14
2.77956e-13
1.94513e-14
2.95812e-13
8.24448e-15
3.21325e-13
-1.36858e-15
3.52336e-13
-1.14751e-14
3.84589e-13
-2.40151e-14
4.12461e-13
-4.05669e-14
4.29903e-13
-6.22621e-14
4.31337e-13
-8.96364e-14
4.1245e-13
-1.22366e-13
3.70932e-13
-1.59053e-13
3.07092e-13
-1.97306e-13
2.24175e-13
-2.34209e-13
1.28151e-13
-2.67049e-13
2.69541e-14
-2.93969e-13
-7.06324e-14
-3.14305e-13
-1.56137e-13
-3.28506e-13
-2.22388e-13
-3.37766e-13
-2.6429e-13
-3.4358e-13
-2.79433e-13
-3.47407e-13
-2.68521e-13
-3.5051e-13
-2.35421e-13
-3.5394e-13
-1.8661e-13
-3.58482e-13
-1.29877e-13
-3.64491e-13
-7.25559e-14
-3.71495e-13
-1.9737e-14
-3.77917e-13
2.67887e-14
-3.81024e-13
6.84934e-14
-3.77624e-13
1.08568e-13
-3.6496e-13
1.49349e-13
-3.41799e-13
1.89314e-13
-3.08563e-13
2.21968e-13
-2.67244e-13
2.38232e-13
-2.20469e-13
2.32994e-13
-1.70875e-13
2.1073e-13
-1.19433e-13
1.84368e-13
-6.43005e-14
1.65066e-13
-1.23446e-15
1.54164e-13
7.07144e-14
1.48105e-13
1.39968e-13
1.43522e-13
1.82512e-13
1.35655e-13
1.93443e-13
1.5967e-13
2.07905e-13
9.48741e-14
2.34384e-13
1.58895e-13
-9.18901e-14
8.02248e-14
-1.61743e-13
1.18542e-13
-2.24188e-13
1.12561e-13
-2.66097e-13
1.38142e-13
-3.14154e-13
1.73417e-13
-3.53721e-13
1.76444e-13
-3.78767e-13
1.70659e-13
-3.60534e-13
1.73047e-13
-2.89091e-13
1.8793e-13
-2.00129e-13
2.09068e-13
-1.14159e-13
2.238e-13
-3.07408e-14
2.20246e-13
5.24164e-14
1.93867e-13
1.30981e-13
1.49128e-13
1.97067e-13
9.60459e-14
2.4693e-13
4.48179e-14
2.84729e-13
2.61323e-15
3.17924e-13
-2.70477e-14
3.49916e-13
-4.33675e-14
3.7724e-13
-4.72413e-14
3.92521e-13
-4.05368e-14
3.8945e-13
-2.58873e-14
3.65818e-13
-6.72778e-15
3.23673e-13
1.26886e-14
2.67837e-13
2.75955e-14
2.04063e-13
3.33995e-14
1.37404e-13
2.67055e-14
7.11215e-14
6.40728e-15
6.50134e-15
-2.56483e-14
-5.6312e-14
-6.49109e-14
-1.17062e-13
-1.05313e-13
-1.74703e-13
-1.40823e-13
-2.2774e-13
-1.666e-13
-2.74971e-13
-1.79433e-13
-3.15712e-13
-1.77679e-13
-3.4926e-13
-1.61154e-13
-3.74274e-13
-1.31083e-13
-3.88799e-13
-8.99629e-14
-3.90941e-13
-4.11579e-14
-3.7955e-13
1.16573e-14
-3.54432e-13
6.49575e-14
-3.16188e-13
1.15598e-13
-2.66123e-13
1.60902e-13
-2.06389e-13
1.98758e-13
-1.40112e-13
2.2774e-13
-7.11559e-14
2.47171e-13
-3.55369e-15
2.57066e-13
5.90534e-14
2.58007e-13
1.13738e-13
2.51054e-13
1.58457e-13
2.37654e-13
1.9228e-13
2.19486e-13
2.15621e-13
1.98195e-13
2.30238e-13
1.75149e-13
2.38825e-13
1.51371e-13
2.44406e-13
1.27638e-13
2.49866e-13
1.04582e-13
2.57758e-13
8.25827e-14
2.70181e-13
6.15002e-14
2.88427e-13
4.04667e-14
3.12388e-13
1.79648e-14
3.40073e-13
-7.78017e-15
3.67612e-13
-3.82966e-14
3.89876e-13
-7.4481e-14
4.01462e-13
-1.16413e-13
3.97676e-13
-1.63291e-13
3.75255e-13
-2.13391e-13
3.32825e-13
-2.64079e-13
2.71154e-13
-3.11998e-13
1.93242e-13
-3.53571e-13
1.04172e-13
-3.85728e-13
1.06598e-14
-4.06644e-13
-7.96775e-14
-4.16183e-13
-1.59198e-13
-4.1586e-13
-2.21142e-13
-4.08363e-13
-2.60501e-13
-3.9683e-13
-2.74787e-13
-3.84154e-13
-2.64566e-13
-3.72557e-13
-2.33482e-13
-3.63451e-13
-1.87523e-13
-3.5755e-13
-1.33592e-13
-3.54948e-13
-7.77542e-14
-3.55086e-13
-2.38669e-14
-3.56466e-13
2.69617e-14
-3.56565e-13
7.58428e-14
-3.51977e-13
1.24767e-13
-3.39355e-13
1.74447e-13
-3.1639e-13
2.22105e-13
-2.82951e-13
2.60463e-13
-2.40943e-13
2.80649e-13
-1.9355e-13
2.78914e-13
-1.43294e-13
2.62574e-13
-9.12798e-14
2.4616e-13
-3.73415e-14
2.36817e-13
1.88338e-14
2.24163e-13
7.75486e-14
1.97008e-13
1.34737e-13
1.67355e-13
1.72334e-13
1.48143e-13
1.75674e-13
1.62873e-13
1.77962e-13
6.95604e-14
1.97204e-13
1.29898e-13
-5.53905e-14
8.92957e-14
-1.2816e-13
1.41762e-13
-1.92949e-13
1.44493e-13
-2.44505e-13
1.65134e-13
-3.177e-13
1.91864e-13
-3.6114e-13
1.89509e-13
-3.81148e-13
1.82661e-13
-3.53737e-13
1.85532e-13
-2.77646e-13
1.98824e-13
-1.95129e-13
2.14792e-13
-1.26294e-13
2.22102e-13
-6.41074e-14
2.1079e-13
2.16588e-15
1.77588e-13
7.35917e-14
1.27887e-13
1.428e-13
7.21978e-14
2.03193e-13
2.07435e-14
2.55247e-13
-2.0084e-14
3.0341e-13
-4.82226e-14
3.49151e-13
-6.4639e-14
3.8785e-13
-7.15152e-14
4.11338e-13
-7.10856e-14
4.12562e-13
-6.5351e-14
3.8861e-13
-5.64479e-14
3.41125e-13
-4.70197e-14
2.75201e-13
-4.02451e-14
1.97873e-13
-3.94307e-14
1.16556e-13
-4.72645e-14
3.75113e-14
-6.48865e-14
-3.52323e-14
-9.11577e-14
-9.99576e-14
-1.22614e-13
-1.56372e-13
-1.54318e-13
-2.04577e-13
-1.8123e-13
-2.44716e-13
-1.99364e-13
-2.7723e-13
-2.06229e-13
-3.02963e-13
-2.007e-13
-3.22669e-13
-1.82749e-13
-3.36289e-13
-1.53342e-13
-3.42753e-13
-1.14398e-13
-3.40511e-13
-6.85853e-14
-3.28302e-13
-1.89278e-14
-3.05566e-13
3.15853e-14
-2.72421e-13
8.02377e-14
-2.2959e-13
1.24687e-13
-1.78534e-13
1.63059e-13
-1.21638e-13
1.94067e-13
-6.20784e-14
2.17082e-13
-3.30884e-15
2.32084e-13
5.15159e-14
2.39552e-13
9.98558e-14
2.40385e-13
1.39879e-13
2.35843e-13
1.706e-13
2.27398e-13
1.92155e-13
2.16413e-13
2.0597e-13
2.03777e-13
2.14517e-13
1.89725e-13
2.20689e-13
1.73977e-13
2.27136e-13
1.56038e-13
2.35913e-13
1.35409e-13
2.48408e-13
1.11531e-13
2.6527e-13
8.36071e-14
2.86122e-13
5.05437e-14
3.09194e-13
1.11778e-14
3.31222e-13
-3.52962e-14
3.47878e-13
-8.8933e-14
3.54629e-13
-1.48844e-13
3.47681e-13
-2.1321e-13
3.24644e-13
-2.7938e-13
2.84803e-13
-3.44006e-13
2.29092e-13
-4.03258e-13
1.59956e-13
-4.53243e-13
8.12126e-14
-4.90631e-13
-2.11076e-15
-5.13351e-13
-8.40297e-14
-5.21091e-13
-1.58039e-13
-5.15355e-13
-2.17779e-13
-4.99037e-13
-2.57949e-13
-4.75647e-13
-2.75323e-13
-4.48482e-13
-2.69606e-13
-4.20019e-13
-2.43644e-13
-3.91752e-13
-2.02698e-13
-3.64399e-13
-1.52815e-13
-3.38328e-13
-9.89588e-14
-3.13793e-13
-4.37304e-14
-2.90891e-13
1.2676e-14
-2.69093e-13
7.14096e-14
-2.46993e-13
1.33226e-13
-2.2237e-13
1.96716e-13
-1.93378e-13
2.56862e-13
-1.59851e-13
3.05197e-13
-1.24307e-13
3.32952e-13
-9.03646e-14
3.37318e-13
-5.98695e-14
3.26144e-13
-3.08179e-14
3.14085e-13
-4.90714e-16
3.07843e-13
2.9928e-14
2.93756e-13
5.63344e-14
2.51861e-13
7.74691e-14
1.92656e-13
8.89735e-14
1.51329e-13
7.9506e-14
1.5115e-13
7.74692e-14
3.18974e-14
1.02557e-13
7.04263e-14
-2.2887e-14
1.11604e-13
-8.94959e-14
1.7637e-13
-1.6669e-13
1.71857e-13
-2.29631e-13
1.70602e-13
-3.26049e-13
1.76778e-13
-3.69679e-13
1.65876e-13
-3.82907e-13
1.58486e-13
-3.48011e-13
1.64514e-13
-2.70503e-13
1.81319e-13
-1.96546e-13
1.99726e-13
-1.45246e-13
2.09277e-13
-1.03361e-13
2.01143e-13
-5.21971e-14
1.7253e-13
1.42247e-14
1.28413e-13
8.84251e-14
7.83596e-14
1.60282e-13
3.13154e-14
2.26018e-13
-7.6863e-15
2.86994e-13
-3.80134e-14
3.43279e-13
-6.16841e-14
3.9005e-13
-8.10704e-14
4.19282e-13
-9.73787e-14
4.23818e-13
-1.10602e-13
4.0033e-13
-1.2038e-13
3.50033e-13
-1.26897e-13
2.77971e-13
-1.31218e-13
1.91846e-13
-1.35139e-13
1.00621e-13
-1.4072e-13
1.27994e-14
-1.49622e-13
-6.53144e-14
-1.62358e-13
-1.30553e-13
-1.77853e-13
-1.82495e-13
-1.93653e-13
-2.22245e-13
-2.06774e-13
-2.51421e-13
-2.14632e-13
-2.71844e-13
-2.1552e-13
-2.85482e-13
-2.08531e-13
-2.94081e-13
-1.933e-13
-2.98501e-13
-1.69913e-13
-2.98387e-13
-1.39015e-13
-2.92539e-13
-1.0187e-13
-2.79667e-13
-6.0232e-14
-2.58945e-13
-1.61165e-14
-2.30108e-13
2.83904e-14
-1.93407e-13
7.12621e-14
-1.49728e-13
1.10693e-13
-1.00831e-13
1.45312e-13
-4.93042e-14
1.74333e-13
1.90004e-15
1.97524e-13
5.00612e-14
2.1504e-13
9.3013e-14
2.27292e-13
1.2913e-13
2.34918e-13
1.57306e-13
2.38772e-13
1.772e-13
2.39712e-13
1.89596e-13
2.38207e-13
1.9646e-13
2.33996e-13
2.0047e-13
2.26061e-13
2.04259e-13
2.12977e-13
2.09814e-13
1.9337e-13
2.18277e-13
1.66193e-13
2.29996e-13
1.30708e-13
2.44512e-13
8.63694e-14
2.60386e-13
3.28243e-14
2.75079e-13
-2.98475e-14
2.85188e-13
-1.00812e-13
2.871e-13
-1.78282e-13
2.7784e-13
-2.59541e-13
2.55695e-13
-3.4116e-13
2.204e-13
-4.1925e-13
1.72925e-13
-4.89731e-13
1.15127e-13
-5.48627e-13
4.95585e-14
-5.92477e-13
-2.04913e-14
-6.18834e-13
-9.08253e-14
-6.26716e-13
-1.5628e-13
-6.16817e-13
-2.11055e-13
-5.91359e-13
-2.49559e-13
-5.53574e-13
-2.67686e-13
-5.06975e-13
-2.64077e-13
-4.54664e-13
-2.40735e-13
-3.98905e-13
-2.02453e-13
-3.41188e-13
-1.55043e-13
-2.82658e-13
-1.03102e-13
-2.24763e-13
-4.84741e-14
-1.69536e-13
9.70613e-15
-1.19372e-13
7.33122e-14
-7.60558e-14
1.4271e-13
-4.00236e-14
2.14576e-13
-1.03129e-14
2.81364e-13
1.37448e-14
3.33399e-13
3.09197e-14
3.63485e-13
3.81564e-14
3.7153e-13
3.44055e-14
3.6529e-13
2.38586e-14
3.55299e-13
1.38288e-14
3.4563e-13
6.77044e-15
3.26465e-13
-1.9681e-15
2.80011e-13
-1.55313e-14
2.04594e-13
-3.20495e-14
1.46395e-13
-5.41754e-14
1.35301e-13
-5.32766e-14
-3.3444e-15
-1.16772e-14
5.04438e-15
-1.21045e-15
1.25749e-13
-6.74604e-14
1.92786e-13
-1.63852e-13
1.72643e-13
-2.34852e-13
1.49175e-13
-3.43269e-13
1.39517e-13
-3.79117e-13
1.27571e-13
-3.80702e-13
1.26097e-13
-3.36933e-13
1.40044e-13
-2.58376e-13
1.63961e-13
-1.92895e-13
1.87522e-13
-1.5826e-13
2.01095e-13
-1.35602e-13
1.97415e-13
-9.90573e-14
1.74562e-13
-3.83065e-14
1.37291e-13
3.87902e-14
9.40875e-14
1.18559e-13
5.26944e-14
1.9312e-13
1.70177e-14
2.61272e-13
-1.33864e-14
3.22653e-13
-4.15734e-14
3.73421e-13
-7.04157e-14
4.06632e-13
-1.0066e-13
4.15437e-13
-1.30786e-13
3.96005e-13
-1.58293e-13
3.48702e-13
-1.81131e-13
2.77835e-13
-1.98453e-13
1.90792e-13
-2.10644e-13
9.68686e-14
-2.19024e-13
5.62193e-15
-2.25367e-13
-7.51439e-14
-2.31267e-13
-1.40938e-13
-2.37474e-13
-1.90781e-13
-2.4359e-13
-2.2609e-13
-2.48342e-13
-2.49257e-13
-2.50197e-13
-2.62825e-13
-2.47823e-13
-2.69255e-13
-2.40177e-13
-2.70694e-13
-2.26388e-13
-2.68492e-13
-2.05781e-13
-2.62852e-13
-1.78087e-13
-2.53039e-13
-1.43664e-13
-2.38033e-13
-1.03515e-13
-2.17105e-13
-5.91377e-14
-1.89954e-13
-1.23588e-14
-1.56637e-13
3.48067e-14
-1.17645e-13
8.03566e-14
-7.4205e-14
1.226e-13
-2.83939e-14
1.60425e-13
1.72104e-14
1.93332e-13
6.01547e-14
2.21227e-13
9.85232e-14
2.44143e-13
1.30903e-13
2.62134e-13
1.56183e-13
2.75321e-13
1.73625e-13
2.83899e-13
1.83279e-13
2.87903e-13
1.86363e-13
2.86862e-13
1.85137e-13
2.79604e-13
1.82263e-13
2.64453e-13
1.80026e-13
2.39723e-13
1.79868e-13
2.04194e-13
1.82327e-13
1.57323e-13
1.87148e-13
9.91765e-14
1.93323e-13
3.03002e-14
1.99057e-13
-4.82593e-14
2.01883e-13
-1.34776e-13
1.99102e-13
-2.26665e-13
1.88449e-13
-3.20482e-13
1.68667e-13
-4.12151e-13
1.39687e-13
-4.97319e-13
1.02374e-13
-5.71712e-13
5.80819e-14
-6.31433e-13
8.37227e-15
-6.73213e-13
-4.49017e-14
-6.94691e-13
-9.9188e-14
-6.94694e-13
-1.50817e-13
-6.73464e-13
-1.94963e-13
-6.32717e-13
-2.26283e-13
-5.75464e-13
-2.40213e-13
-5.05574e-13
-2.34534e-13
-4.27156e-13
-2.10431e-13
-3.4396e-13
-1.72326e-13
-2.59011e-13
-1.2623e-13
-1.74754e-13
-7.72128e-14
-9.357e-14
-2.72507e-14
-1.84699e-14
2.52448e-14
4.68431e-14
8.36315e-14
9.86596e-14
1.49515e-13
1.34742e-13
2.19278e-13
1.55018e-13
2.83401e-13
1.60948e-13
3.30614e-13
1.53308e-13
3.55376e-13
1.3152e-13
3.62049e-13
9.57545e-14
3.60392e-13
5.08891e-14
3.55924e-13
5.86574e-15
3.45994e-13
-3.28772e-14
3.23143e-13
-6.68485e-14
2.79575e-13
-1.00159e-13
2.03124e-13
-1.3253e-13
1.41359e-13
-1.62827e-13
1.27685e-13
-1.57444e-13
-2.13294e-14
-1.01609e-13
-4.3244e-14
1.13513e-14
1.26651e-13
-6.89193e-14
1.87289e-13
-1.84398e-13
1.55517e-13
-2.54846e-13
1.21719e-13
-3.60803e-13
1.07399e-13
-3.8195e-13
1.01373e-13
-3.68933e-13
1.07168e-13
-3.16461e-13
1.26049e-13
-2.38534e-13
1.51438e-13
-1.82725e-13
1.7266e-13
-1.64695e-13
1.81661e-13
-1.60487e-13
1.73776e-13
-1.38021e-13
1.48986e-13
-8.34051e-14
1.12286e-13
-5.03284e-15
7.13142e-14
7.99577e-14
3.27588e-14
1.59672e-13
-2.87144e-16
2.30482e-13
-2.91683e-14
2.92149e-13
-5.81126e-14
3.42738e-13
-9.12249e-14
3.7735e-13
-1.29907e-13
3.90016e-13
-1.72324e-13
3.76447e-13
-2.14729e-13
3.35813e-13
-2.53341e-13
2.71145e-13
-2.85531e-13
1.88821e-13
-3.10107e-13
9.75972e-14
-3.27128e-13
7.13914e-15
-3.3759e-13
-7.39691e-14
-3.42985e-13
-1.40117e-13
-3.44687e-13
-1.89408e-13
-3.4341e-13
-2.22883e-13
-3.39087e-13
-2.42996e-13
-3.31156e-13
-2.52465e-13
-3.18938e-13
-2.5386e-13
-3.01791e-13
-2.49474e-13
-2.79089e-13
-2.41022e-13
-2.50283e-13
-2.29289e-13
-2.1515e-13
-2.14171e-13
-1.74047e-13
-1.95174e-13
-1.27962e-13
-1.71944e-13
-7.83439e-14
-1.44415e-13
-2.69043e-14
-1.1266e-13
2.45147e-14
-7.68937e-14
7.40778e-14
-3.78085e-14
1.20205e-13
3.09461e-15
1.61856e-13
4.36248e-14
1.98628e-13
8.14765e-14
2.30521e-13
1.14784e-13
2.57536e-13
1.42223e-13
2.79404e-13
1.6275e-13
2.95624e-13
1.75456e-13
3.05658e-13
1.79875e-13
3.09015e-13
1.76522e-13
3.05095e-13
1.67139e-13
2.92969e-13
1.54349e-13
2.71372e-13
1.40869e-13
2.39025e-13
1.28798e-13
1.95091e-13
1.19286e-13
1.39488e-13
1.12583e-13
7.28986e-14
1.08204e-13
-3.41109e-15
1.05047e-13
-8.77299e-14
1.01501e-13
-1.7787e-13
9.57188e-14
-2.71025e-13
8.60623e-14
-3.637e-13
7.15503e-14
-4.51862e-13
5.20384e-14
-5.31286e-13
2.80264e-14
-5.9797e-13
2.50333e-16
-6.48473e-13
-3.06164e-14
-6.80121e-13
-6.38906e-14
-6.91109e-13
-9.84213e-14
-6.80577e-13
-1.3201e-13
-6.48713e-13
-1.61125e-13
-5.96873e-13
-1.81272e-13
-5.27659e-13
-1.88109e-13
-4.44823e-13
-1.79021e-13
-3.52932e-13
-1.54444e-13
-2.56741e-13
-1.18153e-13
-1.60535e-13
-7.60372e-14
-6.77257e-14
-3.36151e-14
1.89299e-14
6.62221e-15
9.66885e-14
4.65252e-14
1.62175e-13
9.09887e-14
2.11685e-13
1.43847e-13
2.42251e-13
2.02888e-13
2.52976e-13
2.58022e-13
2.44941e-13
2.96561e-13
2.20145e-13
3.13467e-13
1.80277e-13
3.16874e-13
1.27687e-13
3.19707e-13
6.72103e-14
3.24682e-13
6.65986e-15
3.21547e-13
-4.71219e-14
3.01317e-13
-9.29006e-14
2.6485e-13
-1.33258e-13
1.946e-13
-1.71033e-13
1.3962e-13
-2.06309e-13
1.29348e-13
-2.00696e-13
-1.98517e-14
-1.41682e-13
-6.31358e-14
1.83604e-14
1.17204e-13
-8.77862e-14
1.674e-13
-2.1659e-13
1.35776e-13
-2.77981e-13
1.07854e-13
-3.71274e-13
9.92973e-14
-3.76775e-13
1.01977e-13
-3.51125e-13
1.12049e-13
-2.93297e-13
1.29365e-13
-2.19901e-13
1.48181e-13
-1.76213e-13
1.58724e-13
-1.74845e-13
1.55478e-13
-1.87264e-13
1.37371e-13
-1.76617e-13
1.06649e-13
-1.26457e-13
6.8289e-14
-4.60136e-14
2.84586e-14
4.42236e-14
-7.62349e-15
1.28219e-13
-3.78314e-14
1.99655e-13
-6.42565e-14
2.58371e-13
-9.22328e-14
3.04884e-13
-1.27345e-13
3.37253e-13
-1.72369e-13
3.51269e-13
-2.26038e-13
3.42665e-13
-2.84066e-13
3.09479e-13
-3.41185e-13
2.53288e-13
-3.92772e-13
1.79168e-13
-4.35505e-13
9.48807e-14
-4.67387e-13
9.5701e-15
-4.87634e-13
-6.80759e-14
-4.96509e-13
-1.31789e-13
-4.9495e-13
-1.78846e-13
-4.8406e-13
-2.09698e-13
-4.64764e-13
-2.26557e-13
-4.37821e-13
-2.32074e-13
-4.04002e-13
-2.28787e-13
-3.64146e-13
-2.19054e-13
-3.19058e-13
-2.04906e-13
-2.69468e-13
-1.87693e-13
-2.16187e-13
-1.67933e-13
-1.60333e-13
-1.4562e-13
-1.03375e-13
-1.20707e-13
-4.69298e-14
-9.32959e-14
7.48774e-15
-6.34712e-14
5.85716e-14
-3.12093e-14
1.05226e-13
3.3116e-15
1.46627e-13
3.91905e-14
1.82396e-13
7.46218e-14
2.12701e-13
1.07313e-13
2.38061e-13
1.35163e-13
2.58883e-13
1.56643e-13
2.75035e-13
1.70679e-13
2.85776e-13
1.76399e-13
2.90035e-13
1.73215e-13
2.86801e-13
1.61308e-13
2.75294e-13
1.42082e-13
2.54902e-13
1.1812e-13
2.25075e-13
9.25469e-14
1.85403e-13
6.81804e-14
1.35884e-13
4.69246e-14
7.71568e-14
2.96323e-14
1.05351e-14
1.6297e-14
-6.2198e-14
6.32149e-15
-1.39034e-13
-1.27099e-15
-2.17832e-13
-7.64366e-15
-2.96234e-13
-1.39021e-14
-3.71515e-13
-2.08413e-14
-4.4059e-13
-2.88287e-14
-5.00233e-13
-3.79216e-14
-5.47445e-13
-4.81433e-14
-5.79813e-13
-5.96824e-14
-5.95708e-13
-7.27983e-14
-5.94298e-13
-8.73917e-14
-5.75444e-13
-1.02447e-13
-5.396e-13
-1.15691e-13
-4.87828e-13
-1.23785e-13
-4.21957e-13
-1.2317e-13
-3.44777e-13
-1.11373e-13
-2.6005e-13
-8.82894e-14
-1.72162e-13
-5.67594e-14
-8.53832e-14
-2.18963e-14
-3.13622e-15
1.09439e-14
7.23003e-14
3.89188e-14
1.39263e-13
6.37634e-14
1.95876e-13
9.12982e-14
2.3956e-13
1.27373e-13
2.67638e-13
1.71781e-13
2.78222e-13
2.15322e-13
2.70837e-13
2.45003e-13
2.46143e-13
2.55935e-13
2.0608e-13
2.57855e-13
1.54127e-13
2.65731e-13
9.56309e-14
2.80881e-13
3.68438e-14
2.87717e-13
-1.70656e-14
2.74541e-13
-6.46902e-14
2.46666e-13
-1.06603e-13
1.82022e-13
-1.45983e-13
1.3793e-13
-1.85402e-13
1.31825e-13
-1.84217e-13
-7.57445e-15
-1.32771e-13
-5.64189e-14
2.17051e-14
9.6209e-14
-1.12395e-13
1.32747e-13
-2.45317e-13
1.14223e-13
-2.94062e-13
1.06719e-13
-3.72141e-13
1.11914e-13
-3.67241e-13
1.2439e-13
-3.34771e-13
1.36847e-13
-2.76648e-13
1.49633e-13
-2.11874e-13
1.58906e-13
-1.81929e-13
1.56671e-13
-1.95395e-13
1.40687e-13
-2.20388e-13
1.13794e-13
-2.1728e-13
8.01533e-14
-1.68501e-13
4.37538e-14
-8.42629e-14
8.31282e-15
1.19167e-14
-2.30869e-14
1.0001e-13
-4.93371e-14
1.70674e-13
-7.28495e-14
2.2351e-13
-9.93683e-14
2.61617e-13
-1.35505e-13
2.86802e-13
-1.85436e-13
2.97705e-13
-2.48979e-13
2.91024e-13
-3.21928e-13
2.64205e-13
-3.97943e-13
2.17554e-13
-4.70468e-13
1.54796e-13
-5.33828e-13
8.24488e-14
-5.8358e-13
8.59823e-15
-6.1667e-13
-5.87393e-14
-6.31564e-13
-1.13459e-13
-6.28186e-13
-1.52653e-13
-6.07567e-13
-1.76557e-13
-5.71435e-13
-1.87313e-13
-5.21992e-13
-1.87566e-13
-4.61864e-13
-1.79784e-13
-3.93963e-13
-1.6625e-13
-3.21183e-13
-1.49079e-13
-2.46129e-13
-1.29909e-13
-1.71088e-13
-1.09586e-13
-9.81901e-14
-8.8247e-14
-2.94826e-14
-6.57607e-14
3.32417e-14
-4.20341e-14
8.87024e-14
-1.69452e-14
1.36226e-13
9.80752e-15
1.75619e-13
3.84802e-14
2.07014e-13
6.86829e-14
2.30864e-13
9.89236e-14
2.48016e-13
1.26785e-13
2.59607e-13
1.49647e-13
2.66667e-13
1.65392e-13
2.69613e-13
1.72632e-13
2.68e-13
1.70544e-13
2.60739e-13
1.58764e-13
2.4661e-13
1.37639e-13
2.24727e-13
1.0864e-13
1.94719e-13
7.44867e-14
1.5667e-13
3.86812e-14
1.11035e-13
4.64618e-15
5.86712e-14
-2.50754e-14
9.31092e-16
-4.9168e-14
-6.03585e-14
-6.7398e-14
-1.23103e-13
-8.0211e-14
-1.85238e-13
-8.83508e-14
-2.44927e-13
-9.26234e-14
-3.0054e-13
-9.37858e-14
-3.50478e-13
-9.25045e-14
-3.93024e-13
-8.93793e-14
-4.26381e-13
-8.50443e-14
-4.48911e-13
-8.02917e-14
-4.5946e-13
-7.60869e-14
-4.57583e-13
-7.33607e-14
-4.43557e-13
-7.25945e-14
-4.18185e-13
-7.33815e-14
-3.82503e-13
-7.42188e-14
-3.37583e-13
-7.27185e-14
-2.84567e-13
-6.62568e-14
-2.2495e-13
-5.29048e-14
-1.60922e-13
-3.23576e-14
-9.5406e-14
-6.50715e-15
-3.15931e-14
2.07513e-14
2.79494e-14
4.48336e-14
8.19346e-14
6.28715e-14