/*--------------------------------*- C++ -*----------------------------------*\
| =========                 |                                                 |
| \\      /  F ield         | OpenFOAM: The Open Source CFD Toolbox           |
|  \\    /   O peration     | Version:  2406                                  |
|   \\  /    A nd           | Website:  www.openfoam.com                      |
|    \\/     M anipulation  |                                                 |
\*---------------------------------------------------------------------------*/
FoamFile
{
    version     2.0;
    format      ascii;
    arch        "LSB;label=32;scalar=64";
    class       volVectorField;
    location    "3";
    object      U;
}
// * * * * * * * * * * * * * * * * * * * * * * * * * * * * * * * * * * * * * //

dimensions      [0 1 -1 0 0 0 0];

internalField   nonuniform List<vector> 
10000
(
(-5.77991e-10 2.53319e-10 0)
(-1.30303e-09 5.11264e-10 0)
(-1.12518e-09 2.11971e-10 0)
(-1.39015e-09 2.68705e-11 0)
(-1.65562e-09 1.88416e-10 0)
(-1.50035e-09 1.36427e-10 0)
(-1.42461e-09 -6.85421e-11 0)
(-1.62232e-09 -2.68503e-10 0)
(-1.92079e-09 -4.05019e-10 0)
(-2.01138e-09 -4.40627e-10 0)
(-1.73363e-09 -3.72661e-10 0)
(-1.13404e-09 -2.32328e-10 0)
(-3.87195e-10 -5.51949e-11 0)
(3.37438e-10 1.33121e-10 0)
(9.60015e-10 3.16613e-10 0)
(1.47917e-09 4.76042e-10 0)
(1.92348e-09 5.89406e-10 0)
(2.31247e-09 6.39385e-10 0)
(2.63542e-09 6.22154e-10 0)
(2.85012e-09 5.49538e-10 0)
(2.90929e-09 4.47648e-10 0)
(2.79651e-09 3.46925e-10 0)
(2.54157e-09 2.69102e-10 0)
(2.20294e-09 2.20869e-10 0)
(1.83607e-09 2.00609e-10 0)
(1.472e-09 2.08436e-10 0)
(1.11482e-09 2.48868e-10 0)
(7.52423e-10 3.24925e-10 0)
(3.70917e-10 4.31929e-10 0)
(-3.51951e-11 5.57142e-10 0)
(-4.60667e-10 6.84443e-10 0)
(-8.93746e-10 7.98619e-10 0)
(-1.3218e-09 8.85947e-10 0)
(-1.7336e-09 9.33077e-10 0)
(-2.11751e-09 9.28345e-10 0)
(-2.45902e-09 8.66463e-10 0)
(-2.74099e-09 7.52504e-10 0)
(-2.9465e-09 6.00872e-10 0)
(-3.06177e-09 4.29347e-10 0)
(-3.07706e-09 2.53061e-10 0)
(-2.98626e-09 8.25602e-11 0)
(-2.78715e-09 -7.39464e-11 0)
(-2.48292e-09 -2.07808e-10 0)
(-2.08325e-09 -3.09627e-10 0)
(-1.60378e-09 -3.71596e-10 0)
(-1.06445e-09 -3.90241e-10 0)
(-4.8872e-10 -3.67596e-10 0)
(9.54046e-11 -3.10376e-10 0)
(6.54609e-10 -2.2789e-10 0)
(1.15243e-09 -1.29588e-10 0)
(1.55508e-09 -2.31251e-11 0)
(1.83867e-09 8.61219e-11 0)
(1.99449e-09 1.93731e-10 0)
(2.03053e-09 2.94125e-10 0)
(1.96954e-09 3.79838e-10 0)
(1.84491e-09 4.4347e-10 0)
(1.69549e-09 4.8114e-10 0)
(1.55976e-09 4.94495e-10 0)
(1.47019e-09 4.89337e-10 0)
(1.44855e-09 4.71971e-10 0)
(1.50279e-09 4.46301e-10 0)
(1.62577e-09 4.13703e-10 0)
(1.79549e-09 3.7485e-10 0)
(1.97713e-09 3.30897e-10 0)
(2.12743e-09 2.82483e-10 0)
(2.20143e-09 2.27561e-10 0)
(2.16087e-09 1.60532e-10 0)
(1.98223e-09 7.41854e-11 0)
(1.66217e-09 -3.64714e-11 0)
(1.21901e-09 -1.70991e-10 0)
(6.90045e-10 -3.22859e-10 0)
(1.25668e-10 -4.81466e-10 0)
(-4.18358e-10 -6.34935e-10 0)
(-8.8913e-10 -7.71905e-10 0)
(-1.24432e-09 -8.81579e-10 0)
(-1.45849e-09 -9.52892e-10 0)
(-1.52689e-09 -9.74382e-10 0)
(-1.46597e-09 -9.35769e-10 0)
(-1.30961e-09 -8.31404e-10 0)
(-1.1017e-09 -6.64027e-10 0)
(-8.85582e-10 -4.47443e-10 0)
(-6.94207e-10 -2.05318e-10 0)
(-5.42549e-10 3.33041e-11 0)
(-4.2787e-10 2.42713e-10 0)
(-3.34797e-10 4.06877e-10 0)
(-2.4795e-10 5.23894e-10 0)
(-1.60388e-10 5.99513e-10 0)
(-8.1595e-11 6.40181e-10 0)
(-3.07148e-11 6.39286e-10 0)
(-2.96509e-11 5.79836e-10 0)
(-8.32309e-11 4.39158e-10 0)
(-1.74182e-10 2.18027e-10 0)
(-2.59199e-10 -4.84107e-11 0)
(-2.96e-10 -2.86054e-10 0)
(-2.57898e-10 -4.40253e-10 0)
(-1.46748e-10 -5.27459e-10 0)
(6.26596e-11 -6.42318e-10 0)
(4.05255e-10 -7.77814e-10 0)
(8.22889e-10 -6.74219e-10 0)
(5.35994e-10 -3.01377e-10 0)
(-9.78717e-10 6.59026e-10 0)
(-2.28709e-09 1.19331e-09 0)
(-2.07812e-09 6.79109e-10 0)
(-2.23074e-09 9.2839e-11 0)
(-2.38855e-09 1.33715e-10 0)
(-2.30272e-09 1.31797e-10 0)
(-2.45446e-09 -1.23634e-10 0)
(-2.91945e-09 -5.00347e-10 0)
(-3.29718e-09 -7.7016e-10 0)
(-3.19909e-09 -7.60822e-10 0)
(-2.56934e-09 -4.92116e-10 0)
(-1.56575e-09 -8.99305e-11 0)
(-4.21645e-10 3.3504e-10 0)
(6.7161e-10 7.38162e-10 0)
(1.61981e-09 1.10306e-09 0)
(2.41282e-09 1.40414e-09 0)
(3.07462e-09 1.59674e-09 0)
(3.62465e-09 1.64213e-09 0)
(4.05083e-09 1.52754e-09 0)
(4.30967e-09 1.27765e-09 0)
(4.35438e-09 9.47644e-10 0)
(4.17378e-09 6.05077e-10 0)
(3.80795e-09 3.04701e-10 0)
(3.32978e-09 7.50291e-11 0)
(2.80907e-09 -7.82855e-11 0)
(2.28622e-09 -1.58101e-10 0)
(1.767e-09 -1.65581e-10 0)
(1.23511e-09 -9.97171e-11 0)
(6.70921e-10 3.60297e-11 0)
(6.59962e-11 2.2789e-10 0)
(-5.72943e-10 4.51479e-10 0)
(-1.22929e-09 6.76849e-10 0)
(-1.88426e-09 8.74924e-10 0)
(-2.51998e-09 1.02184e-09 0)
(-3.11692e-09 1.10106e-09 0)
(-3.65036e-09 1.10467e-09 0)
(-4.09125e-09 1.03471e-09 0)
(-4.41149e-09 9.02811e-10 0)
(-4.58946e-09 7.27412e-10 0)
(-4.61174e-09 5.29069e-10 0)
(-4.47165e-09 3.26863e-10 0)
(-4.16756e-09 1.37267e-10 0)
(-3.70385e-09 -2.50655e-11 0)
(-3.09324e-09 -1.47208e-10 0)
(-2.35857e-09 -2.19904e-10 0)
(-1.53256e-09 -2.40826e-10 0)
(-6.56293e-10 -2.16562e-10 0)
(2.22507e-10 -1.61396e-10 0)
(1.05207e-09 -9.29391e-11 0)
(1.78115e-09 -2.66231e-11 0)
(2.36582e-09 2.84955e-11 0)
(2.77664e-09 7.09593e-11 0)
(3.00404e-09 1.04997e-10 0)
(3.06046e-09 1.36755e-10 0)
(2.97928e-09 1.70813e-10 0)
(2.81072e-09 2.08792e-10 0)
(2.6144e-09 2.50344e-10 0)
(2.44951e-09 2.9506e-10 0)
(2.36429e-09 3.43286e-10 0)
(2.38793e-09 3.94944e-10 0)
(2.5264e-09 4.47301e-10 0)
(2.76206e-09 4.93484e-10 0)
(3.05572e-09 5.22884e-10 0)
(3.35052e-09 5.23061e-10 0)
(3.57833e-09 4.81942e-10 0)
(3.66988e-09 3.89447e-10 0)
(3.56774e-09 2.38682e-10 0)
(3.23921e-09 2.73104e-11 0)
(2.68499e-09 -2.40756e-10 0)
(1.94067e-09 -5.54119e-10 0)
(1.07093e-09 -8.94217e-10 0)
(1.58741e-10 -1.23769e-09 0)
(-7.0725e-10 -1.55997e-09 0)
(-1.44491e-09 -1.83861e-09 0)
(-1.98936e-09 -2.05493e-09 0)
(-2.30154e-09 -2.19397e-09 0)
(-2.37445e-09 -2.24375e-09 0)
(-2.23451e-09 -2.19557e-09 0)
(-1.93757e-09 -2.0459e-09 0)
(-1.55685e-09 -1.80005e-09 0)
(-1.16685e-09 -1.47453e-09 0)
(-8.23638e-10 -1.09806e-09 0)
(-5.53444e-10 -7.06194e-10 0)
(-3.47808e-10 -3.35511e-10 0)
(-1.78167e-10 -1.21562e-11 0)
(-1.16482e-11 2.49915e-10 0)
(1.61537e-10 4.52925e-10 0)
(3.24508e-10 5.99378e-10 0)
(4.29278e-10 6.87786e-10 0)
(4.32766e-10 6.93086e-10 0)
(3.18311e-10 5.87412e-10 0)
(1.40028e-10 3.51934e-10 0)
(-6.52657e-12 3.19772e-11 0)
(-3.08308e-11 -2.74323e-10 0)
(5.10662e-11 -4.48483e-10 0)
(1.67658e-10 -5.04102e-10 0)
(3.25799e-10 -5.75864e-10 0)
(7.49875e-10 -7.77983e-10 0)
(1.22939e-09 -7.74769e-10 0)
(7.61989e-10 -4.77843e-10 0)
(-7.87355e-10 6.22395e-10 0)
(-2.09644e-09 1.17634e-09 0)
(-2.20316e-09 9.45369e-10 0)
(-2.36641e-09 5.95211e-10 0)
(-2.41458e-09 5.98609e-10 0)
(-2.49667e-09 4.81151e-10 0)
(-2.85407e-09 1.48481e-10 0)
(-3.38243e-09 -2.09387e-10 0)
(-3.62721e-09 -3.632e-10 0)
(-3.31915e-09 -2.1773e-10 0)
(-2.53325e-09 1.39671e-10 0)
(-1.45077e-09 5.58512e-10 0)
(-2.58376e-10 9.56509e-10 0)
(8.78001e-10 1.3125e-09 0)
(1.8533e-09 1.6212e-09 0)
(2.62755e-09 1.84762e-09 0)
(3.21674e-09 1.94085e-09 0)
(3.66065e-09 1.86405e-09 0)
(3.98403e-09 1.62392e-09 0)
(4.17245e-09 1.26734e-09 0)
(4.19005e-09 8.63353e-10 0)
(4.01757e-09 4.75651e-10 0)
(3.67706e-09 1.45523e-10 0)
(3.22433e-09 -1.13542e-10 0)
(2.72262e-09 -3.06273e-10 0)
(2.21777e-09 -4.41892e-10 0)
(1.72672e-09 -5.23464e-10 0)
(1.24e-09 -5.46909e-10 0)
(7.34676e-10 -5.07264e-10 0)
(1.90843e-10 -4.06953e-10 0)
(-3.96454e-10 -2.59249e-10 0)
(-1.01592e-09 -8.48117e-11 0)
(-1.6473e-09 9.5483e-11 0)
(-2.26922e-09 2.65965e-10 0)
(-2.8607e-09 4.16833e-10 0)
(-3.39775e-09 5.42094e-10 0)
(-3.85133e-09 6.3796e-10 0)
(-4.19111e-09 7.03503e-10 0)
(-4.39204e-09 7.41675e-10 0)
(-4.43836e-09 7.59132e-10 0)
(-4.32271e-09 7.64276e-10 0)
(-4.04352e-09 7.6529e-10 0)
(-3.60507e-09 7.68755e-10 0)
(-3.02049e-09 7.78685e-10 0)
(-2.31471e-09 7.94874e-10 0)
(-1.52399e-09 8.11194e-10 0)
(-6.92398e-10 8.15432e-10 0)
(1.32428e-10 7.92065e-10 0)
(9.02943e-10 7.27266e-10 0)
(1.57553e-09 6.13938e-10 0)
(2.11558e-09 4.54655e-10 0)
(2.50282e-09 2.61783e-10 0)
(2.73478e-09 5.52645e-11 0)
(2.82717e-09 -1.41201e-10 0)
(2.81185e-09 -3.04764e-10 0)
(2.73354e-09 -4.17768e-10 0)
(2.64497e-09 -4.70492e-10 0)
(2.59927e-09 -4.61538e-10 0)
(2.6398e-09 -3.96378e-10 0)
(2.7902e-09 -2.85589e-10 0)
(3.04827e-09 -1.43997e-10 0)
(3.38562e-09 9.40938e-12 0)
(3.75217e-09 1.52051e-10 0)
(4.0831e-09 2.59962e-10 0)
(4.307e-09 3.11466e-10 0)
(4.3555e-09 2.9096e-10 0)
(4.17467e-09 1.91297e-10 0)
(3.73682e-09 1.41238e-11 0)
(3.04905e-09 -2.31368e-10 0)
(2.1551e-09 -5.30401e-10 0)
(1.12931e-09 -8.6472e-10 0)
(6.46526e-11 -1.21471e-09 0)
(-9.41227e-10 -1.5615e-09 0)
(-1.7988e-09 -1.88867e-09 0)
(-2.43682e-09 -2.18311e-09 0)
(-2.81048e-09 -2.43448e-09 0)
(-2.90718e-09 -2.63421e-09 0)
(-2.74974e-09 -2.77426e-09 0)
(-2.39306e-09 -2.84752e-09 0)
(-1.91484e-09 -2.8486e-09 0)
(-1.3968e-09 -2.77671e-09 0)
(-9.0647e-10 -2.63565e-09 0)
(-4.78007e-10 -2.43589e-09 0)
(-1.1136e-10 -2.18946e-09 0)
(2.23465e-10 -1.9107e-09 0)
(5.56176e-10 -1.60665e-09 0)
(8.99616e-10 -1.28439e-09 0)
(1.21865e-09 -9.44348e-10 0)
(1.4485e-09 -6.02882e-10 0)
(1.50671e-09 -2.81213e-10 0)
(1.37106e-09 -2.20584e-11 0)
(1.10289e-09 1.53864e-10 0)
(8.68395e-10 2.39652e-10 0)
(8.01349e-10 2.84701e-10 0)
(8.91234e-10 3.40039e-10 0)
(9.44922e-10 4.47319e-10 0)
(8.8198e-10 5.37518e-10 0)
(9.93046e-10 5.88578e-10 0)
(1.2612e-09 6.39467e-10 0)
(6.07505e-10 3.98469e-10 0)
(-6.7181e-10 8.2794e-10 0)
(-1.57533e-09 1.29516e-09 0)
(-2.03635e-09 1.12705e-09 0)
(-2.42281e-09 9.66509e-10 0)
(-2.57653e-09 9.38338e-10 0)
(-2.81177e-09 7.4471e-10 0)
(-3.2571e-09 4.11223e-10 0)
(-3.67232e-09 1.63662e-10 0)
(-3.6524e-09 1.70309e-10 0)
(-3.091e-09 4.58508e-10 0)
(-2.18263e-09 8.89832e-10 0)
(-1.09024e-09 1.30867e-09 0)
(6.35892e-11 1.62912e-09 0)
(1.15206e-09 1.84382e-09 0)
(2.05923e-09 1.96151e-09 0)
(2.72876e-09 1.9812e-09 0)
(3.17919e-09 1.88885e-09 0)
(3.48252e-09 1.68774e-09 0)
(3.70111e-09 1.40719e-09 0)
(3.845e-09 1.09999e-09 0)
(3.87741e-09 8.20816e-10 0)
(3.75927e-09 6.09903e-10 0)
(3.48599e-09 4.80871e-10 0)
(3.09336e-09 4.22688e-10 0)
(2.63683e-09 4.08324e-10 0)
(2.16541e-09 4.08314e-10 0)
(1.70381e-09 4.00834e-10 0)
(1.2486e-09 3.76781e-10 0)
(7.77599e-10 3.38035e-10 0)
(2.6702e-10 2.92045e-10 0)
(-2.9325e-10 2.46388e-10 0)
(-8.94696e-10 2.06904e-10 0)
(-1.51635e-09 1.79279e-10 0)
(-2.13413e-09 1.70748e-10 0)
(-2.72474e-09 1.89272e-10 0)
(-3.26306e-09 2.40264e-10 0)
(-3.71937e-09 3.24289e-10 0)
(-4.062e-09 4.37491e-10 0)
(-4.26416e-09 5.74508e-10 0)
(-4.30896e-09 7.30661e-10 0)
(-4.18936e-09 9.02117e-10 0)
(-3.90547e-09 1.08411e-09 0)
(-3.46409e-09 1.26947e-09 0)
(-2.88171e-09 1.44814e-09 0)
(-2.18748e-09 1.60767e-09 0)
(-1.42207e-09 1.73384e-09 0)
(-6.32109e-10 1.81157e-09 0)
(1.36351e-10 1.82684e-09 0)
(8.42302e-10 1.76965e-09 0)
(1.45222e-09 1.63712e-09 0)
(1.9423e-09 1.43548e-09 0)
(2.30115e-09 1.18023e-09 0)
(2.53163e-09 8.94716e-10 0)
(2.65076e-09 6.07191e-10 0)
(2.68777e-09 3.46481e-10 0)
(2.68136e-09 1.36785e-10 0)
(2.67596e-09 -6.98986e-12 0)
(2.71551e-09 -8.16037e-11 0)
(2.83479e-09 -9.47942e-11 0)
(3.05016e-09 -6.24323e-11 0)
(3.35372e-09 -5.358e-12 0)
(3.71298e-09 5.28878e-11 0)
(4.07575e-09 8.77277e-11 0)
(4.37771e-09 7.57898e-11 0)
(4.551e-09 -1.64089e-12 0)
(4.53352e-09 -1.5477e-10 0)
(4.2792e-09 -3.828e-10 0)
(3.76821e-09 -6.74179e-10 0)
(3.01408e-09 -1.00955e-09 0)
(2.06479e-09 -1.36608e-09 0)
(9.96565e-10 -1.72153e-09 0)
(-9.7561e-11 -2.05703e-09 0)
(-1.12091e-09 -2.35854e-09 0)
(-1.98483e-09 -2.61732e-09 0)
(-2.61829e-09 -2.82978e-09 0)
(-2.97541e-09 -2.99679e-09 0)
(-3.04225e-09 -3.12213e-09 0)
(-2.84018e-09 -3.2108e-09 0)
(-2.42503e-09 -3.26643e-09 0)
(-1.87605e-09 -3.29032e-09 0)
(-1.27997e-09 -3.27951e-09 0)
(-7.06854e-10 -3.22937e-09 0)
(-1.96636e-10 -3.13287e-09 0)
(2.52059e-10 -2.98723e-09 0)
(6.64014e-10 -2.78936e-09 0)
(1.07336e-09 -2.54302e-09 0)
(1.48115e-09 -2.2465e-09 0)
(1.85204e-09 -1.90802e-09 0)
(2.09829e-09 -1.53182e-09 0)
(2.14421e-09 -1.142e-09 0)
(1.95791e-09 -7.44961e-10 0)
(1.63064e-09 -3.48902e-10 0)
(1.31769e-09 6.61018e-11 0)
(1.1794e-09 4.69306e-10 0)
(1.21188e-09 8.08464e-10 0)
(1.2779e-09 1.01422e-09 0)
(1.23049e-09 1.16385e-09 0)
(1.29875e-09 1.39445e-09 0)
(1.35456e-09 1.70589e-09 0)
(5.79081e-10 1.19545e-09 0)
(-7.15115e-10 1.00756e-09 0)
(-1.47616e-09 1.35576e-09 0)
(-2.08553e-09 1.0999e-09 0)
(-2.5627e-09 1.09367e-09 0)
(-2.83323e-09 1.20551e-09 0)
(-3.15494e-09 1.07398e-09 0)
(-3.54127e-09 8.57273e-10 0)
(-3.74471e-09 7.61268e-10 0)
(-3.44935e-09 8.97518e-10 0)
(-2.69406e-09 1.22851e-09 0)
(-1.7453e-09 1.6099e-09 0)
(-7.38889e-10 1.8832e-09 0)
(2.84828e-10 1.97639e-09 0)
(1.24992e-09 1.8946e-09 0)
(2.05749e-09 1.69114e-09 0)
(2.64281e-09 1.41504e-09 0)
(3.02678e-09 1.1074e-09 0)
(3.29177e-09 8.01552e-10 0)
(3.5137e-09 5.34366e-10 0)
(3.70439e-09 3.38226e-10 0)
(3.81704e-09 2.36909e-10 0)
(3.79105e-09 2.36527e-10 0)
(3.59651e-09 3.23934e-10 0)
(3.24732e-09 4.6589e-10 0)
(2.78833e-09 6.16148e-10 0)
(2.27153e-09 7.25607e-10 0)
(1.73572e-09 7.55827e-10 0)
(1.19601e-09 6.89172e-10 0)
(6.46354e-10 5.32498e-10 0)
(7.28491e-11 3.11961e-10 0)
(-5.30309e-10 6.30206e-11 0)
(-1.15295e-09 -1.78534e-10 0)
(-1.77313e-09 -3.80918e-10 0)
(-2.36716e-09 -5.17327e-10 0)
(-2.91526e-09 -5.67523e-10 0)
(-3.3988e-09 -5.20906e-10 0)
(-3.79512e-09 -3.79164e-10 0)
(-4.07732e-09 -1.55031e-10 0)
(-4.22046e-09 1.32146e-10 0)
(-4.20839e-09 4.61548e-10 0)
(-4.03592e-09 8.13159e-10 0)
(-3.70693e-09 1.16761e-09 0)
(-3.23269e-09 1.5052e-09 0)
(-2.6332e-09 1.80646e-09 0)
(-1.93933e-09 2.05386e-09 0)
(-1.19176e-09 2.23358e-09 0)
(-4.35828e-10 2.33624e-09 0)
(2.8489e-10 2.35714e-09 0)
(9.33334e-10 2.2963e-09 0)
(1.48159e-09 2.15865e-09 0)
(1.91297e-09 1.95406e-09 0)
(2.22399e-09 1.69719e-09 0)
(2.42479e-09 1.40731e-09 0)
(2.53684e-09 1.10764e-09 0)
(2.58894e-09 8.23106e-10 0)
(2.61388e-09 5.75936e-10 0)
(2.64616e-09 3.80347e-10 0)
(2.71913e-09 2.38825e-10 0)
(2.85914e-09 1.42116e-10 0)
(3.07766e-09 7.26603e-11 0)
(3.36477e-09 9.18824e-12 0)
(3.68791e-09 -6.98391e-11 0)
(3.99668e-09 -1.84382e-10 0)
(4.2315e-09 -3.51204e-10 0)
(4.33301e-09 -5.81109e-10 0)
(4.25058e-09 -8.75349e-10 0)
(3.95007e-09 -1.22326e-09 0)
(3.42079e-09 -1.6032e-09 0)
(2.68044e-09 -1.98712e-09 0)
(1.77576e-09 -2.34715e-09 0)
(7.77582e-10 -2.66133e-09 0)
(-2.28893e-10 -2.91672e-09 0)
(-1.15579e-09 -3.10959e-09 0)
(-1.9236e-09 -3.24369e-09 0)
(-2.46987e-09 -3.32815e-09 0)
(-2.75642e-09 -3.37538e-09 0)
(-2.77429e-09 -3.39976e-09 0)
(-2.54702e-09 -3.4155e-09 0)
(-2.12736e-09 -3.43474e-09 0)
(-1.58934e-09 -3.46331e-09 0)
(-1.0102e-09 -3.4989e-09 0)
(-4.55079e-10 -3.52741e-09 0)
(4.25987e-11 -3.52868e-09 0)
(4.80017e-10 -3.47774e-09 0)
(8.86136e-10 -3.35895e-09 0)
(1.28853e-09 -3.16068e-09 0)
(1.69949e-09 -2.88776e-09 0)
(2.07244e-09 -2.5424e-09 0)
(2.33073e-09 -2.14495e-09 0)
(2.38486e-09 -1.70359e-09 0)
(2.23761e-09 -1.23412e-09 0)
(1.97299e-09 -7.05019e-10 0)
(1.73996e-09 -9.28051e-11 0)
(1.59182e-09 6.04553e-10 0)
(1.51022e-09 1.2403e-09 0)
(1.44302e-09 1.62871e-09 0)
(1.39762e-09 1.76097e-09 0)
(1.49733e-09 1.97014e-09 0)
(1.39184e-09 2.28343e-09 0)
(4.69406e-10 1.57321e-09 0)
(-5.06808e-10 8.71371e-10 0)
(-1.28228e-09 1.21449e-09 0)
(-1.95094e-09 1.0746e-09 0)
(-2.46975e-09 1.27687e-09 0)
(-2.89975e-09 1.58549e-09 0)
(-3.3575e-09 1.58456e-09 0)
(-3.71081e-09 1.48559e-09 0)
(-3.76355e-09 1.48047e-09 0)
(-3.29572e-09 1.62861e-09 0)
(-2.45375e-09 1.87985e-09 0)
(-1.56474e-09 2.09286e-09 0)
(-7.23263e-10 2.14014e-09 0)
(1.07545e-10 1.96081e-09 0)
(9.26745e-10 1.5922e-09 0)
(1.66059e-09 1.11917e-09 0)
(2.24134e-09 6.36198e-10 0)
(2.67034e-09 2.09283e-10 0)
(3.01674e-09 -1.19307e-10 0)
(3.34294e-09 -3.31006e-10 0)
(3.64893e-09 -4.20613e-10 0)
(3.87325e-09 -3.97193e-10 0)
(3.94085e-09 -2.80077e-10 0)
(3.80646e-09 -1.00892e-10 0)
(3.47102e-09 9.848e-11 0)
(2.97222e-09 2.68083e-10 0)
(2.3661e-09 3.58352e-10 0)
(1.70847e-09 3.312e-10 0)
(1.0412e-09 1.7242e-10 0)
(3.85932e-10 -1.02066e-10 0)
(-2.51847e-10 -4.49749e-10 0)
(-8.7132e-10 -8.14225e-10 0)
(-1.4659e-09 -1.13989e-09 0)
(-2.02189e-09 -1.38159e-09 0)
(-2.52499e-09 -1.50776e-09 0)
(-2.9659e-09 -1.50011e-09 0)
(-3.33841e-09 -1.35423e-09 0)
(-3.63273e-09 -1.08019e-09 0)
(-3.83209e-09 -7.01498e-10 0)
(-3.91654e-09 -2.50214e-10 0)
(-3.87044e-09 2.38911e-10 0)
(-3.68708e-09 7.3302e-10 0)
(-3.36863e-09 1.20273e-09 0)
(-2.92449e-09 1.6226e-09 0)
(-2.37176e-09 1.97188e-09 0)
(-1.73695e-09 2.23588e-09 0)
(-1.05565e-09 2.4069e-09 0)
(-3.68158e-10 2.48397e-09 0)
(2.86576e-10 2.47194e-09 0)
(8.75503e-10 2.3806e-09 0)
(1.3737e-09 2.22366e-09 0)
(1.76619e-09 2.01712e-09 0)
(2.05033e-09 1.77716e-09 0)
(2.23722e-09 1.51869e-09 0)
(2.34972e-09 1.25541e-09 0)
(2.41703e-09 1.00043e-09 0)
(2.46908e-09 7.65641e-10 0)
(2.53327e-09 5.58808e-10 0)
(2.63315e-09 3.79936e-10 0)
(2.7862e-09 2.19604e-10 0)
(2.99898e-09 6.09495e-11 0)
(3.26127e-09 -1.15667e-10 0)
(3.54342e-09 -3.27884e-10 0)
(3.79948e-09 -5.88332e-10 0)
(3.97559e-09 -9.03262e-10 0)
(4.02013e-09 -1.27144e-09 0)
(3.89243e-09 -1.68256e-09 0)
(3.56869e-09 -2.11621e-09 0)
(3.04555e-09 -2.54336e-09 0)
(2.34186e-09 -2.93131e-09 0)
(1.49852e-09 -3.25116e-09 0)
(5.75411e-10 -3.48485e-09 0)
(-3.54594e-10 -3.62903e-09 0)
(-1.21394e-09 -3.6943e-09 0)
(-1.92939e-09 -3.70089e-09 0)
(-2.44107e-09 -3.67256e-09 0)
(-2.7106e-09 -3.63165e-09 0)
(-2.72819e-09 -3.59588e-09 0)
(-2.51511e-09 -3.57804e-09 0)
(-2.12131e-09 -3.58552e-09 0)
(-1.61272e-09 -3.62073e-09 0)
(-1.05714e-09 -3.67701e-09 0)
(-5.04324e-10 -3.73813e-09 0)
(1.88717e-11 -3.77411e-09 0)
(5.15889e-10 -3.75144e-09 0)
(1.00131e-09 -3.63524e-09 0)
(1.49637e-09 -3.41057e-09 0)
(1.98839e-09 -3.07418e-09 0)
(2.43309e-09 -2.6515e-09 0)
(2.73408e-09 -2.16428e-09 0)
(2.82747e-09 -1.64847e-09 0)
(2.71763e-09 -1.10619e-09 0)
(2.54066e-09 -5.41118e-10 0)
(2.41153e-09 8.54655e-11 0)
(2.32402e-09 7.69104e-10 0)
(2.11667e-09 1.44396e-09 0)
(1.80376e-09 1.87092e-09 0)
(1.56341e-09 1.95649e-09 0)
(1.59015e-09 2.02991e-09 0)
(1.26585e-09 2.24983e-09 0)
(2.72238e-10 1.49438e-09 0)
(-2.30657e-10 8.32965e-10 0)
(-9.21626e-10 1.27372e-09 0)
(-1.62314e-09 1.2639e-09 0)
(-2.19094e-09 1.52665e-09 0)
(-2.81465e-09 1.86335e-09 0)
(-3.4334e-09 1.88058e-09 0)
(-3.77327e-09 1.8243e-09 0)
(-3.73918e-09 1.85002e-09 0)
(-3.18869e-09 1.98811e-09 0)
(-2.35501e-09 2.16282e-09 0)
(-1.58919e-09 2.25978e-09 0)
(-9.52484e-10 2.1661e-09 0)
(-3.20942e-10 1.8485e-09 0)
(3.73613e-10 1.35473e-09 0)
(1.09037e-09 7.93453e-10 0)
(1.74357e-09 2.6712e-10 0)
(2.30139e-09 -1.52483e-10 0)
(2.79669e-09 -4.38579e-10 0)
(3.26871e-09 -5.9172e-10 0)
(3.70157e-09 -6.30287e-10 0)
(4.02523e-09 -5.76762e-10 0)
(4.15657e-09 -4.57594e-10 0)
(4.0431e-09 -3.02645e-10 0)
(3.67942e-09 -1.48428e-10 0)
(3.10218e-09 -3.56132e-11 0)
(2.37496e-09 -4.37979e-12 0)
(1.57234e-09 -8.49438e-11 0)
(7.64025e-10 -2.87638e-10 0)
(1.61828e-12 -5.95636e-10 0)
(-6.87146e-10 -9.66332e-10 0)
(-1.29356e-09 -1.34203e-09 0)
(-1.8174e-09 -1.66517e-09 0)
(-2.25962e-09 -1.89032e-09 0)
(-2.62266e-09 -1.98853e-09 0)
(-2.91303e-09 -1.94635e-09 0)
(-3.13951e-09 -1.76356e-09 0)
(-3.30622e-09 -1.45246e-09 0)
(-3.40747e-09 -1.0366e-09 0)
(-3.42948e-09 -5.47801e-10 0)
(-3.35757e-09 -2.10655e-11 0)
(-3.18247e-09 5.0975e-10 0)
(-2.90201e-09 1.01452e-09 0)
(-2.52032e-09 1.46776e-09 0)
(-2.04807e-09 1.84959e-09 0)
(-1.50451e-09 2.14681e-09 0)
(-9.1797e-10 2.35348e-09 0)
(-3.22391e-10 2.47025e-09 0)
(2.48611e-10 2.50323e-09 0)
(7.66407e-10 2.46307e-09 0)
(1.20918e-09 2.36422e-09 0)
(1.56276e-09 2.2232e-09 0)
(1.82274e-09 2.05549e-09 0)
(1.99701e-09 1.87238e-09 0)
(2.1056e-09 1.67991e-09 0)
(2.17606e-09 1.48023e-09 0)
(2.23669e-09 1.27386e-09 0)
(2.31119e-09 1.06023e-09 0)
(2.41681e-09 8.35899e-10 0)
(2.5639e-09 5.92444e-10 0)
(2.75421e-09 3.16544e-10 0)
(2.9773e-09 -6.82691e-12 0)
(3.20786e-09 -3.89578e-10 0)
(3.40717e-09 -8.36502e-10 0)
(3.52981e-09 -1.34341e-09 0)
(3.53307e-09 -1.89695e-09 0)
(3.38536e-09 -2.475e-09 0)
(3.07086e-09 -3.04738e-09 0)
(2.59071e-09 -3.57793e-09 0)
(1.96195e-09 -4.02918e-09 0)
(1.21615e-09 -4.36927e-09 0)
(3.97947e-10 -4.57933e-09 0)
(-4.37043e-10 -4.6582e-09 0)
(-1.22554e-09 -4.62242e-09 0)
(-1.90223e-09 -4.50136e-09 0)
(-2.40753e-09 -4.32938e-09 0)
(-2.69774e-09 -4.13782e-09 0)
(-2.75442e-09 -3.94997e-09 0)
(-2.59091e-09 -3.77941e-09 0)
(-2.24877e-09 -3.63251e-09 0)
(-1.78737e-09 -3.51011e-09 0)
(-1.26289e-09 -3.41013e-09 0)
(-7.1547e-10 -3.32305e-09 0)
(-1.56875e-10 -3.23282e-09 0)
(4.16637e-10 -3.11086e-09 0)
(1.02026e-09 -2.92985e-09 0)
(1.64907e-09 -2.6644e-09 0)
(2.27841e-09 -2.31859e-09 0)
(2.83196e-09 -1.90999e-09 0)
(3.22448e-09 -1.48189e-09 0)
(3.37871e-09 -1.04771e-09 0)
(3.33059e-09 -6.16083e-10 0)
(3.19493e-09 -1.64195e-10 0)
(3.11499e-09 2.85157e-10 0)
(3.03655e-09 7.2897e-10 0)
(2.75839e-09 1.12962e-09 0)
(2.20679e-09 1.39068e-09 0)
(1.70414e-09 1.35966e-09 0)
(1.54276e-09 1.35327e-09 0)
(9.86708e-10 1.55229e-09 0)
(1.25422e-11 1.02929e-09 0)
(-6.27955e-11 9.96526e-10 0)
(-5.24212e-10 1.59514e-09 0)
(-1.28502e-09 1.603e-09 0)
(-1.97542e-09 1.71697e-09 0)
(-2.7957e-09 1.88649e-09 0)
(-3.53529e-09 1.81881e-09 0)
(-3.83493e-09 1.74038e-09 0)
(-3.71279e-09 1.77881e-09 0)
(-3.11123e-09 1.91953e-09 0)
(-2.31132e-09 2.08319e-09 0)
(-1.68397e-09 2.1563e-09 0)
(-1.2456e-09 2.05029e-09 0)
(-8.01233e-10 1.73123e-09 0)
(-2.09248e-10 1.25549e-09 0)
(5.09878e-10 7.21521e-10 0)
(1.2518e-09 2.28444e-10 0)
(1.94004e-09 -1.6863e-10 0)
(2.57101e-09 -4.55321e-10 0)
(3.16041e-09 -6.48728e-10 0)
(3.68649e-09 -7.71624e-10 0)
(4.07924e-09 -8.4272e-10 0)
(4.25657e-09 -8.72275e-10 0)
(4.16269e-09 -8.70274e-10 0)
(3.78758e-09 -8.5114e-10 0)
(3.16484e-09 -8.36518e-10 0)
(2.36102e-09 -8.51754e-10 0)
(1.46192e-09 -9.20438e-10 0)
(5.56979e-10 -1.05613e-09 0)
(-2.78591e-10 -1.25514e-09 0)
(-9.97578e-10 -1.49394e-09 0)
(-1.58333e-09 -1.73469e-09 0)
(-2.04063e-09 -1.93662e-09 0)
(-2.38373e-09 -2.06664e-09 0)
(-2.62979e-09 -2.10411e-09 0)
(-2.79788e-09 -2.03943e-09 0)
(-2.90715e-09 -1.87127e-09 0)
(-2.97132e-09 -1.60537e-09 0)
(-2.993e-09 -1.2549e-09 0)
(-2.96386e-09 -8.39647e-10 0)
(-2.87076e-09 -3.83652e-10 0)
(-2.70278e-09 8.80981e-11 0)
(-2.45445e-09 5.51674e-10 0)
(-2.12563e-09 9.85477e-10 0)
(-1.72172e-09 1.37139e-09 0)
(-1.25585e-09 1.69644e-09 0)
(-7.50174e-10 1.95381e-09 0)
(-2.33166e-10 2.14237e-09 0)
(2.66171e-10 2.26537e-09 0)
(7.23293e-10 2.32944e-09 0)
(1.11945e-09 2.34431e-09 0)
(1.44105e-09 2.3219e-09 0)
(1.68064e-09 2.27355e-09 0)
(1.84024e-09 2.20602e-09 0)
(1.93379e-09 2.11876e-09 0)
(1.98524e-09 2.00464e-09 0)
(2.02188e-09 1.85346e-09 0)
(2.06723e-09 1.65543e-09 0)
(2.13695e-09 1.40238e-09 0)
(2.23839e-09 1.08659e-09 0)
(2.37109e-09 6.99762e-10 0)
(2.52578e-09 2.34223e-10 0)
(2.68255e-09 -3.1372e-10 0)
(2.81119e-09 -9.40063e-10 0)
(2.8757e-09 -1.63114e-09 0)
(2.8422e-09 -2.3639e-09 0)
(2.68662e-09 -3.1076e-09 0)
(2.39902e-09 -3.82578e-09 0)
(1.98317e-09 -4.47869e-09 0)
(1.45357e-09 -5.02674e-09 0)
(8.32429e-10 -5.43579e-09 0)
(1.48937e-10 -5.68321e-09 0)
(-5.59501e-10 -5.76271e-09 0)
(-1.24589e-09 -5.68584e-09 0)
(-1.85464e-09 -5.4789e-09 0)
(-2.32759e-09 -5.1762e-09 0)
(-2.61459e-09 -4.81202e-09 0)
(-2.68725e-09 -4.41375e-09 0)
(-2.54839e-09 -3.99939e-09 0)
(-2.23373e-09 -3.57858e-09 0)
(-1.7981e-09 -3.15843e-09 0)
(-1.29688e-09 -2.74648e-09 0)
(-7.62152e-10 -2.35451e-09 0)
(-1.9994e-10 -1.99073e-09 0)
(4.08274e-10 -1.65892e-09 0)
(1.07351e-09 -1.34692e-09 0)
(1.78795e-09 -1.04398e-09 0)
(2.49171e-09 -7.41647e-10 0)
(3.10109e-09 -4.66712e-10 0)
(3.51553e-09 -2.46808e-10 0)
(3.70324e-09 -1.06254e-10 0)
(3.6941e-09 -1.62477e-12 0)
(3.60485e-09 1.04409e-10 0)
(3.51094e-09 2.27918e-10 0)
(3.3964e-09 3.0584e-10 0)
(3.06467e-09 3.35063e-10 0)
(2.41709e-09 2.94862e-10 0)
(1.74007e-09 1.32834e-10 0)
(1.43782e-09 1.18356e-10 0)
(6.89981e-10 4.47812e-10 0)
(-2.04145e-10 3.72604e-10 0)
(6.39661e-12 1.19633e-09 0)
(-2.55309e-10 1.8785e-09 0)
(-1.1493e-09 1.75942e-09 0)
(-1.99209e-09 1.62672e-09 0)
(-2.92419e-09 1.59685e-09 0)
(-3.68268e-09 1.46937e-09 0)
(-3.87295e-09 1.41854e-09 0)
(-3.63867e-09 1.51404e-09 0)
(-2.98077e-09 1.7188e-09 0)
(-2.22064e-09 1.92941e-09 0)
(-1.72354e-09 2.04992e-09 0)
(-1.47496e-09 1.99464e-09 0)
(-1.20665e-09 1.74319e-09 0)
(-7.19329e-10 1.34032e-09 0)
(-1.00443e-11 8.79027e-10 0)
(7.91163e-10 4.40089e-10 0)
(1.56831e-09 6.95878e-11 0)
(2.28089e-09 -2.33505e-10 0)
(2.93123e-09 -4.93443e-10 0)
(3.501e-09 -7.367e-10 0)
(3.93283e-09 -9.7137e-10 0)
(4.15168e-09 -1.18923e-09 0)
(4.10066e-09 -1.37493e-09 0)
(3.76189e-09 -1.51906e-09 0)
(3.16057e-09 -1.62254e-09 0)
(2.35762e-09 -1.69664e-09 0)
(1.43902e-09 -1.75872e-09 0)
(5.01414e-10 -1.82688e-09 0)
(-3.66471e-10 -1.91269e-09 0)
(-1.10256e-09 -2.01556e-09 0)
(-1.68043e-09 -2.12201e-09 0)
(-2.104e-09 -2.21118e-09 0)
(-2.39363e-09 -2.26269e-09 0)
(-2.57446e-09 -2.26133e-09 0)
(-2.67162e-09 -2.19716e-09 0)
(-2.70851e-09 -2.06344e-09 0)
(-2.70315e-09 -1.85643e-09 0)
(-2.66349e-09 -1.57696e-09 0)
(-2.58646e-09 -1.23208e-09 0)
(-2.46262e-09 -8.34559e-10 0)
(-2.28287e-09 -4.0124e-10 0)
(-2.04205e-09 4.87785e-11 0)
(-1.73892e-09 4.95429e-10 0)
(-1.37593e-09 9.19624e-10 0)
(-9.61419e-10 1.30584e-09 0)
(-5.1213e-10 1.6443e-09 0)
(-5.20609e-11 1.93095e-09 0)
(3.92917e-10 2.16562e-09 0)
(8.00773e-10 2.35001e-09 0)
(1.15519e-09 2.48719e-09 0)
(1.44383e-09 2.58181e-09 0)
(1.65731e-09 2.63907e-09 0)
(1.79176e-09 2.66136e-09 0)
(1.85334e-09 2.64464e-09 0)
(1.85986e-09 2.57724e-09 0)
(1.83673e-09 2.44278e-09 0)
(1.80937e-09 2.22519e-09 0)
(1.79666e-09 1.91263e-09 0)
(1.8084e-09 1.49857e-09 0)
(1.84587e-09 9.80661e-10 0)
(1.9028e-09 3.60125e-10 0)
(1.96517e-09 -3.57078e-10 0)
(2.01139e-09 -1.15767e-09 0)
(2.01496e-09 -2.01916e-09 0)
(1.95024e-09 -2.91005e-09 0)
(1.79909e-09 -3.79213e-09 0)
(1.55483e-09 -4.62365e-09 0)
(1.22182e-09 -5.36238e-09 0)
(8.11656e-10 -5.96849e-09 0)
(3.39105e-10 -6.40779e-09 0)
(-1.78971e-10 -6.6556e-09 0)
(-7.2101e-10 -6.70051e-09 0)
(-1.25618e-09 -6.54677e-09 0)
(-1.74175e-09 -6.21397e-09 0)
(-2.1257e-09 -5.73358e-09 0)
(-2.35684e-09 -5.14281e-09 0)
(-2.39939e-09 -4.4781e-09 0)
(-2.24764e-09 -3.76939e-09 0)
(-1.93016e-09 -3.03943e-09 0)
(-1.50215e-09 -2.30588e-09 0)
(-1.02117e-09 -1.5893e-09 0)
(-5.25633e-10 -9.15643e-10 0)
(-1.54302e-11 -3.1897e-10 0)
(5.34823e-10 1.73008e-10 0)
(1.15786e-09 5.43079e-10 0)
(1.84321e-09 7.99264e-10 0)
(2.52912e-09 9.48185e-10 0)
(3.0969e-09 9.93663e-10 0)
(3.46086e-09 9.09104e-10 0)
(3.60472e-09 6.98611e-10 0)
(3.62024e-09 3.9891e-10 0)
(3.58288e-09 1.07612e-10 0)
(3.52534e-09 -1.42496e-10 0)
(3.37835e-09 -3.70375e-10 0)
(3.04775e-09 -6.28236e-10 0)
(2.40667e-09 -8.85845e-10 0)
(1.71636e-09 -1.15935e-09 0)
(1.37381e-09 -1.12233e-09 0)
(5.3355e-10 -6.24623e-10 0)
(-2.89249e-10 -2.19245e-10 0)
(4.51794e-11 1.27872e-09 0)
(-1.61402e-10 1.93032e-09 0)
(-1.26323e-09 1.65873e-09 0)
(-2.2105e-09 1.35138e-09 0)
(-3.12715e-09 1.2134e-09 0)
(-3.78849e-09 1.11609e-09 0)
(-3.82516e-09 1.137e-09 0)
(-3.46578e-09 1.30846e-09 0)
(-2.7668e-09 1.56294e-09 0)
(-2.0592e-09 1.79858e-09 0)
(-1.70036e-09 1.9214e-09 0)
(-1.6337e-09 1.8746e-09 0)
(-1.53556e-09 1.64384e-09 0)
(-1.15032e-09 1.28078e-09 0)
(-4.62768e-10 8.63573e-10 0)
(3.77012e-10 4.66713e-10 0)
(1.21025e-09 1.23381e-10 0)
(1.96367e-09 -1.74121e-10 0)
(2.62682e-09 -4.63026e-10 0)
(3.19433e-09 -7.7661e-10 0)
(3.63012e-09 -1.12485e-09 0)
(3.87528e-09 -1.48914e-09 0)
(3.87426e-09 -1.83755e-09 0)
(3.60006e-09 -2.14042e-09 0)
(3.06453e-09 -2.38078e-09 0)
(2.31689e-09 -2.5553e-09 0)
(1.43521e-09 -2.67208e-09 0)
(5.14094e-10 -2.74645e-09 0)
(-3.52982e-10 -2.79549e-09 0)
(-1.09382e-09 -2.83137e-09 0)
(-1.67132e-09 -2.85673e-09 0)
(-2.08287e-09 -2.86525e-09 0)
(-2.34765e-09 -2.84613e-09 0)
(-2.49239e-09 -2.78846e-09 0)
(-2.54368e-09 -2.68257e-09 0)
(-2.52599e-09 -2.51954e-09 0)
(-2.45974e-09 -2.29169e-09 0)
(-2.35768e-09 -1.99511e-09 0)
(-2.22299e-09 -1.63207e-09 0)
(-2.05213e-09 -1.21155e-09 0)
(-1.84053e-09 -7.47714e-10 0)
(-1.58614e-09 -2.58164e-10 0)
(-1.28906e-09 2.37532e-10 0)
(-9.5048e-10 7.19577e-10 0)
(-5.74512e-10 1.17091e-09 0)
(-1.72046e-10 1.58007e-09 0)
(2.37913e-10 1.94192e-09 0)
(6.32077e-10 2.2553e-09 0)
(9.89193e-10 2.5197e-09 0)
(1.29355e-09 2.73334e-09 0)
(1.53376e-09 2.89378e-09 0)
(1.70013e-09 2.99895e-09 0)
(1.78535e-09 3.04642e-09 0)
(1.78917e-09 3.03062e-09 0)
(1.72287e-09 2.94059e-09 0)
(1.60892e-09 2.76096e-09 0)
(1.47492e-09 2.47614e-09 0)
(1.34552e-09 2.0753e-09 0)
(1.23709e-09 1.55511e-09 0)
(1.15644e-09 9.19471e-10 0)
(1.10223e-09 1.7788e-10 0)
(1.06643e-09 -6.5527e-10 0)
(1.03529e-09 -1.55964e-09 0)
(9.91061e-10 -2.50733e-09 0)
(9.15736e-10 -3.46258e-09 0)
(7.95756e-10 -4.38372e-09 0)
(6.25434e-10 -5.22686e-09 0)
(4.06905e-10 -5.94979e-09 0)
(1.46838e-10 -6.51511e-09 0)
(-1.47483e-10 -6.89248e-09 0)
(-4.69513e-10 -7.06034e-09 0)
(-8.10682e-10 -7.0078e-09 0)
(-1.15486e-09 -6.73641e-09 0)
(-1.47347e-09 -6.26134e-09 0)
(-1.72565e-09 -5.61099e-09 0)
(-1.86554e-09 -4.82452e-09 0)
(-1.85657e-09 -3.94654e-09 0)
(-1.68633e-09 -3.02118e-09 0)
(-1.37648e-09 -2.08604e-09 0)
(-9.76905e-10 -1.17193e-09 0)
(-5.48727e-10 -3.05243e-10 0)
(-1.3381e-10 4.82671e-10 0)
(2.62406e-10 1.15544e-09 0)
(6.78878e-10 1.67195e-09 0)
(1.16267e-09 2.00708e-09 0)
(1.73132e-09 2.15266e-09 0)
(2.31707e-09 2.1275e-09 0)
(2.80085e-09 1.94247e-09 0)
(3.0742e-09 1.61194e-09 0)
(3.16254e-09 1.14057e-09 0)
(3.17829e-09 5.87348e-10 0)
(3.22467e-09 2.7369e-11 0)
(3.24798e-09 -4.56005e-10 0)
(3.15245e-09 -8.75686e-10 0)
(2.8603e-09 -1.25322e-09 0)
(2.2933e-09 -1.61581e-09 0)
(1.66548e-09 -1.94348e-09 0)
(1.37926e-09 -1.88297e-09 0)
(5.32881e-10 -1.28706e-09 0)
(-2.34891e-10 -5.67123e-10 0)
(9.33563e-11 1.23595e-09 0)
(-2.04251e-10 1.79269e-09 0)
(-1.53543e-09 1.45853e-09 0)
(-2.50842e-09 1.12795e-09 0)
(-3.30129e-09 1.00134e-09 0)
(-3.81184e-09 9.81246e-10 0)
(-3.70138e-09 1.06634e-09 0)
(-3.25039e-09 1.25379e-09 0)
(-2.54579e-09 1.48384e-09 0)
(-1.92631e-09 1.64894e-09 0)
(-1.71583e-09 1.68426e-09 0)
(-1.82269e-09 1.5567e-09 0)
(-1.87072e-09 1.28058e-09 0)
(-1.56857e-09 9.03727e-10 0)