/*--------------------------------*- C++ -*----------------------------------*\
| =========                 |                                                 |
| \\      /  F ield         | OpenFOAM: The Open Source CFD Toolbox           |
|  \\    /   O peration     | Version:  2406                                  |
|   \\  /    A nd           | Website:  www.openfoam.com                      |
|    \\/     M anipulation  |                                                 |
\*---------------------------------------------------------------------------*/
FoamFile
{
    version     2.0;
    format      ascii;
    arch        "LSB;label=32;scalar=64";
    class       volScalarField;
    location    "0.3";
    object      epsilon;
}
// * * * * * * * * * * * * * * * * * * * * * * * * * * * * * * * * * * * * * //

dimensions      [0 2 -3 0 0 0 0];

internalField   nonuniform List<scalar> 
2268
(
3.11056
4.22461
4.22461
4.22461
4.22461
4.22461
4.22461
4.22461
4.22461
4.22461
4.22461
4.22461
4.22461
0.134348
0.128736
0.170171
0.195011
0.206219
0.204871
0.190077
0.159033
0.107054
0.0328752
1.99652
3.53904
3.87395
3.99094
4.04704
4.07914
4.09939
4.11283
4.12192
4.12796
4.13166
4.13343
4.13343
0.193774
0.0981036
0.105026
0.112699
0.11626
0.115386
0.109491
0.0972124
0.0768825
0.0542083
1.99652
3.12319
3.57196
3.77086
3.87483
3.93633
3.9757
4.00204
4.01992
4.03183
4.03915
4.04264
4.04264
0.229924
0.10618
0.10085
0.102921
0.104099
0.103249
0.0997437
0.0926063
0.0811429
0.0792637
1.99652
2.85875
3.32578
3.572
3.71211
3.79846
3.85491
3.89313
3.91926
3.93673
3.94749
3.95264
3.95264
0.254816
0.116033
0.10309
0.101507
0.101116
0.100225
0.0981637
0.0942363
0.0884131
0.100171
1.99652
2.68257
3.12893
3.39682
3.5614
3.66727
3.7382
3.78692
3.82052
3.84312
3.85709
3.86378
3.86378
0.272915
0.124526
0.106142
0.101749
0.100099
0.0991296
0.0981645
0.0968443
0.0959895
0.119861
1.99652
2.55993
2.97192
3.24472
3.42379
3.54389
3.62645
3.68408
3.72425
3.75144
3.76832
3.77642
3.77642
0.286483
0.131266
0.108723
0.102063
0.0993534
0.0982639
0.0981553
0.099136
0.103626
0.142571
1.99652
2.47111
2.84601
3.11356
3.29936
3.42889
3.52026
3.58514
3.63088
3.66206
3.68151
3.69087
3.69087
0.296857
0.136331
0.110434
0.101922
0.0983118
0.0970517
0.0975494
0.100486
0.111279
0.18084
1.99652
2.40455
2.74407
3.00066
3.18749
3.32242
3.41999
3.49048
3.54076
3.5753
3.59696
3.6074
3.6074
0.304873
0.139781
0.111077
0.101078
0.0967199
0.0952332
0.0960299
0.100217
0.11718
0.286562
0.0360958
0.116818
0.17239
0.206747
0.226971
0.238291
0.24427
0.247179
0.248319
0.248291
0.247186
0.244648
0.23986
0.231465
0.217498
0.195314
0.161342
0.11042
0.0416583
0.054681
0.0805592
0.102233
0.115438
0.12294
0.127008
0.129109
0.130118
0.130513
0.130512
0.130148
0.129298
0.127672
0.124758
0.119748
0.111432
0.0980678
0.0776819
0.0557314
0.0791427
0.0832854
0.0954909
0.102941
0.107037
0.109195
0.110294
0.110822
0.111031
0.111031
0.110842
0.1104
0.109552
0.108011
0.105274
0.100506
0.0924582
0.0801651
0.0764046
0.0994324
0.0896756
0.0958267
0.09972
0.101782
0.10283
0.103356
0.103612
0.103715
0.103715
0.103617
0.103396
0.102977
0.102201
0.100749
0.098011
0.0930251
0.0853648
0.0926616
0.11871
0.0965055
0.0973427
0.0983854
0.0989057
0.0991318
0.0992375
0.0992933
0.0993187
0.0993173
0.0992898
0.0992342
0.0991351
0.0989295
0.0984308
0.0972013
0.094489
0.0902135
0.105779
0.14152
0.103289
0.098579
0.0971714
0.0964716
0.0960641
0.0958444
0.0957432
0.0957072
0.0957079
0.0957421
0.0958284
0.0959965
0.0962562
0.0965255
0.0965067
0.0956296
0.0941164
0.116605
0.180519
0.109772
0.0988913
0.0954713
0.0938605
0.092988
0.0925262
0.0923052
0.0922229
0.0922296
0.0923215
0.0925336
0.0929293
0.0935718
0.0944584
0.0954103
0.0960421
0.0969407
0.125727
0.282779
0.114199
0.0977273
0.09302
0.0908416
0.0896736
0.0890516
0.0887481
0.0886348
0.0886519
0.0887976
0.0891188
0.0897012
0.0906423
0.0919939
0.0936764
0.0955089
0.0985911
0.133618
1.99652
2.32441
2.61365
2.84849
3.03071
3.16899
3.27268
3.34954
3.40534
3.44416
3.46868
3.48055
3.48055
0.314235
0.142537
0.110268
0.0985279
0.0932573
0.0913405
0.0920711
0.0962028
0.107845
0.14551
1.99652
2.25443
2.4912
2.69466
2.86183
2.99521
3.09939
3.17907
3.2383
3.28018
3.30694
3.31998
3.31998
0.321925
0.145663
0.110335
0.096907
0.090595
0.0879453
0.0879589
0.0906581
0.0971087
0.109981
1.99652
2.20583
2.40242
2.57748
2.72709
2.85095
2.95084
3.02928
3.08878
3.1315
3.15907
3.17259
3.17259
0.326557
0.14809
0.110794
0.0961407
0.0889517
0.0855487
0.0847005
0.0859892
0.0894017
0.0950514
1.99652
2.17008
2.33538
2.48604
2.61835
2.73092
2.82398
2.89862
2.95622
2.99812
3.02541
3.03886
3.03886
0.329393
0.149834
0.111201
0.0956577
0.0877645
0.0836902
0.0820591
0.0822474
0.0839168
0.0868068
1.99652
2.14267
2.28313
2.41316
2.52955
2.63059
2.71573
2.78517
2.83952
2.87949
2.90573
2.91873
2.91873
0.331154
0.151108
0.111516
0.0953167
0.0868756
0.0822548
0.0799968
0.0793934
0.080024
0.0816069
1.99652
2.12103
2.24141
2.35405
2.45628
2.54634
2.62334
2.68698
2.73736
2.77474
2.79945
2.81173
2.81173
0.332246
0.152074
0.111768
0.0950809
0.0862264
0.0811893
0.0784664
0.0773194
0.077317
0.0782028
1.99652
2.10357
2.20749
2.30549
2.39529
2.47529
2.54445
2.6022
2.64833
2.68281
2.70571
2.71714
2.71714
0.332913
0.152834
0.111983
0.0949343
0.0857775
0.0804403
0.0773926
0.0758878
0.0755024
0.0760049
1.99652
2.08927
2.17957
2.26519
2.34422
2.4152
2.47708
2.52916
2.57106
2.60257
2.62358
2.63409
2.63409
0.333303
0.153449
0.112178
0.0948599
0.0854885
0.0799449
0.0766821
0.074952
0.0743419
0.0746385
1.99652
2.07744
2.1564
2.23155
2.30129
2.36431
2.4196
2.46643
2.50431
2.53292
2.55208
2.56168
2.56167
0.333515
0.153958
0.112357
0.0948383
0.0853175
0.0796378
0.0762393
0.074374
0.073638
0.0738298
1.99652
2.0676
2.13706
2.20337
2.26514
2.32122
2.37067
2.41274
2.44692
2.47283
2.49023
2.49896
2.49896
0.333615
0.154385
0.112521
0.0948506
0.0852262
0.0794594
0.0759791
0.0740369
0.0732341
0.0733768
1.99652
2.0594
2.12092
2.17977
2.23476
2.28485
2.32918
2.36704
2.3979
2.42136
2.43714
2.44507
2.44507
0.333651
0.15475
0.11267
0.0948811
0.0851832
0.0793612
0.0758335
0.0738501
0.0730146
0.073137
1.99652
2.05258
2.10748
2.16007
2.20932
2.25431
2.29423
2.32842
2.35635
2.37764
2.39198
2.39919
2.39919
0.333664
0.155072
0.112806
0.0949181
0.0851644
0.0793063
0.0757524
0.073749
0.0728999
0.0730162
1.99652
2.04695
2.09635
2.14375
2.18821
2.22889
2.26506
2.29612
2.32154
2.34094
2.35402
2.36061
2.36061
0.333703
0.155373
0.112934
0.0949518
0.0851498
0.0792667
0.0756997
0.0736896
0.0728383
0.0729563
1.99652
2.04235
2.08727
2.1304
2.1709
2.20802
2.24108
2.26951
2.29281
2.31061
2.32264
2.3287
2.32869
0.333847
0.155692
0.113058
0.0949701
0.0851186
0.0792174
0.0756479
0.073642
0.0727973
0.0729226
1.99652
2.03867
2.07999
2.1197
2.15702
2.19126
2.22179
2.24807
2.26964
2.28614
2.29728
2.3029
2.3029
0.334265
0.156098
0.113181
0.094947
0.0850394
0.0791293
0.0755714
0.0735832
0.0727556
0.0728952
1.99652
2.03582
2.07436
2.11141
2.14625
2.17825
2.2068
2.2314
2.2516
2.26706
2.27752
2.28279
2.28279
0.335338
0.156689
0.113265
0.0948174
0.0848557
0.0789612
0.0754417
0.073493
0.0726979
0.0728619
1.99652
2.03373
2.07024
2.10534
2.13837
2.16871
2.19581
2.21916
2.23836
2.25306
2.263
2.26801
2.26801
0.337902
0.157474
0.113125
0.0944231
0.0844657
0.0786535
0.0752245
0.0733513
0.0726121
0.0728146
1.99652
2.03237
2.06754
2.10137
2.1332
2.16246
2.1886
2.21114
2.22966
2.24386
2.25346
2.2583
2.2583
0.342668
0.157543
0.112105
0.0934256
0.0837083
0.0781307
0.0748844
0.0731411
0.0724895
0.0727487
1.99652
2.0317
2.06621
2.0994
2.13065
2.15937
2.18503
2.20716
2.22536
2.2393
2.24873
2.25349
2.25349
0.335936
0.151637
0.108531
0.0912842
0.0824012
0.0773291
0.0743985
0.0728543
0.0723271
0.0726632
1.99652
2.0317
2.06621
2.0994
2.13065
2.15937
2.18503
2.20716
2.22536
2.2393
2.24873
2.25349
0.43812
0.189867
0.125917
0.100431
0.0876905
0.0805081
0.0762567
0.0737789
0.0724997
0.0721305
0.072561
0.209664
0.260337
0.290453
0.307583
0.317734
0.323899
0.327757
0.33041
0.332815
0.33616
0.341341
0.334664
0.189606
0.133506
0.106953
0.0923748
0.083708
0.0783536
0.0750387
0.073082
0.0721052
0.0719139
0.0724492
0.118886
0.118927
0.133314
0.142787
0.148432
0.151715
0.153647
0.154889
0.155889
0.156851
0.156963
0.151059
0.125649
0.106857
0.0942269
0.0857454
0.0800469
0.0762603
0.0738253
0.0723811
0.0717076
0.0716959
0.072337
0.134514
0.102692
0.105349
0.108722
0.110857
0.112005
0.112579
0.112862
0.112978
0.11282
0.111768
0.108192
0.100198
0.0922406
0.0856866
0.0806697
0.0769989
0.074427
0.072731
0.0717389
0.0713403
0.0714938
0.0722331
0.149597
0.101332
0.0973759
0.096894
0.0966268
0.0962388
0.0958028
0.0953843
0.0949567
0.0943604
0.0932416
0.0910517
0.0874812
0.0835481
0.0799393
0.0769422
0.0746212
0.0729379
0.0718187
0.0711948
0.0710262
0.07132
0.0721436
0.159752
0.102143
0.0944297
0.0915638
0.0896918
0.0882165
0.0870422
0.0861202
0.085357
0.0845968
0.0836237
0.0822117
0.0802906
0.0781495
0.0760877
0.074295
0.0728589
0.0718
0.0711069
0.0707642
0.0707754
0.0711807
0.0720719
0.166229
0.103032
0.0931463
0.0888197
0.0858973
0.083672
0.0819724
0.080696
0.0797209
0.0788992
0.0780733
0.0771119
0.0759719
0.0747393
0.0735394
0.0724755
0.0716111
0.0709763
0.0705832
0.070444
0.0705877
0.0710762
0.0720183
0.170217
0.103674
0.092532
0.0873221
0.0837278
0.0809999
0.0789379
0.0774171
0.0763045
0.0754573
0.0747396
0.0740459
0.0733258
0.0725917
0.0718892
0.0712679
0.0707662
0.0704098
0.0702191
0.0702198
0.0704559
0.071003
0.0719813
0.172592
0.104089
0.0922304
0.0864975
0.0824853
0.0794311
0.0771271
0.0754417
0.0742387
0.0733779
0.0727306
0.0721964
0.0717144
0.071264
0.0708521
0.0704973
0.0702201
0.0700403
0.0699803
0.0700726
0.0703699
0.0709561
0.0719585
0.173969
0.104345
0.0920887
0.0860554
0.081792
0.0785339
0.0760742
0.0742812
0.0730189
0.0721486
0.0715436
0.0711027
0.070757
0.0704691
0.0702258
0.0700283
0.0698861
0.069814
0.0698348
0.0699843
0.0703199
0.0709306
0.0719479
0.174759
0.104503
0.0920324
0.085833
0.081425
0.0780451
0.0754897
0.0736291
0.0723289
0.0714512
0.0708699
0.0704818
0.0702129
0.0700166
0.0698689
0.0697617
0.0696978
0.0696889
0.0697573
0.0699407
0.070299
0.0709238
0.071949
0.175229
0.104609
0.0920245
0.0857377
0.0812511
0.0778026
0.0751917
0.0732911
0.0719677
0.0710846
0.0705157
0.0701565
0.0699295
0.0697833
0.0696883
0.069631
0.0696106
0.069637
0.0697321
0.0699343
0.0703046
0.0709362
0.0719639
0.175561
0.104697
0.0920514
0.0857216
0.0811959
0.0777124
0.0750722
0.07315
0.0718138
0.0709276
0.070365
0.0700209
0.069816
0.0696963
0.069629
0.0695982
0.0696009
0.0696459
0.0697548
0.0699661
0.0703414
0.0709742
0.0719993
0.1759
0.104806
0.0921199
0.0857702
0.0812281
0.0777299
0.0750774
0.073146
0.0718047
0.0709177
0.070359
0.070023
0.0698294
0.0697231
0.0696698
0.0696522
0.0696663
0.0697201
0.0698349
0.070049
0.0704239
0.0710527
0.0720694
0.176418
0.104992
0.092262
0.0859003
0.0813526
0.0778511
0.0751969
0.0732653
0.0719251
0.0710405
0.0704855
0.0701545
0.0699671
0.0698674
0.0698208
0.0698092
0.069828
0.0698849
0.0700005
0.0702128
0.0705826
0.0712014
0.0722014
0.177397
0.105367
0.092554
0.0861686
0.0816125
0.0781105
0.0754609
0.0735362
0.0722034
0.0713255
0.0707762
0.07045
0.0702667
0.0701706
0.070127
0.0701176
0.0701375
0.0701939
0.0703068
0.0705132
0.0708721
0.0714731
0.0724444
0.179408
0.106169
0.0931615
0.0866953
0.0820998
0.0785866
0.0759432
0.0740326
0.0727151
0.0718505
0.0713112
0.0709918
0.0708129
0.0707195
0.0706773
0.0706682
0.0706871
0.0707405
0.0708476
0.0710436
0.071385
0.0719573
0.0728828
0.183677
0.107941
0.0944282
0.0877019
0.0829721
0.0794112
0.0767699
0.0748829
0.0735932
0.0727523
0.0722302
0.0719221
0.0717497
0.0716597
0.0716186
0.0716089
0.0716255
0.071674
0.0717723
0.0719528
0.0722683
0.0727981
0.0736551
0.192941
0.111915
0.0970181
0.0895442
0.0844547
0.0807721
0.0781279
0.0762827
0.0750422
0.0742424
0.0737495
0.0734598
0.0732979
0.073213
0.0731737
0.0731633
0.0731767
0.0732187
0.073305
0.0734648
0.0737448
0.0742155
0.0749766
0.213504
0.120776
0.102001
0.0926384
0.0867843
0.0828925
0.0802664
0.0785079
0.0773565
0.0766265
0.0761811
0.0759207
0.0757753
0.0756987
0.0756625
0.0756518
0.0756615
0.0756957
0.0757672
0.0759005
0.076135
0.0765291
0.0771649
0.262033
0.13984
0.110338
0.0970406
0.0900274
0.0859778
0.0834956
0.0819299
0.0809406
0.0803262
0.0799556
0.07974
0.0796195
0.0795556
0.0795247
0.0795145
0.0795207
0.0795459
0.0796
0.0797015
0.0798806
0.0801812
0.0806639
0.418011
0.176898
0.120111
0.101419
0.0938301
0.0901931
0.0882137
0.0870482
0.0863387
0.0859064
0.0856478
0.0854975
0.0854133
0.0853681
0.0853457
0.0853376
0.0853405
0.085356
0.0853903
0.0854551
0.0855696
0.0857616
0.0860679
1.58219
0.21361
0.118586
0.102187
0.0976148
0.0958715
0.0950306
0.0945613
0.0942812
0.0941114
0.0940096
0.09395
0.0939162
0.0938977
0.0938882
0.0938844
0.093885
0.0938902
0.0939023
0.0939256
0.0939668
0.094036
0.0941469
0.326955
0.249999
0.250399
0.328303
0.127232
0.128765
0.128913
0.128043
0.10024
0.102234
0.102216
0.100435
0.0894669
0.0906476
0.0905593
0.0893885
0.0832718
0.0840226
0.083907
0.0830653
0.0793764
0.0799092
0.0797822
0.0791091
0.0769286
0.0773531
0.0772205
0.0766314
0.0754415
0.0758158
0.0756795
0.0751281
0.0745804
0.0749341
0.0747948
0.0742568
0.0741083
0.0744552
0.0743134
0.0737777
0.0738641
0.0742098
0.0740663
0.0735288
0.0737446
0.0740911
0.0739467
0.073407
0.0736881
0.0740363
0.0738918
0.0733507
0.0736597
0.0740105
0.073867
0.0733257
0.0736403
0.0739951
0.073854
0.0733137
0.0736194
0.0739803
0.0738434
0.0733056
0.0735909
0.073961
0.0738305
0.073297
0.0735516
0.0739346
0.0738131
0.0732856
0.0735007
0.0739006
0.0737908
0.073271
0.0734403
0.0738603
0.0737643
0.0732537
0.0733745
0.0738164
0.0737355
0.0732348
0.0733086
0.0737726
0.0737068
0.0732161
0.0732477
0.0737323
0.0736804
0.0731989
0.0731955
0.0736979
0.0736581
0.0731844
0.073154
0.0736707
0.0736406
0.0731733
0.0731232
0.0736508
0.073628
0.0731655
0.0731024
0.0736377
0.0736201
0.073161
0.0730902
0.0736306
0.0736165
0.0731598
0.0730858
0.0736291
0.0736173
0.0731623
0.0730894
0.0736339
0.0736234
0.0731698
0.0731033
0.0736474
0.0736376
0.0731857
0.0731337
0.0736755
0.0736661
0.0732164
0.0731931
0.0737302
0.0737208
0.0732749
0.0733059
0.0738341
0.0738246
0.0733853
0.0735165
0.0740297
0.0740198
0.0735916
0.0739033
0.0743922
0.0743818
0.0739717
0.0745978
0.07505
0.0750389
0.0746567
0.0758099
0.0762099
0.0761983
0.0758566
0.0778547
0.0781857
0.0781743
0.0778875
0.0811789
0.0814259
0.0814159
0.0811979
0.0863852
0.0865372
0.08653
0.0863923
0.0942572
0.0943077
0.0943044
0.0942542
0.143175
0.105018
0.0929647
0.0879734
0.0854549
0.0840743
0.0833226
0.0829467
0.0828086
0.0828477
0.0830676
0.0835267
0.0843265
0.0855875
0.0874082
0.0898316
0.0930236
0.0992198
0.144634
0.109
0.0944591
0.0869633
0.0828736
0.0805164
0.0791369
0.0783553
0.0779571
0.0778224
0.0779042
0.0782196
0.0788429
0.0798937
0.0815164
0.0838523
0.0870469
0.0915297
0.100298
0.154009
0.0940735
0.0868636
0.0820887
0.0790031
0.0770356
0.075814
0.0750979
0.0747322
0.074629
0.0747621
0.075166
0.0759309
0.0771932
0.0791162
0.0818703
0.0856557
0.0910225
0.1013
0.159585
0.0857631
0.0814373
0.0782619
0.0760082
0.0744722
0.0734758
0.0728783
0.0725797
0.0725254
0.0727127
0.0731933
0.0740723
0.0754989
0.0776494
0.0807098
0.0849049
0.0908331
0.101981
0.162879
0.0805265
0.0775861
0.0753803
0.0737503
0.0725984
0.0718318
0.0713691
0.0711511
0.0711524
0.0713911
0.0719349
0.072901
0.0744484
0.0767613
0.0800323
0.0844946
0.0907629
0.102401
0.164799
0.0771069
0.0749073
0.0732991
0.0721111
0.071265
0.0706988
0.0703621
0.0702228
0.0702774
0.0705609
0.071154
0.0721836
0.0738154
0.076238
0.0796463
0.0842744
0.0907408
0.10265
0.165898
0.0748987
0.0731042
0.0718606
0.0709713
0.0703501
0.0699415
0.0697094
0.0696375
0.0697376
0.0700572
0.0706868
0.0717604
0.0734483
0.0759415
0.0794349
0.0841611
0.0907386
0.102795
0.166515
0.0735201
0.0719402
0.0709116
0.0702144
0.069748
0.0694539
0.0693009
0.0692815
0.069417
0.0697637
0.0704189
0.0715215
0.0732449
0.0757811
0.0793247
0.0841065
0.0907439
0.102876
0.166856
0.0726974
0.0712235
0.0703156
0.0697355
0.0693692
0.0691526
0.069055
0.0690733
0.0692344
0.0696001
0.0702723
0.0713931
0.0731379
0.075699
0.0792708
0.0840825
0.0907508
0.102922
0.167041
0.072231
0.0708042
0.06996
0.0694472
0.0691419
0.0689746
0.0689133
0.0689567
0.069135
0.0695132
0.0701961
0.0713277
0.0730846
0.0756596
0.0792464
0.0840734
0.090757
0.102948
0.16714
0.0719809
0.0705718
0.0697588
0.0692825
0.0690122
0.0688743
0.0688352
0.0688944
0.0690835
0.0694694
0.0701586
0.0712964
0.0730599
0.0756421
0.0792364
0.0840709
0.0907617
0.102962
0.167192
0.0718544
0.0704501
0.0696511
0.0691934
0.068942
0.0688205
0.0687943
0.0688627
0.0690582
0.0694487
0.0701415
0.0712825
0.0730494
0.0756351
0.0792331
0.084071
0.090765
0.102969
0.16722
0.0717943
0.0703902
0.0695968
0.0691479
0.0689061
0.0687933
0.0687741
0.0688476
0.0690466
0.0694396
0.0701342
0.071277
0.0730454
0.0756328
0.0792324
0.0840718
0.0907671
0.102973
0.167234
0.0717674
0.0703626
0.0695712
0.0691261
0.0688889
0.0687805
0.0687647
0.0688409
0.0690418
0.0694361
0.0701316
0.0712751
0.0730443
0.0756324
0.0792326
0.0840725
0.0907684
0.102975
0.167241
0.0717556
0.0703508
0.06956
0.0691166
0.0688814
0.0687749
0.0687609
0.0688383
0.0690401
0.0694349
0.070131
0.0712748
0.0730443
0.0756326
0.0792331
0.0840732
0.0907692
0.102976
0.167245
0.0717498
0.0703458
0.0695556
0.0691128
0.0688784
0.0687728
0.0687595
0.0688375
0.0690397
0.0694348
0.070131
0.0712749
0.0730445
0.075633
0.0792334
0.0840736
0.0907696
0.102977
0.167247
0.0717453
0.0703434
0.069554
0.0691116
0.0688775
0.0687722
0.0687592
0.0688375
0.0690397
0.069435
0.0701312
0.0712752
0.0730448
0.0756332
0.0792337
0.0840738
0.0907698
0.102977
0.167248
0.0717402
0.0703416
0.0695533
0.0691113
0.0688774
0.0687722
0.0687593
0.0688376
0.0690399
0.0694352
0.0701314
0.0712754
0.073045
0.0756334
0.0792339
0.084074
0.09077
0.102978
0.167248
0.0717337
0.0703395
0.0695528
0.0691113
0.0688776
0.0687724
0.0687595
0.0688378
0.0690401
0.0694354
0.0701316
0.0712756
0.0730451
0.0756335
0.079234
0.0840741
0.09077
0.102978
0.167249
0.0717259
0.0703369
0.0695521
0.0691113
0.0688778
0.0687727
0.0687597
0.068838
0.0690403
0.0694355
0.0701317
0.0712757
0.0730452
0.0756336
0.079234
0.0840741
0.0907701
0.102978
0.167249
0.0717174
0.0703341
0.0695514
0.0691113
0.068878
0.0687729
0.0687599
0.0688382
0.0690404
0.0694356
0.0701318
0.0712757
0.0730453
0.0756337
0.0792341
0.0840741
0.0907701
0.102978
0.167249
0.0717089
0.0703312
0.0695507
0.0691113
0.0688781
0.0687731
0.0687601
0.0688383
0.0690406
0.0694357
0.0701319
0.0712758
0.0730453
0.0756337
0.0792341
0.0840742
0.0907701
0.102978
0.167249
0.0717013
0.0703287
0.0695501
0.0691113
0.0688783
0.0687733
0.0687603
0.0688385
0.0690407
0.0694358
0.070132
0.0712759
0.0730454
0.0756338
0.0792341
0.0840742
0.0907701
0.102978
0.167249
0.0716949
0.0703268
0.0695497
0.0691115
0.0688787
0.0687736
0.0687606
0.0688387
0.0690409
0.069436
0.0701322
0.071276
0.0730455
0.0756338
0.0792342
0.0840742
0.0907702
0.102978
0.167249
0.0716903
0.0703256
0.0695498
0.069112
0.0688792
0.0687741
0.0687611
0.0688392
0.0690413
0.0694364
0.0701324
0.0712763
0.0730457
0.075634
0.0792343
0.0840743
0.0907702
0.102978
0.167249
0.0716875
0.0703254
0.0695505
0.0691129
0.0688802
0.0687751
0.0687619
0.0688399
0.069042
0.069437
0.070133
0.0712768
0.0730461
0.0756343
0.0792345
0.0840745
0.0907703
0.102978
0.16725
0.0716867
0.0703266
0.0695523
0.0691148
0.068882
0.0687768
0.0687635
0.0688414
0.0690434
0.0694382
0.0701341
0.0712777
0.0730469
0.0756349
0.079235
0.0840748
0.0907706
0.102978
0.16725
0.0716884
0.0703297
0.0695558
0.0691183
0.0688854
0.06878
0.0687665
0.0688443
0.069046
0.0694406
0.0701362
0.0712796
0.0730485
0.0756362
0.079236
0.0840755
0.0907711
0.102979
0.167252
0.0716934
0.0703361
0.0695626
0.0691251
0.068892
0.0687863
0.0687724
0.0688498
0.0690511
0.0694453
0.0701405
0.0712833
0.0730516
0.0756388
0.0792379
0.0840769
0.0907721
0.10298
0.167255
0.0717039
0.0703485
0.0695755
0.0691379
0.0689045
0.0687983
0.0687839
0.0688606
0.0690612
0.0694547
0.0701489
0.0712908
0.073058
0.075644
0.079242
0.0840799
0.0907743
0.102982
0.167262
0.0717241
0.0703719
0.0695999
0.0691624
0.0689285
0.0688216
0.0688062
0.0688818
0.0690811
0.0694731
0.0701657
0.0713057
0.0730709
0.0756546
0.0792503
0.0840861
0.090779
0.102986
0.167276
0.0717623
0.0704158
0.069646
0.069209
0.0689745
0.0688664
0.0688494
0.068923
0.06912
0.0695094
0.070199
0.0713356
0.0730968
0.0756762
0.0792675
0.0840991
0.090789
0.102997
0.167306
0.0718339
0.0704979
0.0697327
0.069297
0.0690619
0.068952
0.0689323
0.0690026
0.0691958
0.0695805
0.0702648
0.071395
0.0731491
0.0757204
0.0793031
0.0841268
0.0908107
0.103018
0.16737
0.0719669
0.0706499
0.0698935
0.0694609
0.0692256
0.0691131
0.0690895
0.0691546
0.0693413
0.0697183
0.0703932
0.0715123
0.0732533
0.0758098
0.0793768
0.0841855
0.0908582
0.103067
0.167509
0.0722115
0.0709273
0.0701867
0.0697607
0.0695261
0.0694106
0.0693814
0.0694387
0.0696155
0.0699801
0.0706396
0.0717398
0.073458
0.0759886
0.0795279
0.0843104
0.0909639
0.103179
0.16782
0.0726534
0.0714229
0.0707095
0.0702957
0.0700641
0.0699458
0.0699095
0.0699563
0.0701188
0.0704648
0.0711002
0.0721699
0.0738508
0.0763383
0.0798325
0.0845746
0.0912039
0.103444
0.168534
0.0734329
0.0722855
0.0716155
0.0712227
0.0709985
0.0708789
0.0708352
0.0708691
0.0710131
0.0713332
0.0719335
0.0729568
0.0745795
0.0770001
0.0804289
0.0851268
0.0917605
0.104115
0.170249
0.0747684
0.0737411
0.0731357
0.0727764
0.0725665
0.0724495
0.0723999
0.0724206
0.0725428
0.0728298
0.0733818
0.0743379
0.0758738
0.0781962
0.0815445
0.086245
0.0930667
0.105935
0.174633
0.0769805
0.0761152
0.0755994
0.0752891
0.0751037
0.0749959
0.0749451
0.0749548
0.075054
0.075301
0.0757891
0.0766497
0.0780563
0.0802328
0.0834914
0.0883614
0.0960468
0.111148
0.186834
0.0805158
0.0798543
0.0794546
0.0792109
0.0790624
0.0789734
0.0789286
0.078932
0.0790085
0.079208
0.0796106
0.0803325
0.0815369
0.0834678
0.0865694
0.0918613
0.102055
0.125663
0.226208
0.0859689
0.0855482
0.0852902
0.0851312
0.0850331
0.0849734
0.0849428
0.084945
0.084998
0.0851375
0.0854214
0.0859355
0.086809
0.088271
0.0908723
0.0963176
0.110683
0.159496
0.395577
0.0941074
0.0939583
0.0938654
0.0938078
0.0937723
0.0937509
0.0937405
0.0937431
0.0937661
0.0938238
0.0939395
0.0941474
0.094501
0.0951093
0.096312
0.0995414
0.112241
0.192775
1.43429
)
;

boundaryField
{
    leftWall
    {
        type            epsilonWallFunction;
        blending        stepwise;
        value           nonuniform List<scalar> 
50
(
3.11056
1.99652
1.99652
1.99652
1.99652
1.99652
1.99652
1.99652
1.99652
1.99652
1.99652
1.99652
1.99652
1.99652
1.99652
1.99652
1.99652
1.99652
1.99652
1.99652
1.99652
1.99652
1.99652
1.99652
1.99652
1.99652
1.99652
1.99652
0.209664
0.118886
0.134514
0.149597
0.159752
0.166229
0.170217
0.172592
0.173969
0.174759
0.175229
0.175561
0.1759
0.176418
0.177397
0.179408
0.183677
0.192941
0.213504
0.262033
0.418011
1.58219
)
;
    }
    rightWall
    {
        type            epsilonWallFunction;
        blending        stepwise;
        value           nonuniform List<scalar> 
50
(
0.0416583
0.0557314
0.0764046
0.0926616
0.105779
0.116605
0.125727
0.133618
0.144634
0.154009
0.159585
0.162879
0.164799
0.165898
0.166515
0.166856
0.167041
0.16714
0.167192
0.16722
0.167234
0.167241
0.167245
0.167247
0.167248
0.167248
0.167249
0.167249
0.167249
0.167249
0.167249
0.167249
0.167249
0.16725
0.16725
0.167252
0.167255
0.167262
0.167276
0.167306
0.16737
0.167509
0.16782
0.168534
0.170249
0.174633
0.186834
0.226208
0.395577
1.43429
)
;
    }
    lowerWall
    {
        type            epsilonWallFunction;
        blending        stepwise;
        value           nonuniform List<scalar> 
62
(
3.11056
4.22461
4.22461
4.22461
4.22461
4.22461
4.22461
4.22461
4.22461
4.22461
4.22461
4.22461
4.22461
0.134348
0.128736
0.170171
0.195011
0.206219
0.204871
0.190077
0.159033
0.107054
0.0328752
0.0328752
0.0542083
0.0792637
0.100171
0.119861
0.142571
0.18084
0.286562
0.326955
0.249999
0.250399
0.328303
0.0360958
0.054681
0.0791427
0.0994324
0.11871
0.14152
0.180519
0.282779
0.0360958
0.116818
0.17239
0.206747
0.226971
0.238291
0.24427
0.247179
0.248319
0.248291
0.247186
0.244648
0.23986
0.231465
0.217498
0.195314
0.161342
0.11042
0.0416583
)
;
    }
    atmosphere
    {
        type            inletOutlet;
        inletValue      uniform 0.1;
        value           uniform 0.1;
    }
    defaultFaces
    {
        type            empty;
    }
}


// ************************************************************************* //
