/*--------------------------------*- C++ -*----------------------------------*\
| =========                 |                                                 |
| \\      /  F ield         | OpenFOAM: The Open Source CFD Toolbox           |
|  \\    /   O peration     | Version:  2406                                  |
|   \\  /    A nd           | Website:  www.openfoam.com                      |
|    \\/     M anipulation  |                                                 |
\*---------------------------------------------------------------------------*/
FoamFile
{
    version     2.0;
    format      ascii;
    arch        "LSB;label=32;scalar=64";
    class       volScalarField;
    location    "0.3";
    object      epsilon;
}
// * * * * * * * * * * * * * * * * * * * * * * * * * * * * * * * * * * * * * //

dimensions      [0 2 -3 0 0 0 0];

internalField   nonuniform List<scalar> 
2268
(
0.0380679
0.106182
0.159397
0.195966
0.220851
0.237577
0.248595
0.255671
0.26008
0.262725
0.264216
0.264925
0.265026
0.264509
0.263158
0.260489
0.255635
0.247164
0.232813
0.20911
0.171003
0.11218
0.0331291
0.0557386
0.0744967
0.0940278
0.107544
0.116479
0.122274
0.125961
0.128256
0.129646
0.13046
0.130909
0.131117
0.131141
0.130974
0.130542
0.129678
0.128075
0.125215
0.120264
0.111925
0.0983281
0.0775059
0.0553247
0.0785706
0.0760047
0.0857431
0.0930154
0.0977981
0.10082
0.10268
0.103799
0.104455
0.104827
0.105026
0.105115
0.105121
0.105039
0.104831
0.104411
0.103622
0.102197
0.0997105
0.0955294
0.0888341
0.0793831
0.0820873
0.0970954
0.0803033
0.0843039
0.0880912
0.0906296
0.0921866
0.0930969
0.0936089
0.0938862
0.0940301
0.0940996
0.0941258
0.0941213
0.0940831
0.0939918
0.0938049
0.0934453
0.0927882
0.091653
0.0898287
0.0872324
0.0849855
0.105019
0.112205
0.0845485
0.0844887
0.0858579
0.0868541
0.0874113
0.0876737
0.0877702
0.0877859
0.0877697
0.0877466
0.0877273
0.0877143
0.0877056
0.0876944
0.0876673
0.0876028
0.0874752
0.0872829
0.0871504
0.0876658
0.0914328
0.126792
0.124601
0.088214
0.0850834
0.0846395
0.0844752
0.0842758
0.0840436
0.0838189
0.0836289
0.0834844
0.0833854
0.0833274
0.0833058
0.0833186
0.0833681
0.0834622
0.0836193
0.0838871
0.0844006
0.0855647
0.0886578
0.0984023
0.151594
0.134791
0.0912407
0.0857125
0.0838612
0.0827873
0.0819873
0.0813568
0.0808688
0.080507
0.0802528
0.0800873
0.0799941
0.0799628
0.0799912
0.0800879
0.0802758
0.0806024
0.0811673
0.0822038
0.0843335
0.0895109
0.105803
0.192333
0.143173
0.093691
0.0862564
0.0832917
0.0814896
0.0802009
0.0792404
0.0785302
0.07802
0.0776691
0.0774434
0.077317
0.0772747
0.0773135
0.0774461
0.0777056
0.0781586
0.0789383
0.0803356
0.0830878
0.0895597
0.111813
0.303748
0.0362905
0.120993
0.18134
0.218367
0.240032
0.252277
0.258917
0.262256
0.263588
0.26351
0.262107
0.259019
0.25344
0.244053
0.228908
0.205207
0.168876
0.114108
0.0418143
0.0554219
0.0808069
0.102136
0.115239
0.122782
0.126956
0.129171
0.130266
0.130703
0.130694
0.130273
0.129318
0.127544
0.124464
0.119314
0.110943
0.0976683
0.0775825
0.0563703
0.0810152
0.0810343
0.0908133
0.0972409
0.100999
0.103077
0.104171
0.104706
0.104923
0.104929
0.104744
0.104306
0.103463
0.101946
0.0993149
0.0949013
0.0878063
0.077665
0.0779818
0.1026
0.0855511
0.08811
0.090628
0.0922669
0.0932083
0.0937058
0.0939482
0.0940494
0.0940641
0.0940018
0.0938306
0.0934684
0.0927612
0.0914524
0.0891597
0.0854793
0.0810878
0.0952627
0.12308
0.0910524
0.0876835
0.0872871
0.0874251
0.0875791
0.0876676
0.0877095
0.0877333
0.087756
0.0877812
0.0877966
0.0877655
0.0876121
0.0872051
0.0863654
0.085044
0.0846891
0.109269
0.146887
0.0970236
0.0879317
0.0851842
0.0841878
0.0837559
0.0835396
0.0834319
0.0833991
0.0834315
0.0835288
0.083693
0.0839207
0.0841929
0.0844707
0.0847258
0.0851718
0.087854
0.120731
0.186803
0.103207
0.0881478
0.0835589
0.0817264
0.0808604
0.0804149
0.0801939
0.08012
0.0801648
0.080326
0.0806168
0.0810591
0.0816774
0.0825021
0.0836184
0.0854378
0.0904821
0.130145
0.29127
0.107874
0.0877696
0.082053
0.0796748
0.0785058
0.0778939
0.0775896
0.0774876
0.0775479
0.0777677
0.0781698
0.078796
0.0797039
0.0809772
0.0827866
0.0856942
0.0926112
0.13788
0.154017
0.0967632
0.0869296
0.0825719
0.0798472
0.0779284
0.0765343
0.075526
0.0748129
0.0743266
0.0740144
0.0738385
0.0737768
0.0738245
0.0739973
0.0743381
0.0749304
0.0759333
0.0776657
0.0808398
0.0872713
0.102419
0.146133
0.163542
0.0993033
0.0873873
0.0818211
0.0782745
0.0757731
0.0739614
0.0726539
0.0717281
0.0710935
0.0706814
0.0704431
0.0703485
0.0703882
0.0705752
0.0709503
0.0715918
0.0726379
0.0743327
0.0771252
0.0818747
0.0902262
0.10498
0.169636
0.100823
0.087571
0.0812203
0.0771232
0.0742164
0.0721024
0.0705695
0.0694771
0.0687214
0.0682236
0.0679267
0.0677941
0.0678101
0.0679806
0.068336
0.068936
0.069878
0.0713126
0.0734643
0.0766433
0.0811753
0.0869954
0.173452
0.101717
0.0876155
0.0807537
0.0762847
0.0730933
0.0707587
0.0690554
0.0678324
0.066978
0.0664069
0.066056
0.0658826
0.0658643
0.065998
0.0663013
0.0668119
0.0675884
0.0687091
0.0702635
0.0723218
0.0748477
0.0775003
0.175785
0.102233
0.0876006
0.0804077
0.0756875
0.072296
0.0698008
0.0679689
0.0666442
0.0657102
0.0650772
0.0646776
0.0644633
0.0644053
0.064492
0.064728
0.0651324
0.0657342
0.0665664
0.0676512
0.068974
0.0704355
0.0717885
0.177178
0.102525
0.0875679
0.080163
0.0752744
0.0717433
0.0691319
0.0672042
0.0658013
0.064804
0.0641198
0.0636774
0.0634244
0.063326
0.0633628
0.0635291
0.0638294
0.0642734
0.0648689
0.06561
0.0664606
0.0673348
0.0680827
0.177991
0.102688
0.0875359
0.0799974
0.0749975
0.0713704
0.0686763
0.0666783
0.0652162
0.0641697
0.063444
0.0629653
0.0626776
0.0625413
0.0625309
0.0626326
0.062841
0.063154
0.0635669
0.0640643
0.0646114
0.0651467
0.0655824
0.178456
0.102778
0.087511
0.0798899
0.0748179
0.0711259
0.0683741
0.0663256
0.0648199
0.0637358
0.0629775
0.0624691
0.0621519
0.0619824
0.0619305
0.0619768
0.0621092
0.0623191
0.0625963
0.0629241
0.0632745
0.0636064
0.0638683
0.178716
0.102827
0.0874938
0.0798227
0.0747049
0.0709702
0.0681791
0.0660952
0.0645581
0.0634463
0.0626631
0.0621312
0.0617898
0.0615929
0.0615068
0.0615082
0.061581
0.0617129
0.0618921
0.0621032
0.0623254
0.0625317
0.0626914
0.17886
0.102853
0.0874828
0.0797822
0.074636
0.0708738
0.0680567
0.0659486
0.0643896
0.0632579
0.0624563
0.0619065
0.0615463
0.0613276
0.0612146
0.0611813
0.0612092
0.0612843
0.0613944
0.0615263
0.0616648
0.0617921
0.0618898
0.178939
0.102867
0.0874762
0.0797585
0.0745951
0.0708157
0.0679818
0.0658577
0.0642838
0.0631382
0.0623234
0.0617605
0.0613862
0.0611511
0.0610179
0.0609589
0.0609543
0.0609892
0.0610516
0.0611305
0.0612146
0.061292
0.0613514
0.17898
0.102874
0.0874725
0.0797451
0.0745716
0.0707817
0.0679372
0.0658028
0.064219
0.063064
0.0622401
0.0616678
0.0612833
0.0610364
0.0608885
0.0608113
0.0607839
0.0607912
0.0608216
0.0608657
0.0609147
0.0609606
0.0609962
0.179003
0.102878
0.0874704
0.0797376
0.0745583
0.0707621
0.0679112
0.0657704
0.0641802
0.0630191
0.062189
0.0616103
0.0612187
0.0609635
0.0608055
0.0607156
0.0606728
0.0606616
0.0606711
0.0606927
0.0607196
0.0607458
0.0607667
0.179015
0.10288
0.0874693
0.0797336
0.074551
0.0707512
0.0678964
0.0657516
0.0641576
0.0629924
0.0621583
0.0615754
0.061179
0.0609182
0.0607533
0.0606551
0.0606021
0.060579
0.060575
0.0605824
0.0605955
0.0606096
0.0606215
0.179021
0.102881
0.0874688
0.0797315
0.0745471
0.0707452
0.0678882
0.0657411
0.0641446
0.062977
0.0621403
0.0615546
0.0611551
0.0608906
0.0607213
0.0606177
0.0605581
0.0605275
0.0605151
0.0605138
0.0605184
0.0605252
0.0605317
0.179024
0.102882
0.0874685
0.0797304
0.074545
0.070742
0.0678837
0.0657352
0.0641373
0.0629682
0.0621299
0.0615425
0.061141
0.0608742
0.0607021
0.060595
0.0605314
0.0604961
0.0604787
0.0604721
0.0604716
0.060474
0.0604774
0.179025
0.102882
0.0874684
0.0797298
0.0745439
0.0707403
0.0678813
0.065732
0.0641332
0.0629632
0.062124
0.0615355
0.0611329
0.0608646
0.0606907
0.0605816
0.0605155
0.0604774
0.0604569
0.0604472
0.0604438
0.0604437
0.0604452
0.179026
0.102882
0.0874683
0.0797296
0.0745434
0.0707394
0.06788
0.0657303
0.064131
0.0629605
0.0621208
0.0615316
0.0611282
0.0608591
0.0606842
0.0605738
0.0605063
0.0604665
0.0604443
0.0604328
0.0604276
0.0604261
0.0604265
0.179027
0.102882
0.0874683
0.0797294
0.0745431
0.070739
0.0678794
0.0657294
0.0641299
0.0629591
0.062119
0.0615295
0.0611256
0.0608559
0.0606805
0.0605693
0.060501
0.0604603
0.060437
0.0604245
0.0604184
0.060416
0.0604159
0.179027
0.102882
0.0874683
0.0797294
0.0745429
0.0707387
0.067879
0.0657289
0.0641293
0.0629583
0.062118
0.0615283
0.0611242
0.0608542
0.0606784
0.0605669
0.060498
0.0604568
0.060433
0.0604199
0.0604132
0.0604104
0.0604099
0.179027
0.102882
0.0874683
0.0797293
0.0745429
0.0707386
0.0678789
0.0657287
0.064129
0.0629579
0.0621175
0.0615276
0.0611234
0.0608533
0.0606772
0.0605655
0.0604964
0.0604549
0.0604307
0.0604173
0.0604104
0.0604073
0.0604067
0.179027
0.102882
0.0874683
0.0797293
0.0745428
0.0707386
0.0678788
0.0657286
0.0641288
0.0629577
0.0621172
0.0615273
0.061123
0.0608528
0.0606766
0.0605647
0.0604955
0.0604538
0.0604295
0.0604159
0.0604088
0.0604057
0.0604049
0.179027
0.102882
0.0874683
0.0797293
0.0745428
0.0707385
0.0678787
0.0657285
0.0641287
0.0629576
0.0621171
0.0615271
0.0611228
0.0608525
0.0606763
0.0605643
0.060495
0.0604533
0.0604289
0.0604152
0.060408
0.0604048
0.060404
0.179027
0.102882
0.0874683
0.0797293
0.0745428
0.0707385
0.0678787
0.0657285
0.0641287
0.0629575
0.062117
0.061527
0.0611227
0.0608524
0.0606761
0.0605641
0.0604948
0.060453
0.0604285
0.0604148
0.0604076
0.0604043
0.0604035
0.179027
0.102882
0.0874683
0.0797293
0.0745428
0.0707385
0.0678787
0.0657285
0.0641286
0.0629575
0.062117
0.061527
0.0611226
0.0608523
0.0606761
0.060564
0.0604947
0.0604528
0.0604284
0.0604146
0.0604074
0.0604041
0.0604033
0.179027
0.102882
0.0874683
0.0797293
0.0745428
0.0707385
0.0678787
0.0657285
0.0641286
0.0629575
0.062117
0.061527
0.0611226
0.0608523
0.060676
0.060564
0.0604946
0.0604527
0.0604283
0.0604145
0.0604073
0.060404
0.0604031
0.179027
0.102882
0.0874683
0.0797293
0.0745428
0.0707385
0.0678787
0.0657285
0.0641286
0.0629575
0.0621169
0.061527
0.0611226
0.0608522
0.060676
0.060564
0.0604946
0.0604527
0.0604282
0.0604145
0.0604072
0.0604039
0.0604031
0.179027
0.102882
0.0874683
0.0797293
0.0745428
0.0707385
0.0678787
0.0657285
0.0641286
0.0629575
0.0621169
0.061527
0.0611226
0.0608522
0.060676
0.0605639
0.0604945
0.0604527
0.0604282
0.0604144
0.0604072
0.0604039
0.060403
0.179027
0.102882
0.0874683
0.0797293
0.0745428
0.0707385
0.0678787
0.0657285
0.0641286
0.0629575
0.0621169
0.061527
0.0611226
0.0608522
0.060676
0.0605639
0.0604945
0.0604527
0.0604282
0.0604144
0.0604072
0.0604039
0.060403
0.179027
0.102882
0.0874683
0.0797293
0.0745428
0.0707385
0.0678787
0.0657285
0.0641286
0.0629575
0.0621169
0.061527
0.0611226
0.0608522
0.060676
0.0605639
0.0604945
0.0604527
0.0604282
0.0604144
0.0604071
0.0604038
0.060403
0.179027
0.102882
0.0874683
0.0797293
0.0745428
0.0707385
0.0678787
0.0657285
0.0641286
0.0629575
0.0621169
0.061527
0.0611226
0.0608522
0.060676
0.0605639
0.0604945
0.0604527
0.0604282
0.0604144
0.0604071
0.0604038
0.060403
0.179027
0.102882
0.0874683
0.0797293
0.0745428
0.0707385
0.0678787
0.0657285
0.0641286
0.0629575
0.0621169
0.061527
0.0611226
0.0608522
0.060676
0.0605639
0.0604945
0.0604527
0.0604282
0.0604144
0.0604071
0.0604038
0.060403
0.179027
0.102882
0.0874683
0.0797293
0.0745428
0.0707385
0.0678787
0.0657285
0.0641286
0.0629575
0.0621169
0.061527
0.0611226
0.0608522
0.060676
0.0605639
0.0604945
0.0604527
0.0604282
0.0604144
0.0604071
0.0604038
0.060403
0.179027
0.102882
0.0874683
0.0797293
0.0745428
0.0707385
0.0678787
0.0657285
0.0641286
0.0629575
0.0621169
0.061527
0.0611226
0.0608522
0.060676
0.0605639
0.0604945
0.0604526
0.0604281
0.0604144
0.0604071
0.0604038
0.060403
0.179027
0.102882
0.0874683
0.0797293
0.0745428
0.0707385
0.0678787
0.0657285
0.0641286
0.0629575
0.0621169
0.0615269
0.0611226
0.0608522
0.0606759
0.0605639
0.0604945
0.0604526
0.0604281
0.0604144
0.0604071
0.0604038
0.0604029
0.179027
0.102882
0.0874683
0.0797293
0.0745428
0.0707385
0.0678787
0.0657285
0.0641286
0.0629575
0.0621169
0.0615269
0.0611226
0.0608522
0.0606759
0.0605639
0.0604945
0.0604526
0.0604281
0.0604143
0.0604071
0.0604037
0.0604029
0.179027
0.102882
0.0874683
0.0797293
0.0745428
0.0707385
0.0678787
0.0657285
0.0641286
0.0629575
0.0621169
0.0615269
0.0611226
0.0608522
0.0606759
0.0605639
0.0604945
0.0604526
0.0604281
0.0604143
0.060407
0.0604037
0.0604028
0.179027
0.102882
0.0874683
0.0797293
0.0745428
0.0707385
0.0678787
0.0657285
0.0641286
0.0629575
0.0621169
0.0615269
0.0611226
0.0608522
0.0606759
0.0605639
0.0604945
0.0604526
0.0604281
0.0604143
0.060407
0.0604036
0.0604028
0.179027
0.102882
0.0874683
0.0797293
0.0745428
0.0707385
0.0678787
0.0657285
0.0641286
0.0629575
0.0621169
0.0615269
0.0611226
0.0608522
0.0606759
0.0605639
0.0604945
0.0604526
0.0604281
0.0604142
0.0604069
0.0604036
0.0604027
0.179027
0.102882
0.0874683
0.0797293
0.0745428
0.0707385
0.0678787
0.0657285
0.0641286
0.0629575
0.0621169
0.0615269
0.0611226
0.0608522
0.0606759
0.0605639
0.0604944
0.0604526
0.060428
0.0604142
0.0604069
0.0604035
0.0604026
0.179027
0.102882
0.0874683
0.0797293
0.0745428
0.0707385
0.0678787
0.0657285
0.0641286
0.0629575
0.0621169
0.0615269
0.0611226
0.0608522
0.0606759
0.0605639
0.0604944
0.0604525
0.060428
0.0604142
0.0604069
0.0604035
0.0604025
0.179027
0.102882
0.0874683
0.0797293
0.0745428
0.0707385
0.0678787
0.0657285
0.0641286
0.0629575
0.0621169
0.0615269
0.0611226
0.0608522
0.0606759
0.0605639
0.0604944
0.0604525
0.060428
0.0604142
0.0604068
0.0604034
0.0604025
0.344548
0.263488
0.262883
0.341031
0.122617
0.123314
0.123261
0.122504
0.0908537
0.0919317
0.091929
0.0908521
0.0788567
0.0793119
0.0793145
0.0788653
0.0723983
0.0726059
0.0726089
0.0724075
0.0683981
0.0685048
0.0685073
0.0684057
0.0657598
0.0658195
0.0658215
0.0657658
0.0639729
0.0640081
0.0640097
0.0639778
0.0627547
0.0627761
0.0627774
0.0627588
0.0619284
0.0619417
0.0619429
0.0619321
0.0613751
0.0613834
0.0613845
0.0613784
0.0610107
0.061016
0.061017
0.0610139
0.0607756
0.060779
0.06078
0.0607786
0.060627
0.0606293
0.0606303
0.06063
0.0605352
0.0605368
0.0605378
0.0605381
0.0604796
0.0604809
0.0604818
0.0604826
0.0604467
0.0604478
0.0604487
0.0604497
0.0604277
0.0604286
0.0604295
0.0604306
0.0604168
0.0604176
0.0604186
0.0604197
0.0604108
0.0604115
0.0604125
0.0604137
0.0604074
0.0604082
0.0604091
0.0604104
0.0604056
0.0604064
0.0604073
0.0604086
0.0604047
0.0604054
0.0604064
0.0604076
0.0604042
0.0604049
0.0604059
0.0604071
0.0604039
0.0604047
0.0604056
0.0604069
0.0604038
0.0604046
0.0604055
0.0604067
0.0604038
0.0604045
0.0604054
0.0604067
0.0604037
0.0604045
0.0604054
0.0604066
0.0604037
0.0604044
0.0604054
0.0604066
0.0604037
0.0604044
0.0604054
0.0604066
0.0604037
0.0604044
0.0604054
0.0604066
0.0604037
0.0604044
0.0604053
0.0604066
0.0604037
0.0604044
0.0604053
0.0604066
0.0604036
0.0604044
0.0604053
0.0604066
0.0604036
0.0604043
0.0604053
0.0604065
0.0604036
0.0604043
0.0604052
0.0604065
0.0604035
0.0604042
0.0604052
0.0604064
0.0604034
0.0604041
0.0604051
0.0604063
0.0604033
0.060404
0.060405
0.0604062
0.0604032
0.0604039
0.0604049
0.0604061
0.0604031
0.0604038
0.0604047
0.060406
0.060403
0.0604037
0.0604046
0.0604059
0.142696
0.0997463
0.085464
0.0796237
0.0768344
0.0753732
0.0745863
0.0741927
0.0740652
0.0741547
0.0744604
0.0750181
0.0758943
0.077187
0.0790435
0.081736
0.086008
0.0952748
0.147877
0.104028
0.0888104
0.080559
0.0760601
0.0735241
0.0720642
0.071239
0.0708239
0.0707083
0.0708514
0.0712623
0.0719912
0.0731264
0.0747988
0.0772046
0.0806938
0.0861558
0.0974581
0.156639
0.0867303
0.080465
0.0757912
0.0726593
0.0706424
0.0693815
0.0686382
0.0682689
0.0681988
0.0684061
0.0689134
0.0697837
0.0711206
0.0730747
0.0758702
0.0799005
0.0861409
0.09875
0.162233
0.0774197
0.0744855
0.0717933
0.0696997
0.0682047
0.0672063
0.0666014
0.0663155
0.0663111
0.0665878
0.0671827
0.0681704
0.0696652
0.0718299
0.0749044
0.0793058
0.0860584
0.0995009
0.16573
0.0717629
0.0702441
0.0686513
0.067275
0.0662138
0.065471
0.0650186
0.0648308
0.0649003
0.0652463
0.0659194
0.0670038
0.0686218
0.0709439
0.0742185
0.0788746
0.0859631
0.0999293
0.167867
0.0680755
0.0672308
0.066266
0.0653696
0.0646406
0.0641171
0.0638079
0.0637173
0.0638599
0.0642709
0.0650116
0.0661746
0.0678879
0.0703267
0.0737437
0.0785736
0.0858801
0.10017
0.169142
0.0655822
0.0650902
0.064497
0.0639192
0.0634343
0.0630863
0.0629002
0.0628969
0.0631061
0.0635744
0.064372
0.0655974
0.0673832
0.0699073
0.0734245
0.0783714
0.0858173
0.100302
0.169886
0.0638711
0.0635772
0.0632112
0.0628449
0.0625349
0.0623214
0.0622346
0.0623049
0.0625709
0.0630874
0.063931
0.0652049
0.0670447
0.06963
0.0732162
0.0782404
0.0857737
0.100374
0.170312
0.0626956
0.0625189
0.062295
0.0620693
0.0618823
0.0617681
0.0617583
0.0618871
0.0621991
0.0627543
0.063634
0.0649444
0.0668233
0.0694514
0.0730843
0.0781584
0.0857455
0.100413
0.170551
0.0618948
0.0617894
0.0616558
0.0615231
0.061421
0.0613783
0.0614256
0.0615991
0.0619467
0.0625318
0.0634386
0.0647757
0.0666822
0.0693395
0.073003
0.0781087
0.0857281
0.100434
0.170683
0.0613569
0.0612958
0.0612195
0.061148
0.0611035
0.0611107
0.061199
0.0614053
0.0617792
0.0623864
0.063313
0.064669
0.0665945
0.0692712
0.0729543
0.0780794
0.0857179
0.100445
0.170755
0.061002
0.0609685
0.0609286
0.0608967
0.0608904
0.0609317
0.0610485
0.061278
0.0616707
0.0622937
0.0632341
0.0646031
0.0665413
0.0692305
0.0729259
0.0780627
0.0857121
0.100451
0.170794
0.0607727
0.0607562
0.0607391
0.0607325
0.0607511
0.0608149
0.0609509
0.0611963
0.061602
0.0622358
0.0631856
0.0645633
0.0665097
0.0692067
0.0729096
0.0780533
0.0857089
0.100454
0.170815
0.0606277
0.0606216
0.0606186
0.0606278
0.0606623
0.0607406
0.0608891
0.061145
0.0615593
0.0622004
0.0631565
0.0645398
0.0664913
0.0691932
0.0729006
0.0780482
0.0857072
0.100456
0.170826
0.060538
0.0605382
0.0605438
0.0605627
0.0606069
0.0606943
0.0608509
0.0611135
0.0615335
0.0621792
0.0631393
0.0645261
0.0664809
0.0691857
0.0728956
0.0780454
0.0857063
0.100457
0.170831
0.0604837
0.0604876
0.0604983
0.060523
0.0605733
0.0606663
0.0608277
0.0610946
0.0615181
0.0621667
0.0631294
0.0645183
0.066475
0.0691815
0.0728929
0.078044
0.0857058
0.100457
0.170834
0.0604516
0.0604576
0.0604713
0.0604995
0.0605532
0.0606496
0.060814
0.0610835
0.0615091
0.0621596
0.0631237
0.064514
0.0664718
0.0691793
0.0728915
0.0780432
0.0857056
0.100457
0.170836
0.0604329
0.0604402
0.0604556
0.0604857
0.0605415
0.0606398
0.0608061
0.061077
0.061504
0.0621555
0.0631205
0.0645116
0.0664701
0.0691781
0.0728908
0.0780429
0.0857055
0.100457
0.170837
0.0604223
0.0604303
0.0604466
0.0604779
0.0605348
0.0606343
0.0608015
0.0610734
0.0615011
0.0621532
0.0631188
0.0645103
0.0664691
0.0691775
0.0728904
0.0780427
0.0857054
0.100458
0.170837
0.0604164
0.0604247
0.0604416
0.0604735
0.0605311
0.0606312
0.060799
0.0610714
0.0614995
0.062152
0.0631179
0.0645096
0.0664686
0.0691771
0.0728902
0.0780426
0.0857054
0.100458
0.170837
0.0604131
0.0604217
0.0604388
0.060471
0.060529
0.0606294
0.0607976
0.0610703
0.0614986
0.0621513
0.0631174
0.0645092
0.0664684
0.069177
0.0728901
0.0780425
0.0857054
0.100458
0.170837
0.0604114
0.06042
0.0604373
0.0604697
0.0605279
0.0606285
0.0607969
0.0610697
0.0614981
0.062151
0.0631171
0.0645091
0.0664683
0.0691769
0.0728901
0.0780425
0.0857054
0.100458
0.170837
0.0604104
0.0604192
0.0604365
0.060469
0.0605273
0.060628
0.0607965
0.0610693
0.0614979
0.0621508
0.063117
0.064509
0.0664682
0.0691769
0.07289
0.0780425
0.0857054
0.100458
0.170837
0.06041
0.0604187
0.0604361
0.0604687
0.060527
0.0606278
0.0607962
0.0610692
0.0614978
0.0621507
0.0631169
0.0645089
0.0664682
0.0691768
0.07289
0.0780425
0.0857054
0.100458
0.170837
0.0604097
0.0604185
0.0604359
0.0604685
0.0605268
0.0606276
0.0607961
0.0610691
0.0614977
0.0621506
0.0631169
0.0645089
0.0664681
0.0691768
0.07289
0.0780425
0.0857054
0.100458
0.170837
0.0604096
0.0604184
0.0604358
0.0604684
0.0605267
0.0606276
0.0607961
0.061069
0.0614977
0.0621506
0.0631168
0.0645089
0.0664681
0.0691768
0.07289
0.0780425
0.0857054
0.100458
0.170837
0.0604095
0.0604183
0.0604357
0.0604683
0.0605267
0.0606275
0.0607961
0.061069
0.0614977
0.0621506
0.0631168
0.0645089
0.0664681
0.0691768
0.07289
0.0780425
0.0857054
0.100458
0.170837
0.0604095
0.0604183
0.0604357
0.0604683
0.0605267
0.0606275
0.060796
0.061069
0.0614976
0.0621506
0.0631168
0.0645089
0.0664681
0.0691768
0.07289
0.0780425
0.0857054
0.100458
0.170837
0.0604095
0.0604182
0.0604357
0.0604683
0.0605267
0.0606275
0.060796
0.061069
0.0614976
0.0621506
0.0631168
0.0645089
0.0664681
0.0691768
0.07289
0.0780425
0.0857054
0.100458
0.170837
0.0604095
0.0604182
0.0604357
0.0604683
0.0605267
0.0606275
0.060796
0.061069
0.0614976
0.0621506
0.0631168
0.0645089
0.0664681
0.0691768
0.07289
0.0780425
0.0857054
0.100458
0.170837
0.0604094
0.0604182
0.0604357
0.0604683
0.0605267
0.0606275
0.060796
0.061069
0.0614976
0.0621506
0.0631168
0.0645089
0.0664681
0.0691768
0.07289
0.0780425
0.0857054
0.100458
0.170837
0.0604094
0.0604182
0.0604357
0.0604683
0.0605267
0.0606275
0.060796
0.061069
0.0614976
0.0621506
0.0631168
0.0645089
0.0664681
0.0691768
0.07289
0.0780425
0.0857054
0.100458
0.170837
0.0604094
0.0604182
0.0604357
0.0604683
0.0605267
0.0606275
0.060796
0.061069
0.0614976
0.0621506
0.0631168
0.0645089
0.0664681
0.0691768
0.07289
0.0780425
0.0857054
0.100458
0.170837
0.0604094
0.0604182
0.0604356
0.0604683
0.0605266
0.0606275
0.060796
0.061069
0.0614976
0.0621506
0.0631168
0.0645089
0.0664681
0.0691768
0.07289
0.0780425
0.0857054
0.100458
0.170837
0.0604094
0.0604182
0.0604356
0.0604682
0.0605266
0.0606275
0.060796
0.061069
0.0614976
0.0621506
0.0631168
0.0645089
0.0664681
0.0691768
0.07289
0.0780425
0.0857054
0.100458
0.170837
0.0604093
0.0604181
0.0604356
0.0604682
0.0605266
0.0606275
0.060796
0.061069
0.0614976
0.0621506
0.0631168
0.0645089
0.0664681
0.0691768
0.07289
0.0780425
0.0857054
0.100458
0.170837
0.0604093
0.0604181
0.0604356
0.0604682
0.0605266
0.0606274
0.060796
0.061069
0.0614976
0.0621506
0.0631168
0.0645089
0.0664681
0.0691768
0.07289
0.0780425
0.0857054
0.100458
0.170837
0.0604092
0.060418
0.0604355
0.0604682
0.0605266
0.0606274
0.060796
0.061069
0.0614976
0.0621506
0.0631168
0.0645089
0.0664681
0.0691768
0.07289
0.0780425
0.0857054
0.100458
0.170837
0.0604091
0.0604179
0.0604355
0.0604681
0.0605265
0.0606274
0.060796
0.061069
0.0614976
0.0621506
0.0631168
0.0645089
0.0664681
0.0691768
0.07289
0.0780425
0.0857054
0.100458
0.170837
0.060409
0.0604179
0.0604354
0.0604681
0.0605265
0.0606274
0.060796
0.061069
0.0614976
0.0621506
0.0631168
0.0645089
0.0664681
0.0691768
0.07289
0.0780425
0.0857054
0.100458
0.170837
0.0604089
0.0604178
0.0604354
0.0604681
0.0605265
0.0606274
0.0607959
0.0610689
0.0614976
0.0621506
0.0631168
0.0645088
0.0664681
0.0691768
0.07289
0.0780425
0.0857054
0.100458
0.170837
0.0604088
0.0604178
0.0604353
0.060468
0.0605265
0.0606274
0.0607959
0.0610689
0.0614976
0.0621506
0.0631168
0.0645088
0.0664681
0.0691768
0.07289
0.0780425
0.0857054
0.100458
0.170837
)
;

boundaryField
{
    leftWall
    {
        type            epsilonWallFunction;
        blending        stepwise;
        value           nonuniform List<scalar> 
50
(
0.0380679
0.0557386
0.0785706
0.0970954
0.112205
0.124601
0.134791
0.143173
0.154017
0.163542
0.169636
0.173452
0.175785
0.177178
0.177991
0.178456
0.178716
0.17886
0.178939
0.17898
0.179003
0.179015
0.179021
0.179024
0.179025
0.179026
0.179027
0.179027
0.179027
0.179027
0.179027
0.179027
0.179027
0.179027
0.179027
0.179027
0.179027
0.179027
0.179027
0.179027
0.179027
0.179027
0.179027
0.179027
0.179027
0.179027
0.179027
0.179027
0.179027
0.179027
)
;
    }
    rightWall
    {
        type            epsilonWallFunction;
        blending        stepwise;
        value           nonuniform List<scalar> 
50
(
0.0418143
0.0563703
0.0779818
0.0952627
0.109269
0.120731
0.130145
0.13788
0.147877
0.156639
0.162233
0.16573
0.167867
0.169142
0.169886
0.170312
0.170551
0.170683
0.170755
0.170794
0.170815
0.170826
0.170831
0.170834
0.170836
0.170837
0.170837
0.170837
0.170837
0.170837
0.170837
0.170837
0.170837
0.170837
0.170837
0.170837
0.170837
0.170837
0.170837
0.170837
0.170837
0.170837
0.170837
0.170837
0.170837
0.170837
0.170837
0.170837
0.170837
0.170837
)
;
    }
    lowerWall
    {
        type            epsilonWallFunction;
        blending        stepwise;
        value           nonuniform List<scalar> 
62
(
0.0380679
0.106182
0.159397
0.195966
0.220851
0.237577
0.248595
0.255671
0.26008
0.262725
0.264216
0.264925
0.265026
0.264509
0.263158
0.260489
0.255635
0.247164
0.232813
0.20911
0.171003
0.11218
0.0331291
0.0331291
0.0553247
0.0820873
0.105019
0.126792
0.151594
0.192333
0.303748
0.344548
0.263488
0.262883
0.341031
0.0362905
0.0554219
0.0810152
0.1026
0.12308
0.146887
0.186803
0.29127
0.0362905
0.120993
0.18134
0.218367
0.240032
0.252277
0.258917
0.262256
0.263588
0.26351
0.262107
0.259019
0.25344
0.244053
0.228908
0.205207
0.168876
0.114108
0.0418143
)
;
    }
    atmosphere
    {
        type            inletOutlet;
        inletValue      uniform 0.1;
        value           nonuniform List<scalar> 
46
(
0.179027
0.102882
0.0874683
0.0797293
0.0745428
0.0707385
0.0678787
0.0657285
0.0641286
0.0629575
0.0621169
0.0615269
0.0611226
0.0608522
0.0606759
0.0605639
0.0604944
0.0604525
0.060428
0.0604142
0.0604068
0.0604034
0.0604025
0.060403
0.0604037
0.0604046
0.0604059
0.0604088
0.0604178
0.0604353
0.060468
0.0605265
0.0606274
0.0607959
0.0610689
0.0614976
0.0621506
0.0631168
0.0645088
0.0664681
0.0691768
0.07289
0.0780425
0.0857054
0.100458
0.170837
)
;
    }
    defaultFaces
    {
        type            empty;
    }
}


// ************************************************************************* //
