/*--------------------------------*- C++ -*----------------------------------*\
| =========                 |                                                 |
| \\      /  F ield         | OpenFOAM: The Open Source CFD Toolbox           |
|  \\    /   O peration     | Version:  2406                                  |
|   \\  /    A nd           | Website:  www.openfoam.com                      |
|    \\/     M anipulation  |                                                 |
\*---------------------------------------------------------------------------*/
FoamFile
{
    version     2.0;
    format      ascii;
    arch        "LSB;label=32;scalar=64";
    class       volScalarField;
    location    "0.3";
    object      k;
}
// * * * * * * * * * * * * * * * * * * * * * * * * * * * * * * * * * * * * * //

dimensions      [0 2 -2 0 0 0 0];

internalField   nonuniform List<scalar> 
2268
(
0.1
0.1
0.1
0.1
0.1
0.1
0.1
0.1
0.1
0.1
0.1
0.1
0.1
0.00955736
0.00893457
0.0108538
0.0119401
0.0124253
0.0123849
0.0117789
0.0104415
0.0079852
0.0035243
0.1
0.1
0.1
0.1
0.1
0.1
0.1
0.1
0.1
0.1
0.1
0.1
0.1
0.0167093
0.0208236
0.0246091
0.0268246
0.0278294
0.0277522
0.0265001
0.0237149
0.0185794
0.00820131
0.1
0.1
0.1
0.1
0.1
0.1
0.1
0.1
0.1
0.1
0.1
0.1
0.1
0.0214288
0.0269721
0.0314418
0.0340897
0.0353154
0.0352536
0.0337855
0.0304651
0.0242198
0.0106638
0.1
0.1
0.1
0.1
0.1
0.1
0.1
0.1
0.1
0.1
0.1
0.1
0.1
0.0249159
0.0313404
0.0361905
0.0390706
0.0404316
0.0404152
0.0388896
0.0353474
0.0284693
0.0125523
0.1
0.1
0.1
0.1
0.1
0.1
0.1
0.1
0.1
0.1
0.1
0.1
0.1
0.027637
0.0347256
0.0398644
0.0429072
0.0443759
0.0444325
0.0429462
0.0393698
0.0321435
0.0142322
0.1
0.1
0.1
0.1
0.1
0.1
0.1
0.1
0.1
0.1
0.1
0.1
0.1
0.0298409
0.0374498
0.0428327
0.0460094
0.0475791
0.0477349
0.0463652
0.0429199
0.0356602
0.0160739
0.1
0.1
0.1
0.1
0.1
0.1
0.1
0.1
0.1
0.1
0.1
0.1
0.1
0.0316808
0.0396968
0.0452886
0.0485839
0.0502548
0.0505337
0.0493459
0.0461962
0.0393508
0.018966
0.1
0.1
0.1
0.1
0.1
0.1
0.1
0.1
0.1
0.1
0.1
0.1
0.1
0.0332604
0.0415851
0.0473496
0.0507523
0.052527
0.0529473
0.0519909
0.0492795
0.0434464
0.0259712
0.00375807
0.00849722
0.0110822
0.0125586
0.0134062
0.0138819
0.0141378
0.0142651
0.0143152
0.0143122
0.0142593
0.0141421
0.0139274
0.0135607
0.0129615
0.0120118
0.0105223
0.00811919
0.00515106
0.00885224
0.0197132
0.0251469
0.0282431
0.0300188
0.0310201
0.0315639
0.0318372
0.031945
0.0319358
0.0318161
0.0315557
0.0310867
0.0302973
0.029019
0.0269999
0.0238317
0.0187139
0.00891735
0.0114352
0.0256939
0.0323355
0.0360747
0.038225
0.0394503
0.0401255
0.0404696
0.0406047
0.0405876
0.0404249
0.0400794
0.0394695
0.0384614
0.0368537
0.034342
0.0304271
0.024099
0.011094
0.013418
0.0302201
0.0375519
0.0415918
0.0439149
0.0452517
0.0459987
0.0463837
0.0465333
0.0465058
0.0463066
0.0458941
0.0451797
0.0440187
0.0421931
0.0393685
0.034986
0.0278689
0.0126894
0.0152051
0.0341464
0.0418531
0.0459909
0.04837
0.049753
0.0505364
0.0509438
0.0510992
0.0510587
0.0508253
0.0503543
0.0495528
0.0482705
0.0462791
0.0432234
0.038495
0.0307678
0.0139217
0.017215
0.0378821
0.0456277
0.0496941
0.052042
0.0534238
0.054217
0.0546324
0.0547864
0.0547304
0.0544641
0.0539403
0.0530636
0.0516803
0.0495555
0.0463175
0.0413149
0.0330881
0.0149119
0.020405
0.0417219
0.0490629
0.0529017
0.0551494
0.0564934
0.0572756
0.0576872
0.0578336
0.0577598
0.0574617
0.05689
0.0559472
0.054478
0.0522427
0.0488564
0.0436309
0.0349908
0.0157338
0.0277342
0.0458355
0.0522324
0.055718
0.0578156
0.0590951
0.0598502
0.0602484
0.0603819
0.0602885
0.0599599
0.0593442
0.0583431
0.0567996
0.0544708
0.0509613
0.0455535
0.0365758
0.0164393
0.1
0.1
0.1
0.1
0.1
0.1
0.1
0.1
0.1
0.1
0.1
0.1
0.1
0.0354294
0.0440887
0.0500682
0.0536246
0.0555647
0.0562229
0.0556677
0.05374
0.0499376
0.0428748
0.1
0.1
0.1
0.1
0.1
0.1
0.1
0.1
0.1
0.1
0.1
0.1
0.1
0.0375744
0.0464357
0.0526466
0.0564096
0.058587
0.0595816
0.0595648
0.0585799
0.0566058
0.0536697
0.1
0.1
0.1
0.1
0.1
0.1
0.1
0.1
0.1
0.1
0.1
0.1
0.1
0.0392165
0.0481045
0.0545004
0.058461
0.0608699
0.062176
0.0626177
0.0623425
0.0614956
0.0603355
0.1
0.1
0.1
0.1
0.1
0.1
0.1
0.1
0.1
0.1
0.1
0.1
0.1
0.0405423
0.0493361
0.0558652
0.0599989
0.0626144
0.0641851
0.0649848
0.0652029
0.0650186
0.0646654
0.1
0.1
0.1
0.1
0.1
0.1
0.1
0.1
0.1
0.1
0.1
0.1
0.1
0.0416505
0.050272
0.0568857
0.0611594
0.0639468
0.0657295
0.0667955
0.0673456
0.0675537
0.0676036
0.1
0.1
0.1
0.1
0.1
0.1
0.1
0.1
0.1
0.1
0.1
0.1
0.1
0.0425962
0.0509987
0.0576551
0.0620344
0.0649572
0.0669025
0.0681614
0.0689338
0.0693803
0.0696496
0.1
0.1
0.1
0.1
0.1
0.1
0.1
0.1
0.1
0.1
0.1
0.1
0.1
0.0434131
0.051572
0.0582378
0.062691
0.0657151
0.0677811
0.0691773
0.0700989
0.0706947
0.0710921
0.1
0.1
0.1
0.1
0.1
0.1
0.1
0.1
0.1
0.1
0.1
0.1
0.1
0.0441232
0.0520306
0.0586805
0.0631808
0.066277
0.0684298
0.0699222
0.0709441
0.0716357
0.0721113
0.1
0.1
0.1
0.1
0.1
0.1
0.1
0.1
0.1
0.1
0.1
0.1
0.1
0.044742
0.0524022
0.0590193
0.0635453
0.0666899
0.0689027
0.0704612
0.0715501
0.0723034
0.0728281
0.1
0.1
0.1
0.1
0.1
0.1
0.1
0.1
0.1
0.1
0.1
0.1
0.1
0.0452818
0.0527084
0.0592826
0.0638187
0.0669934
0.0692457
0.0708477
0.0719802
0.0727729
0.0733281
0.1
0.1
0.1
0.1
0.1
0.1
0.1
0.1
0.1
0.1
0.1
0.1
0.1
0.0457527
0.0529668
0.0594943
0.0640299
0.0672209
0.0694968
0.0711256
0.0722848
0.0731012
0.0736743
0.1
0.1
0.1
0.1
0.1
0.1
0.1
0.1
0.1
0.1
0.1
0.1
0.1
0.0461649
0.0531939
0.0596764
0.0642048
0.0674014
0.0696886
0.0713309
0.0725037
0.0733322
0.073914
0.1
0.1
0.1
0.1
0.1
0.1
0.1
0.1
0.1
0.1
0.1
0.1
0.1
0.0465314
0.0534093
0.0598526
0.064369
0.067562
0.0698491
0.0714932
0.0726687
0.0734998
0.0740828
0.1
0.1
0.1
0.1
0.1
0.1
0.1
0.1
0.1
0.1
0.1
0.1
0.1
0.0468732
0.0536424
0.0600535
0.0645517
0.0677297
0.0700041
0.071638
0.0728054
0.07363
0.0742075
0.1
0.1
0.1
0.1
0.1
0.1
0.1
0.1
0.1
0.1
0.1
0.1
0.1
0.047232
0.0539441
0.0603247
0.0647899
0.0679342
0.0701783
0.071787
0.0729342
0.0737429
0.0743078
0.1
0.1
0.1
0.1
0.1
0.1
0.1
0.1
0.1
0.1
0.1
0.1
0.1
0.0476999
0.0544092
0.060737
0.0651318
0.0682086
0.0703959
0.0719593
0.0730715
0.0738534
0.074398
0.1
0.1
0.1
0.1
0.1
0.1
0.1
0.1
0.1
0.1
0.1
0.1
0.1
0.0484979
0.055213
0.061394
0.0656355
0.0685868
0.0706782
0.0721702
0.0732295
0.0739723
0.074488
0.1
0.1
0.1
0.1
0.1
0.1
0.1
0.1
0.1
0.1
0.1
0.1
0.1
0.0501603
0.0566405
0.0624173
0.0663541
0.0690943
0.0710398
0.0724292
0.0734155
0.0741058
0.0745838
0.1
0.1
0.1
0.1
0.1
0.1
0.1
0.1
0.1
0.1
0.1
0.1
0.1
0.053613
0.0589455
0.0638602
0.0672981
0.0697336
0.0714815
0.0727374
0.073631
0.0742562
0.074688
0.1
0.1
0.1
0.1
0.1
0.1
0.1
0.1
0.1
0.1
0.1
0.1
0.0531535
0.0562635
0.0615915
0.0655499
0.0684013
0.0704746
0.0719881
0.0730866
0.0738719
0.0744214
0.0748003
0.0216507
0.0336959
0.039541
0.0428904
0.0448937
0.046102
0.0468396
0.0473363
0.0478079
0.0485577
0.0501736
0.0536037
0.056266
0.0606054
0.0643871
0.067337
0.0695801
0.0712707
0.072533
0.0734613
0.0741289
0.0745964
0.0749179
0.014143
0.0320508
0.0402164
0.0451611
0.0483423
0.0504434
0.0518724
0.0529185
0.0538358
0.0549077
0.0564906
0.0588787
0.0615658
0.0643775
0.0669161
0.0690364
0.0707372
0.072067
0.0730837
0.0738418
0.0743903
0.074774
0.0750368
0.0153943
0.0348688
0.0437948
0.0493201
0.052996
0.0555139
0.0572866
0.0586041
0.059702
0.060799
0.0620957
0.0636992
0.0654768
0.0673075
0.0690277
0.0705366
0.0717983
0.0728156
0.0736097
0.0742088
0.0746438
0.0749468
0.0751526
0.0166234
0.0372555
0.0466354
0.0524598
0.056393
0.0591385
0.0611045
0.0625687
0.0637429
0.0648007
0.0658776
0.0670439
0.0682778
0.0695286
0.0707222
0.0717981
0.0727226
0.0734845
0.0740881
0.0745468
0.0748793
0.0751084
0.0752615
0.0174479
0.0389563
0.0486836
0.0547143
0.0588112
0.0616983
0.0637825
0.0653317
0.06654
0.0675554
0.0684869
0.0693989
0.0703082
0.0712027
0.0720522
0.0728248
0.0734973
0.0740583
0.0745059
0.0748461
0.0750902
0.0752546
0.0753611
0.0179791
0.0401092
0.0501123
0.0563082
0.0605281
0.0635155
0.0656799
0.0672834
0.0685095
0.0694927
0.0703305
0.0710867
0.0717938
0.0724607
0.0730807
0.0736407
0.0741281
0.0745351
0.0748592
0.0751031
0.075274
0.075384
0.0754509
0.0183129
0.040868
0.0510857
0.0574185
0.0617392
0.0648053
0.06703
0.0686729
0.0699116
0.0708737
0.0716513
0.0723087
0.0728856
0.073403
0.0738676
0.0742784
0.0746314
0.0749229
0.0751519
0.0753201
0.0754324
0.0754983
0.0755327
0.0185173
0.0413552
0.0517352
0.0581802
0.0625854
0.0657171
0.067991
0.0696658
0.0709162
0.0718662
0.0726057
0.0731992
0.0736909
0.0741084
0.0744669
0.0747732
0.0750296
0.0752363
0.0753939
0.0755042
0.0755711
0.0756023
0.0756109
0.0186397
0.0416622
0.0521621
0.0586972
0.0631735
0.0663611
0.068677
0.0703797
0.0716424
0.0725872
0.0733032
0.0738556
0.074291
0.0746415
0.0749275
0.0751612
0.075349
0.0754945
0.0755998
0.075667
0.0756996
0.0757043
0.0756929
0.0187126
0.0418555
0.0524438
0.0590513
0.0635875
0.0668237
0.0691768
0.070905
0.0721807
0.0731254
0.0738279
0.0743541
0.0747526
0.0750582
0.0752951
0.0754787
0.0756187
0.0757209
0.0757886
0.0758245
0.0758318
0.0758167
0.0757901
0.0187579
0.0419835
0.0526405
0.0593086
0.0638976
0.0671775
0.0695647
0.0713169
0.0726062
0.0735542
0.0742498
0.0747598
0.0751344
0.0754103
0.075614
0.0757636
0.0758708
0.0759429
0.0759841
0.0759977
0.0759868
0.075957
0.075919
0.0187913
0.0420842
0.0528026
0.0595277
0.0641672
0.0674892
0.0699091
0.0716843
0.0729875
0.0739405
0.0746332
0.0751334
0.0754924
0.0757486
0.0759303
0.0760569
0.0761418
0.0761932
0.0762162
0.0762141
0.0761902
0.0761498
0.0761033
0.0188261
0.0421929
0.0529804
0.0597689
0.0644629
0.0678283
0.0702805
0.0720777
0.0733936
0.0743516
0.0750429
0.0755363
0.0758846
0.0761275
0.0762941
0.0764052
0.076475
0.0765124
0.076523
0.0765102
0.0764772
0.0764292
0.0763764
0.0188784
0.0423542
0.0532378
0.0601077
0.0648657
0.0682776
0.0707607
0.0725763
0.0739011
0.0748611
0.0755493
0.0760362
0.0763756
0.0766081
0.0767637
0.0768639
0.0769233
0.0769513
0.0769536
0.0769336
0.0768947
0.0768416
0.0767844
0.0189742
0.0426399
0.0536731
0.0606547
0.0654885
0.0689461
0.0714527
0.0732769
0.0746011
0.0755551
0.0762345
0.0767114
0.0770405
0.0772631
0.0774094
0.0775011
0.0775529
0.0775745
0.0775714
0.0775471
0.0775048
0.077449
0.0773894
0.0191638
0.0431819
0.0544542
0.0615841
0.0664958
0.0699831
0.0724906
0.0743006
0.0756044
0.0765367
0.0771959
0.0776552
0.0779695
0.0781798
0.0783163
0.0784002
0.078446
0.078463
0.0784568
0.0784307
0.0783875
0.0783317
0.0782722
0.0195496
0.0442319
0.0558722
0.0631701
0.0681251
0.0715892
0.0740448
0.0757958
0.0770439
0.0779286
0.0785491
0.0789783
0.0792698
0.0794634
0.0795877
0.0796631
0.0797033
0.0797171
0.0797096
0.0796839
0.0796427
0.0795898
0.0795336
0.0203439
0.0462665
0.0584129
0.0658176
0.070693
0.0740122
0.0763164
0.0779334
0.079072
0.0798712
0.0804275
0.0808096
0.0810676
0.0812378
0.0813464
0.0814117
0.081446
0.0814572
0.0814499
0.081427
0.0813907
0.0813444
0.0812953
0.0219858
0.0501544
0.0628164
0.0700495
0.0745598
0.0775143
0.079513
0.0808915
0.0818507
0.0825184
0.0829802
0.0832958
0.0835079
0.0836474
0.083736
0.083789
0.0838167
0.0838256
0.0838198
0.0838016
0.083773
0.0837369
0.0836988
0.0254895
0.0574317
0.0700402
0.076377
0.08002
0.0823011
0.0838074
0.0848329
0.0855414
0.0860325
0.0863712
0.0866023
0.0867574
0.0868593
0.0869239
0.0869626
0.0869829
0.0869896
0.086986
0.0869738
0.0869549
0.0869314
0.0869072
0.0351117
0.0708341
0.0808896
0.0849636
0.0871165
0.0884321
0.089298
0.0898893
0.0902996
0.0905852
0.0907831
0.0909185
0.0910097
0.0910697
0.0911079
0.0911309
0.0911431
0.0911474
0.091146
0.09114
0.091131
0.0911204
0.0911105
0.0856283
0.0935262
0.0945014
0.0950606
0.0954798
0.0957884
0.0960118
0.0961726
0.0962881
0.0963703
0.0964284
0.0964687
0.0964962
0.0965145
0.0965263
0.0965334
0.0965373
0.0965389
0.0965389
0.0965379
0.0965365
0.0965356
0.0965359
0.028659
0.0240083
0.0240526
0.0288128
0.0511209
0.0501467
0.0502741
0.0515166
0.0596647
0.0594677
0.0596099
0.060096
0.0645268
0.0645397
0.0646856
0.0649679
0.0676765
0.0677669
0.0679155
0.0681257
0.069825
0.0699521
0.0701034
0.0702826
0.0713239
0.0714713
0.0716252
0.0717892
0.0723767
0.0725364
0.0726926
0.0728488
0.0731143
0.0732817
0.0734396
0.0735916
0.073627
0.0737991
0.0739582
0.0741076
0.0739803
0.0741551
0.0743145
0.0744622
0.074223
0.0743985
0.0745575
0.0747035
0.0743913
0.0745659
0.0747235
0.0748675
0.074512
0.0746841
0.0748391
0.0749804
0.0746048
0.0747725
0.0749235
0.0750612
0.0746837
0.0748449
0.0749904
0.0751233
0.0747581
0.0749108
0.0750489
0.0751755
0.074834
0.0749758
0.0751047
0.0752237
0.0749142
0.075043
0.0751611
0.0752711
0.0749992
0.0751132
0.0752191
0.0753189
0.0750873
0.0751856
0.0752782
0.0753673
0.0751761
0.0752581
0.0753374
0.0754154
0.0752625
0.0753288
0.0753949
0.0754623
0.0753442
0.0753957
0.0754496
0.0755069
0.0754195
0.0754579
0.0755009
0.0755492
0.0754885
0.0755157
0.0755492
0.0755898
0.0755531
0.0755709
0.0755967
0.0756308
0.0756175
0.0756278
0.0756472
0.0756761
0.0756887
0.075693
0.0757075
0.0757322
0.0757775
0.0757773
0.0757878
0.0758094
0.0759
0.0758962
0.0759038
0.0759228
0.0760794
0.0760728
0.076078
0.076095
0.0763486
0.0763399
0.0763432
0.0763586
0.0767538
0.0767434
0.0767451
0.0767591
0.0773571
0.0773454
0.0773458
0.0773584
0.0782394
0.0782271
0.0782265
0.0782375
0.0795022
0.0794901
0.0794887
0.079498
0.0812676
0.0812567
0.0812547
0.0812619
0.0836773
0.0836686
0.0836665
0.0836711
0.0868938
0.0868881
0.0868862
0.0868881
0.0911055
0.0911032
0.0911018
0.0911013
0.096537
0.0965373
0.0965367
0.0965353
0.0442602
0.0521684
0.0567365
0.0595857
0.0614059
0.0625577
0.0632526
0.0636183
0.0637254
0.0635993
0.063225
0.0625468
0.0614646
0.0598196
0.0573643
0.0536908
0.0480479
0.0386465
0.0174133
0.0547504
0.0586295
0.0615311
0.0635978
0.0650239
0.0659702
0.0665544
0.0668544
0.0669128
0.0667384
0.0663064
0.065556
0.0643836
0.0626275
0.0600342
0.0561834
0.0502935
0.0404743
0.018247
0.0613213
0.0633922
0.0652375
0.0666987
0.0677774
0.068523
0.0689886
0.0692136
0.0692168
0.0689924
0.0685064
0.0676923
0.0664429
0.0645928
0.0618831
0.0578832
0.0517887
0.0416454
0.0187503
0.0656289
0.0668564
0.0680616
0.0690892
0.0698876
0.0704555
0.0708077
0.0709568
0.0709037
0.07063
0.0700937
0.0692231
0.067907
0.0659764
0.0631676
0.0590419
0.0527797
0.0423902
0.0190544
0.0685693
0.0693716
0.0701895
0.0709167
0.0715001
0.0719198
0.0721707
0.0722487
0.0721415
0.0718214
0.0712394
0.0703189
0.0689452
0.0669461
0.0640538
0.0598241
0.0534288
0.0428582
0.0192364
0.0706259
0.071198
0.0717773
0.072299
0.0727218
0.0730225
0.0731871
0.0732019
0.0730456
0.0726834
0.0720608
0.0710972
0.0696746
0.0676182
0.0646572
0.0603444
0.0538472
0.0431475
0.0193438
0.0720809
0.0725208
0.0729499
0.0733311
0.0736359
0.0738438
0.0739377
0.0738985
0.0736994
0.0733004
0.0726429
0.0716429
0.0701799
0.0680769
0.0650614
0.0606844
0.0541119
0.0433233
0.0194061
0.0731118
0.0734724
0.073805
0.0740901
0.0743095
0.0744466
0.0744842
0.0744007
0.0741658
0.0737359
0.0730494
0.0720196
0.0705241
0.0683844
0.065327
0.0609023
0.0542763
0.0434282
0.0194416
0.0738379
0.0741496
0.0744195
0.0746389
0.0747971
0.0748814
0.0748756
0.074757
0.0744932
0.0740383
0.0733284
0.0722751
0.0707544
0.0685868
0.0654983
0.0610393
0.0543764
0.0434896
0.0194615
0.0743439
0.0746248
0.0748537
0.0750284
0.0751435
0.0751894
0.0751509
0.0750053
0.074719
0.0742446
0.0735166
0.0724452
0.0709055
0.0687174
0.0656067
0.0611239
0.0544364
0.043525
0.0194725
0.0746919
0.074953
0.075155
0.0752995
0.0753847
0.0754032
0.075341
0.0751753
0.0748721
0.0743829
0.0736412
0.0725564
0.0710029
0.0688002
0.065674
0.0611751
0.0544717
0.0435452
0.0194785
0.0749284
0.0751764
0.0753605
0.0754847
0.0755494
0.0755488
0.0754697
0.0752896
0.074974
0.0744739
0.0737223
0.0726278
0.0710646
0.0688518
0.0657151
0.0612057
0.0544921
0.0435564
0.0194818
0.0750881
0.0753266
0.0754985
0.0756091
0.0756599
0.0756461
0.0755553
0.075365
0.0750406
0.0745328
0.0737742
0.072673
0.071103
0.0688833
0.0657398
0.0612237
0.0545038
0.0435627
0.0194835
0.0751964
0.0754272
0.0755903
0.0756915
0.0757328
0.0757102
0.0756113
0.075414
0.0750835
0.0745704
0.0738068
0.072701
0.0711265
0.0689024
0.0657544
0.0612341
0.0545104
0.0435661
0.0194844
0.0752715
0.0754952
0.0756514
0.0757457
0.0757805
0.0757517
0.0756474
0.0754453
0.0751107
0.0745939
0.0738271
0.0727182
0.0711407
0.0689137
0.0657629
0.06124
0.0545141
0.043568
0.0194849
0.0753265
0.0755427
0.0756926
0.0757816
0.0758115
0.0757784
0.0756704
0.0754651
0.0751277
0.0746085
0.0738395
0.0727286
0.0711492
0.0689203
0.0657679
0.0612434
0.0545162
0.043569
0.0194852
0.07537
0.0755777
0.0757215
0.0758057
0.0758318
0.0757956
0.075685
0.0754775
0.0751382
0.0746174
0.073847
0.0727348
0.0711542
0.0689242
0.0657707
0.0612453
0.0545173
0.0435695
0.0194853
0.0754075
0.0756056
0.0757429
0.0758227
0.0758455
0.0758069
0.0756943
0.0754852
0.0751447
0.0746229
0.0738515
0.0727385
0.0711571
0.0689264
0.0657723
0.0612463
0.0545179
0.0435698
0.0194854
0.0754425
0.0756296
0.0757601
0.0758353
0.0758552
0.0758145
0.0757004
0.0754902
0.0751488
0.0746262
0.0738543
0.0727407
0.0711589
0.0689277
0.0657732
0.0612469
0.0545182
0.04357
0.0194854
0.0754766
0.0756518
0.0757749
0.0758455
0.0758625
0.0758199
0.0757046
0.0754935
0.0751514
0.0746283
0.073856
0.0727421
0.0711599
0.0689285
0.0657737
0.0612473
0.0545184
0.04357
0.0194854
0.0755103
0.0756729
0.0757883
0.0758544
0.0758685
0.0758241
0.0757077
0.0754958
0.0751533
0.0746298
0.0738571
0.072743
0.0711606
0.068929
0.0657741
0.0612475
0.0545185
0.0435701
0.0194854
0.0755434
0.0756933
0.0758011
0.0758625
0.0758739
0.0758278
0.0757104
0.0754979
0.0751548
0.074631
0.0738581
0.0727437
0.0711612
0.0689294
0.0657743
0.0612476
0.0545186
0.0435701
0.0194854
0.0755756
0.0757131
0.0758135
0.0758705
0.0758792
0.0758316
0.0757131
0.0755
0.0751565
0.0746324
0.0738593
0.0727446
0.0711619
0.0689299
0.0657747
0.0612478
0.0545187
0.0435702
0.0194854
0.0756067
0.0757326
0.075826
0.0758788
0.075885
0.0758359
0.0757165
0.0755028
0.0751589
0.0746344
0.0738609
0.072746
0.071163
0.0689307
0.0657752
0.0612482
0.0545189
0.0435702
0.0194854
0.0756367
0.0757522
0.0758393
0.0758883
0.0758922
0.0758417
0.0757214
0.075507
0.0751626
0.0746377
0.0738637
0.0727484
0.0711648
0.0689321
0.0657762
0.0612488
0.0545193
0.0435704
0.0194855
0.0756667
0.0757731
0.0758547
0.0759004
0.0759022
0.0758503
0.0757291
0.075514
0.0751689
0.0746433
0.0738687
0.0727525
0.0711682
0.0689347
0.065778
0.06125
0.0545199
0.0435707
0.0194855
0.0756989
0.0757976
0.0758745
0.0759172
0.0759172
0.0758639
0.0757417
0.0755256
0.0751797
0.0746531
0.0738774
0.0727601
0.0711744
0.0689395
0.0657815
0.0612522
0.0545212
0.0435712
0.0194857
0.075737
0.0758295
0.0759025
0.0759426
0.0759408
0.0758862
0.0757627
0.0755455
0.0751983
0.0746703
0.0738928
0.0727735
0.0711857
0.0689485
0.065788
0.0612565
0.0545236
0.0435723
0.0194859
0.0757875
0.075875
0.0759446
0.0759825
0.0759789
0.0759229
0.0757979
0.0755792
0.0752301
0.0746999
0.0739199
0.0727975
0.0712061
0.0689648
0.0658003
0.0612648
0.0545284
0.0435745
0.0194864
0.0758602
0.0759437
0.0760106
0.0760464
0.076041
0.0759832
0.0758564
0.0756355
0.0752839
0.0747507
0.0739668
0.0728396
0.0712425
0.0689947
0.0658231
0.0612805
0.0545378
0.0435788
0.0194874
0.0759702
0.0760504
0.0761149
0.0761486
0.0761413
0.0760814
0.0759523
0.0757287
0.0753737
0.0748362
0.0740468
0.0729127
0.071307
0.0690488
0.0658655
0.0613106
0.0545562
0.0435876
0.0194894
0.0761396
0.0762172
0.0762794
0.0763109
0.0763014
0.0762391
0.0761072
0.0758802
0.0755211
0.0749781
0.0741815
0.0730379
0.0714196
0.0691457
0.0659435
0.0613677
0.0545924
0.0436054
0.0194937
0.0764009
0.0764758
0.0765356
0.0765648
0.0765527
0.0764876
0.0763527
0.076122
0.0757583
0.0752092
0.0744042
0.0732486
0.0716138
0.0693175
0.0660864
0.0614762
0.0546637
0.0436417
0.0195025
0.0767991
0.0768712
0.0769282
0.0769546
0.0769397
0.0768719
0.076734
0.0765002
0.0761325
0.075578
0.074765
0.073597
0.0719429
0.0696179
0.0663459
0.0616819
0.0548053
0.0437168
0.0195214
0.077396
0.0774644
0.0775179
0.077541
0.0775233
0.0774531
0.0773134
0.0770781
0.0767093
0.0761531
0.0753364
0.0741603
0.0724898
0.0701345
0.0668118
0.0620704
0.0550882
0.0438752
0.0195624
0.078272
0.0783353
0.078384
0.0784032
0.0783828
0.0783115
0.0781724
0.0779399
0.077576
0.0770266
0.0762176
0.0750473
0.0733758
0.0710036
0.0676346
0.0627988
0.0556568
0.0442166
0.0196541
0.0795282
0.0795841
0.0796262
0.0796408
0.0796184
0.0795481
0.079414
0.0791911
0.0788426
0.0783156
0.0775361
0.0764014
0.074767
0.0724228
0.0690507
0.0641419
0.0567987
0.0449697
0.0198673
0.0812863
0.0813318
0.0813652
0.0813745
0.0813512
0.0812852
0.0811619
0.0809585
0.0806407
0.080159
0.0794432
0.078394
0.0768673
0.0746471
0.071393
0.0665371
0.0590517
0.0466552
0.0203865
0.0836879
0.0837199
0.0837427
0.0837464
0.0837237
0.0836661
0.0835608
0.0833884
0.0831196
0.0827119
0.0821041
0.0812079
0.0798922
0.0779521
0.0750462
0.0705591
0.063274
0.0503551
0.0217122
0.0868963
0.0869132
0.0869245
0.086923
0.0869031
0.0868578
0.0867776
0.0866477
0.0864461
0.086141
0.0856863
0.0850148
0.0840252
0.0825535
0.08031
0.0767182
0.0704533
0.0578526
0.0252863
0.0911016
0.0911048
0.0911063
0.0911017
0.0910871
0.0910581
0.0910085
0.0909294
0.0908081
0.0906258
0.0903561
0.0899603
0.0893807
0.0885229
0.0872155
0.08509
0.0811338
0.0714845
0.0364557
0.0965318
0.0965279
0.096525
0.0965214
0.0965154
0.0965053
0.096489
0.096464
0.0964264
0.096371
0.0962908
0.096176
0.0960125
0.0957796
0.0954471
0.0949774
0.0943417
0.0933798
0.0864341
)
;

boundaryField
{
    leftWall
    {
        type            kqRWallFunction;
        value           nonuniform List<scalar> 
50
(
0.1
0.1
0.1
0.1
0.1
0.1
0.1
0.1
0.1
0.1
0.1
0.1
0.1
0.1
0.1
0.1
0.1
0.1
0.1
0.1
0.1
0.1
0.1
0.1
0.1
0.1
0.1
0.1
0.0216507
0.014143
0.0153943
0.0166234
0.0174479
0.0179791
0.0183129
0.0185173
0.0186397
0.0187126
0.0187579
0.0187913
0.0188261
0.0188784
0.0189742
0.0191638
0.0195496
0.0203439
0.0219858
0.0254895
0.0351117
0.0856283
)
;
    }
    rightWall
    {
        type            kqRWallFunction;
        value           nonuniform List<scalar> 
50
(
0.00515106
0.00891735
0.011094
0.0126894
0.0139217
0.0149119
0.0157338
0.0164393
0.0174133
0.018247
0.0187503
0.0190544
0.0192364
0.0193438
0.0194061
0.0194416
0.0194615
0.0194725
0.0194785
0.0194818
0.0194835
0.0194844
0.0194849
0.0194852
0.0194853
0.0194854
0.0194854
0.0194854
0.0194854
0.0194854
0.0194854
0.0194854
0.0194855
0.0194855
0.0194857
0.0194859
0.0194864
0.0194874
0.0194894
0.0194937
0.0195025
0.0195214
0.0195624
0.0196541
0.0198673
0.0203865
0.0217122
0.0252863
0.0364557
0.0864341
)
;
    }
    lowerWall
    {
        type            kqRWallFunction;
        value           nonuniform List<scalar> 
62
(
0.1
0.1
0.1
0.1
0.1
0.1
0.1
0.1
0.1
0.1
0.1
0.1
0.1
0.00955736
0.00893457
0.0108538
0.0119401
0.0124253
0.0123849
0.0117789
0.0104415
0.0079852
0.0035243
0.0035243
0.00820131
0.0106638
0.0125523
0.0142322
0.0160739
0.018966
0.0259712
0.028659
0.0240083
0.0240526
0.0288128
0.00375807
0.00885224
0.0114352
0.013418
0.0152051
0.017215
0.020405
0.0277342
0.00375807
0.00849722
0.0110822
0.0125586
0.0134062
0.0138819
0.0141378
0.0142651
0.0143152
0.0143122
0.0142593
0.0141421
0.0139274
0.0135607
0.0129615
0.0120118
0.0105223
0.00811919
0.00515106
)
;
    }
    atmosphere
    {
        type            inletOutlet;
        inletValue      uniform 0.1;
        value           uniform 0.1;
    }
    defaultFaces
    {
        type            empty;
    }
}


// ************************************************************************* //
