/*--------------------------------*- C++ -*----------------------------------*\
| =========                 |                                                 |
| \\      /  F ield         | OpenFOAM: The Open Source CFD Toolbox           |
|  \\    /   O peration     | Version:  2406                                  |
|   \\  /    A nd           | Website:  www.openfoam.com                      |
|    \\/     M anipulation  |                                                 |
\*---------------------------------------------------------------------------*/
FoamFile
{
    version     2.0;
    format      ascii;
    arch        "LSB;label=32;scalar=64";
    class       volScalarField;
    location    "0.3";
    object      k;
}
// * * * * * * * * * * * * * * * * * * * * * * * * * * * * * * * * * * * * * //

dimensions      [0 2 -2 0 0 0 0];

internalField   nonuniform List<scalar> 
2268
(
0.00474693
0.00794999
0.0105033
0.0121187
0.0131826
0.013892
0.0143631
0.0146711
0.0148679
0.0149894
0.01506
0.0150948
0.0151009
0.0150782
0.0150182
0.0149016
0.0146943
0.0143393
0.0137435
0.0127521
0.0111015
0.00831684
0.00355146
0.00834712
0.0183955
0.0237389
0.027119
0.0293457
0.0308317
0.0318216
0.0324732
0.0328938
0.0331568
0.0333118
0.0333895
0.0334047
0.0333571
0.0332296
0.0329835
0.0325497
0.0318125
0.0305812
0.0285379
0.0251385
0.0193943
0.00835782
0.0105993
0.0237628
0.0302755
0.0343854
0.0371118
0.0389471
0.0401826
0.0410062
0.0415454
0.0418879
0.0420931
0.0421981
0.0422212
0.0421625
0.042002
0.0416945
0.0411592
0.0402615
0.03878
0.0363429
0.0322993
0.0253697
0.0109989
0.0122879
0.027517
0.034743
0.0392744
0.0422952
0.0443453
0.0457393
0.0466796
0.0473034
0.0477055
0.04795
0.0480778
0.0481094
0.0480455
0.0478656
0.0475225
0.0469323
0.0459557
0.0443636
0.0417669
0.0374549
0.0298845
0.0130745
0.0135979
0.0303858
0.0381427
0.0429705
0.0461982
0.0484038
0.0499169
0.0509486
0.0516413
0.0520935
0.0523725
0.0525215
0.0525624
0.0524973
0.0523063
0.0519428
0.0513242
0.050314
0.048688
0.0460603
0.0416893
0.0337837
0.0149291
0.0146383
0.0326544
0.0408423
0.0459035
0.0492924
0.0516209
0.0532308
0.0543387
0.0550906
0.0555871
0.0558977
0.0560669
0.0561184
0.0560554
0.0558597
0.055487
0.0548588
0.0538465
0.0522397
0.0496728
0.0454129
0.0374906
0.0169267
0.0154763
0.0344803
0.0430318
0.048289
0.0518122
0.0542434
0.0559355
0.0571096
0.0579137
0.0584505
0.0587903
0.0589793
0.0590423
0.0589843
0.0587893
0.0584164
0.0577934
0.0568027
0.0552543
0.0528202
0.0488323
0.0413412
0.019972
0.0161571
0.0359654
0.044829
0.0502569
0.0538966
0.0564172
0.0581813
0.059414
0.0602653
0.0608388
0.0612062
0.0614145
0.0614901
0.0614397
0.0612498
0.0608841
0.0602778
0.0593265
0.057865
0.0556162
0.0520367
0.0455787
0.0272752
0.00377825
0.00875756
0.011559
0.0131423
0.0140432
0.0145521
0.0148318
0.0149747
0.0150315
0.0150254
0.0149594
0.0148192
0.014573
0.0141683
0.0135247
0.0125165
0.01093
0.00834909
0.00517029
0.00896315
0.0203159
0.0260883
0.0293447
0.0312004
0.0322524
0.0328337
0.0331323
0.0332503
0.0332341
0.0330897
0.0327881
0.0322647
0.0314122
0.0300635
0.0279547
0.0246374
0.0192358
0.00901107
0.0116721
0.0264891
0.0334356
0.037307
0.0395238
0.0407936
0.0415038
0.0418717
0.0420156
0.041989
0.041798
0.0414076
0.040741
0.0396706
0.0379979
0.0354088
0.0313679
0.0247798
0.0112934
0.0137822
0.0311201
0.0386749
0.042796
0.0451611
0.04653
0.0473047
0.0477091
0.0478645
0.0478257
0.0475977
0.0471418
0.046375
0.0451603
0.0432842
0.0404079
0.0359461
0.0286361
0.0129924
0.0156748
0.0350945
0.0429354
0.0471032
0.0494999
0.0509023
0.0517054
0.0521269
0.0522848
0.0522318
0.0519704
0.0514596
0.0506126
0.049287
0.0472612
0.0441807
0.0394221
0.0315765
0.0143076
0.0177588
0.038834
0.0466363
0.0506921
0.0530385
0.0544293
0.0552351
0.0556597
0.0558131
0.0557436
0.0554509
0.0548915
0.0539761
0.0525591
0.0504134
0.0471727
0.0421804
0.0338998
0.0153522
0.0209983
0.0426458
0.0499834
0.0537853
0.0560192
0.0573648
0.0581541
0.0585705
0.0587137
0.0586257
0.0583029
0.0576992
0.0567236
0.0552281
0.0529813
0.0496068
0.0444178
0.0357694
0.0161939
0.0284442
0.0467233
0.0530697
0.0565042
0.0585807
0.0598567
0.0606146
0.061014
0.061142
0.0610338
0.0606816
0.0600371
0.0590073
0.0574423
0.0551072
0.0516162
0.0462557
0.03729
0.0168779
0.0170284
0.037867
0.0471524
0.0528165
0.0566181
0.0592627
0.061127
0.0624418
0.0633599
0.0639865
0.0643944
0.0646324
0.0647289
0.0646937
0.064518
0.064173
0.0636066
0.062737
0.0614405
0.0595266
0.0566755
0.0522554
0.0447105
0.0177973
0.0395715
0.0492803
0.055198
0.0591782
0.0619606
0.0639365
0.0653435
0.0663378
0.0670262
0.0674835
0.0677604
0.0678882
0.0678814
0.067738
0.0674403
0.0669536
0.0662252
0.0651824
0.0637299
0.0617484
0.0591052
0.0557293
0.0182959
0.0407
0.0507234
0.0568436
0.060972
0.0638705
0.0659411
0.0674268
0.0684866
0.0692293
0.0697314
0.0700456
0.0702063
0.0702324
0.0701288
0.0698876
0.0694894
0.0689053
0.0680995
0.0670373
0.0657002
0.0641244
0.0624864
0.018615
0.0414426
0.0516991
0.0579797
0.0622304
0.0652268
0.067378
0.0689311
0.0700475
0.070838
0.0713805
0.07173
0.0719237
0.0719846
0.0719235
0.0717411
0.0714299
0.0709779
0.0703732
0.0696126
0.0687166
0.0677538
0.0668734
0.0188156
0.0419252
0.0523524
0.0587581
0.0631082
0.066186
0.0684052
0.0700157
0.0711808
0.072013
0.0725917
0.0729739
0.0731993
0.0732946
0.0732756
0.0731495
0.0729179
0.0725796
0.0721363
0.0715989
0.0709971
0.0703913
0.0698791
0.0189392
0.0422339
0.0527837
0.0592851
0.0637141
0.0668583
0.0691338
0.0707924
0.071999
0.0728671
0.0734776
0.0738893
0.0741441
0.0742718
0.0742921
0.0742172
0.0740548
0.0738106
0.0734929
0.0731173
0.0727119
0.0723215
0.0720069
0.0190138
0.0424277
0.0530638
0.0596365
0.0641265
0.0673235
0.0696446
0.0713428
0.0725838
0.0734823
0.0741203
0.0745579
0.0748391
0.074996
0.0750514
0.0750211
0.0749168
0.0747482
0.0745264
0.0742674
0.0739944
0.073739
0.0735392
0.019058
0.0425471
0.0532424
0.0598667
0.0644028
0.0676404
0.0699976
0.0717275
0.0729966
0.0739201
0.0745812
0.0750409
0.075345
0.0755273
0.0756129
0.0756202
0.0755633
0.0754541
0.0753047
0.0751295
0.0749468
0.0747789
0.0746496
0.0190836
0.0426194
0.0533543
0.060015
0.0645845
0.0678528
0.0702375
0.0719922
0.0732835
0.0742272
0.0749071
0.0753853
0.0757085
0.0759121
0.0760229
0.0760609
0.0760418
0.0759783
0.0758827
0.0757677
0.0756473
0.0755373
0.0754533
0.0190983
0.0426624
0.0534231
0.0601087
0.064702
0.0679926
0.0703978
0.0721713
0.0734797
0.0744393
0.0751342
0.0756272
0.0759659
0.0761869
0.076318
0.0763803
0.0763904
0.0763617
0.0763057
0.0762335
0.0761563
0.0760854
0.076031
0.0191065
0.0426875
0.0534648
0.0601668
0.0647766
0.0680829
0.0705031
0.0722904
0.0736117
0.0745833
0.0752897
0.0757943
0.0761454
0.07638
0.0765269
0.076608
0.0766403
0.0766373
0.07661
0.0765682
0.0765209
0.0764764
0.0764418
0.0191111
0.042702
0.0534895
0.0602024
0.0648231
0.0681403
0.0705709
0.0723682
0.0736988
0.0746794
0.0753946
0.075908
0.0762684
0.0765135
0.0766724
0.0767676
0.0768163
0.0768319
0.0768251
0.0768047
0.076778
0.0767514
0.07673
0.0191136
0.0427102
0.053504
0.0602237
0.0648517
0.0681762
0.070614
0.0724182
0.0737555
0.0747425
0.075464
0.075984
0.0763514
0.0766042
0.076772
0.0768775
0.076938
0.076967
0.0769745
0.0769688
0.0769561
0.0769416
0.0769291
0.019115
0.0427149
0.0535124
0.0602364
0.0648689
0.0681982
0.0706408
0.0724498
0.0737917
0.0747833
0.0755093
0.076034
0.0764064
0.0766649
0.0768391
0.0769519
0.0770207
0.0770589
0.0770764
0.0770807
0.0770774
0.077071
0.0770642
0.0191157
0.0427174
0.0535172
0.0602437
0.0648792
0.0682116
0.0706573
0.0724694
0.0738145
0.0748092
0.0755384
0.0760663
0.0764423
0.0767047
0.0768834
0.0770013
0.077076
0.0771205
0.0771446
0.0771556
0.0771586
0.0771574
0.0771545
0.0191161
0.0427188
0.0535199
0.060248
0.0648852
0.0682195
0.0706673
0.0724815
0.0738287
0.0748254
0.0755568
0.076087
0.0764654
0.0767305
0.0769123
0.0770337
0.0771122
0.0771609
0.0771895
0.0772048
0.0772119
0.0772141
0.0772137
0.0191163
0.0427196
0.0535214
0.0602504
0.0648887
0.0682242
0.0706733
0.0724888
0.0738373
0.0748354
0.0755683
0.0761
0.07648
0.076747
0.0769308
0.0770545
0.0771355
0.077187
0.0772185
0.0772367
0.0772464
0.0772508
0.0772518
0.0191164
0.04272
0.0535222
0.0602518
0.0648907
0.068227
0.0706768
0.0724931
0.0738425
0.0748416
0.0755753
0.076108
0.0764892
0.0767573
0.0769424
0.0770676
0.0771504
0.0772037
0.0772369
0.0772569
0.0772682
0.077274
0.0772761
0.0191165
0.0427203
0.0535227
0.0602526
0.0648919
0.0682286
0.0706789
0.0724957
0.0738456
0.0748452
0.0755796
0.0761129
0.0764948
0.0767637
0.0769497
0.0770759
0.0771597
0.0772141
0.0772485
0.0772696
0.0772819
0.0772885
0.0772912
0.0191165
0.0427204
0.0535229
0.060253
0.0648925
0.0682295
0.0706801
0.0724972
0.0738475
0.0748474
0.0755822
0.0761159
0.0764982
0.0767676
0.0769542
0.0770809
0.0771654
0.0772205
0.0772556
0.0772774
0.0772904
0.0772975
0.0773005
0.0191165
0.0427204
0.0535231
0.0602532
0.0648929
0.06823
0.0706808
0.0724981
0.0738486
0.0748487
0.0755837
0.0761177
0.0765003
0.07677
0.0769569
0.077084
0.0771688
0.0772244
0.0772599
0.0772821
0.0772955
0.0773029
0.0773062
0.0191165
0.0427205
0.0535231
0.0602534
0.0648931
0.0682302
0.0706812
0.0724986
0.0738492
0.0748495
0.0755846
0.0761187
0.0765015
0.0767714
0.0769585
0.0770858
0.0771709
0.0772267
0.0772625
0.077285
0.0772986
0.0773062
0.0773096
0.0191165
0.0427205
0.0535232
0.0602534
0.0648932
0.0682304
0.0706814
0.0724988
0.0738495
0.0748499
0.0755851
0.0761193
0.0765022
0.0767722
0.0769594
0.0770869
0.0771722
0.0772281
0.0772641
0.0772867
0.0773004
0.0773081
0.0773115
0.0191165
0.0427205
0.0535232
0.0602535
0.0648933
0.0682305
0.0706815
0.072499
0.0738497
0.0748502
0.0755854
0.0761197
0.0765026
0.0767727
0.07696
0.0770876
0.0771729
0.0772289
0.077265
0.0772877
0.0773014
0.0773092
0.0773127
0.0191165
0.0427205
0.0535232
0.0602535
0.0648933
0.0682305
0.0706816
0.0724991
0.0738498
0.0748503
0.0755856
0.0761199
0.0765028
0.076773
0.0769603
0.0770879
0.0771733
0.0772294
0.0772655
0.0772882
0.077302
0.0773099
0.0773134
0.0191165
0.0427205
0.0535232
0.0602535
0.0648933
0.0682306
0.0706816
0.0724991
0.0738499
0.0748504
0.0755857
0.07612
0.076503
0.0767731
0.0769605
0.0770881
0.0771736
0.0772297
0.0772658
0.0772886
0.0773024
0.0773102
0.0773138
0.0191165
0.0427205
0.0535232
0.0602535
0.0648933
0.0682306
0.0706816
0.0724992
0.0738499
0.0748504
0.0755857
0.0761201
0.0765031
0.0767732
0.0769606
0.0770883
0.0771737
0.0772298
0.077266
0.0772887
0.0773026
0.0773104
0.077314
0.0191165
0.0427205
0.0535232
0.0602535
0.0648933
0.0682306
0.0706816
0.0724992
0.07385
0.0748504
0.0755857
0.0761201
0.0765031
0.0767733
0.0769607
0.0770883
0.0771738
0.0772299
0.0772661
0.0772888
0.0773027
0.0773106
0.0773141
0.0191165
0.0427205
0.0535232
0.0602535
0.0648933
0.0682306
0.0706816
0.0724992
0.07385
0.0748505
0.0755858
0.0761201
0.0765031
0.0767733
0.0769607
0.0770884
0.0771738
0.0772299
0.0772661
0.0772889
0.0773028
0.0773106
0.0773142
0.0191165
0.0427205
0.0535232
0.0602535
0.0648933
0.0682306
0.0706816
0.0724992
0.07385
0.0748505
0.0755858
0.0761201
0.0765031
0.0767733
0.0769607
0.0770884
0.0771738
0.07723
0.0772661
0.0772889
0.0773028
0.0773107
0.0773142
0.0191165
0.0427205
0.0535232
0.0602535
0.0648933
0.0682306
0.0706816
0.0724992
0.07385
0.0748505
0.0755858
0.0761202
0.0765031
0.0767733
0.0769607
0.0770884
0.0771738
0.07723
0.0772662
0.0772889
0.0773028
0.0773107
0.0773142
0.0191165
0.0427205
0.0535232
0.0602535
0.0648933
0.0682306
0.0706816
0.0724992
0.07385
0.0748505
0.0755858
0.0761202
0.0765031
0.0767733
0.0769607
0.0770884
0.0771739
0.07723
0.0772662
0.077289
0.0773028
0.0773107
0.0773142
0.0191165
0.0427205
0.0535232
0.0602535
0.0648933
0.0682306
0.0706816
0.0724992
0.07385
0.0748505
0.0755858
0.0761202
0.0765031
0.0767733
0.0769607
0.0770884
0.0771739
0.07723
0.0772662
0.077289
0.0773028
0.0773107
0.0773142
0.0191165
0.0427205
0.0535232
0.0602535
0.0648933
0.0682306
0.0706816
0.0724992
0.07385
0.0748505
0.0755858
0.0761202
0.0765032
0.0767733
0.0769607
0.0770884
0.0771739
0.07723
0.0772662
0.077289
0.0773028
0.0773107
0.0773142
0.0191165
0.0427205
0.0535232
0.0602535
0.0648933
0.0682306
0.0706816
0.0724992
0.07385
0.0748505
0.0755858
0.0761202
0.0765032
0.0767733
0.0769607
0.0770884
0.0771739
0.07723
0.0772662
0.077289
0.0773028
0.0773107
0.0773142
0.0191165
0.0427205
0.0535232
0.0602535
0.0648933
0.0682306
0.0706816
0.0724992
0.07385
0.0748505
0.0755858
0.0761202
0.0765032
0.0767733
0.0769607
0.0770884
0.0771739
0.07723
0.0772662
0.077289
0.0773028
0.0773107
0.0773142
0.0191165
0.0427205
0.0535232
0.0602535
0.0648933
0.0682306
0.0706816
0.0724992
0.07385
0.0748505
0.0755858
0.0761202
0.0765032
0.0767733
0.0769607
0.0770884
0.0771739
0.07723
0.0772662
0.077289
0.0773028
0.0773107
0.0773142
0.0191165
0.0427205
0.0535232
0.0602535
0.0648933
0.0682306
0.0706816
0.0724992
0.07385
0.0748505
0.0755858
0.0761202
0.0765032
0.0767733
0.0769607
0.0770884
0.0771739
0.07723
0.0772662
0.077289
0.0773028
0.0773107
0.0773142
0.0191165
0.0427205
0.0535232
0.0602535
0.0648933
0.0682306
0.0706816
0.0724992
0.07385
0.0748505
0.0755858
0.0761202
0.0765032
0.0767733
0.0769607
0.0770884
0.0771739
0.07723
0.0772662
0.077289
0.0773028
0.0773107
0.0773142
0.0191165
0.0427205
0.0535232
0.0602535
0.0648933
0.0682306
0.0706816
0.0724992
0.07385
0.0748505
0.0755858
0.0761202
0.0765032
0.0767733
0.0769607
0.0770884
0.0771739
0.07723
0.0772662
0.077289
0.0773028
0.0773107
0.0773142
0.0191165
0.0427205
0.0535232
0.0602535
0.0648933
0.0682306
0.0706816
0.0724992
0.07385
0.0748505
0.0755858
0.0761202
0.0765032
0.0767733
0.0769607
0.0770884
0.0771739
0.07723
0.0772662
0.077289
0.0773028
0.0773107
0.0773142
0.0191165
0.0427205
0.0535232
0.0602535
0.0648933
0.0682306
0.0706816
0.0724992
0.07385
0.0748505
0.0755858
0.0761202
0.0765032
0.0767733
0.0769607
0.0770884
0.0771739
0.07723
0.0772662
0.0772889
0.0773028
0.0773106
0.0773142
0.0299475
0.025072
0.0250339
0.0297452
0.0529531
0.051847
0.0518354
0.0529193
0.0615836
0.0612476
0.0612438
0.0615733
0.0664679
0.0663265
0.0663242
0.0664611
0.0696623
0.0695886
0.0695866
0.0696563
0.0718791
0.0718358
0.071834
0.0718735
0.0734595
0.0734324
0.0734307
0.0734542
0.0745984
0.0745808
0.0745791
0.0745932
0.0754198
0.0754081
0.0754064
0.0754147
0.0760091
0.0760011
0.0759994
0.0760039
0.0764275
0.076422
0.0764203
0.0764223
0.0767207
0.0767168
0.0767151
0.0767155
0.076923
0.0769203
0.0769186
0.0769179
0.0770604
0.0770583
0.0770566
0.0770552
0.0771521
0.0771505
0.0771488
0.0771469
0.0772122
0.0772109
0.0772092
0.077207
0.0772509
0.0772498
0.0772481
0.0772457
0.0772755
0.0772745
0.0772728
0.0772703
0.0772909
0.07729
0.0772883
0.0772857
0.0773003
0.0772995
0.0772977
0.0772951
0.0773061
0.0773052
0.0773035
0.0773008
0.0773095
0.0773087
0.0773069
0.0773042
0.0773115
0.0773107
0.077309
0.0773063
0.0773127
0.0773119
0.0773102
0.0773074
0.0773134
0.0773126
0.0773108
0.0773081
0.0773138
0.077313
0.0773112
0.0773085
0.077314
0.0773132
0.0773114
0.0773087
0.0773141
0.0773133
0.0773116
0.0773089
0.0773142
0.0773134
0.0773116
0.0773089
0.0773142
0.0773134
0.0773117
0.077309
0.0773142
0.0773134
0.0773117
0.077309
0.0773143
0.0773134
0.0773117
0.077309
0.0773143
0.0773134
0.0773117
0.077309
0.0773143
0.0773134
0.0773117
0.077309
0.0773143
0.0773134
0.0773117
0.077309
0.0773142
0.0773134
0.0773117
0.077309
0.0773142
0.0773134
0.0773117
0.077309
0.0773142
0.0773134
0.0773117
0.077309
0.0773142
0.0773134
0.0773117
0.077309
0.0773142
0.0773134
0.0773116
0.0773089
0.0773142
0.0773133
0.0773116
0.0773089
0.0773141
0.0773133
0.0773116
0.0773089
0.0452241
0.0530277
0.0574892
0.0602732
0.0620635
0.0632046
0.0638961
0.0642579
0.064356
0.0642138
0.0638169
0.0631129
0.0620061
0.0603439
0.0578858
0.0542326
0.0486338
0.0392371
0.0177531
0.0558914
0.0595348
0.062293
0.0642785
0.0656628
0.0665886
0.0671612
0.0674509
0.0674955
0.0673023
0.066847
0.0660714
0.064876
0.0631041
0.0605084
0.0566751
0.0508178
0.0409836
0.0185246
0.0625382
0.0643563
0.0660472
0.0674183
0.0684464
0.0691634
0.0696104
0.0698193
0.0698043
0.0695578
0.0690465
0.0682062
0.0669333
0.0650672
0.0623546
0.0583703
0.0523041
0.0421412
0.019024
0.0668902
0.0678801
0.0689317
0.069865
0.0706069
0.0711399
0.0714676
0.0715955
0.0715197
0.0712205
0.0706563
0.0697576
0.0684167
0.0664692
0.063657
0.0595468
0.0533131
0.0429043
0.0193433
0.0698827
0.0704598
0.0711265
0.0717569
0.0722792
0.0726588
0.0728802
0.0729323
0.0727983
0.072449
0.0718361
0.0708852
0.0694849
0.0674676
0.0645715
0.0603578
0.053992
0.0434015
0.0195438
0.0720044
0.0723567
0.0727851
0.0732073
0.073565
0.0738212
0.0739519
0.0739363
0.0737491
0.0733539
0.0726972
0.0717004
0.0702491
0.068173
0.0652076
0.0609107
0.0544427
0.0437203
0.0196672
0.0735335
0.0737539
0.0740303
0.0743087
0.0745444
0.0747036
0.0747592
0.0746855
0.0744514
0.0740157
0.0733206
0.0722844
0.0707902
0.0686656
0.0656443
0.0612821
0.0547371
0.0439213
0.0197418
0.074642
0.0747808
0.0749575
0.0751357
0.0752817
0.0753659
0.0753611
0.0752389
0.074965
0.0744946
0.0737669
0.0726978
0.0711683
0.0690048
0.0659395
0.0615275
0.0549262
0.0440456
0.0197859
0.0754445
0.0755307
0.0756406
0.0757488
0.0758293
0.0758564
0.0758041
0.0756427
0.0753359
0.0748367
0.0740821
0.0729862
0.0714287
0.0692346
0.0661358
0.0616869
0.0550455
0.0441211
0.0198116
0.0760213
0.0760729
0.0761375
0.0761966
0.0762296
0.0762142
0.0761252
0.0759329
0.0755999
0.0750776
0.0743015
0.0731844
0.071605
0.0693877
0.0662641
0.0617887
0.0551194
0.0441663
0.0198262
0.0764316
0.07646
0.0764937
0.0765185
0.0765175
0.0764707
0.0763542
0.0761382
0.0757848
0.0752445
0.0744516
0.0733183
0.0717224
0.0694881
0.0663465
0.0618525
0.0551644
0.0441928
0.0198345
0.0767193
0.0767323
0.0767449
0.076746
0.0767209
0.0766515
0.0765147
0.0762811
0.0759123
0.0753582
0.0745528
0.0734073
0.0717994
0.0695527
0.0663985
0.0618919
0.0551914
0.0442082
0.0198392
0.0769181
0.0769206
0.0769191
0.0769038
0.076862
0.0767766
0.0766252
0.0763787
0.0759987
0.0754346
0.0746199
0.0734656
0.071849
0.0695937
0.0664309
0.0619158
0.0552074
0.044217
0.0198417
0.077053
0.0770487
0.0770377
0.0770114
0.0769581
0.0768616
0.0767
0.0764444
0.0760563
0.0754849
0.0746636
0.0735031
0.0718804
0.0696192
0.0664507
0.0619302
0.0552168
0.044222
0.0198431
0.0771431
0.0771343
0.077117
0.0770834
0.0770224
0.0769183
0.0767498
0.0764878
0.076094
0.0755176
0.0746917
0.0735269
0.0719001
0.069635
0.0664627
0.0619386
0.0552221
0.0442248
0.0198438
0.0772022
0.0771905
0.0771691
0.0771307
0.0770646
0.0769556
0.0767823
0.0765161
0.0761184
0.0755386
0.0747095
0.0735418
0.0719123
0.0696445
0.0664698
0.0619436
0.0552252
0.0442263
0.0198442
0.0772403
0.0772268
0.0772028
0.0771613
0.0770919
0.0769796
0.0768032
0.0765341
0.0761339
0.0755518
0.0747206
0.0735509
0.0719197
0.0696503
0.066474
0.0619465
0.0552269
0.0442272
0.0198444
0.0772645
0.0772498
0.0772242
0.0771808
0.0771093
0.0769948
0.0768164
0.0765455
0.0761436
0.07556
0.0747275
0.0735565
0.0719241
0.0696537
0.0664765
0.0619481
0.0552279
0.0442276
0.0198446
0.0772796
0.0772642
0.0772376
0.0771929
0.0771201
0.0770043
0.0768247
0.0765526
0.0761496
0.075565
0.0747316
0.0735599
0.0719267
0.0696556
0.0664779
0.061949
0.0552285
0.0442279
0.0198446
0.0772889
0.0772731
0.0772458
0.0772004
0.0771268
0.0770102
0.0768298
0.0765569
0.0761533
0.0755681
0.0747341
0.0735619
0.0719283
0.0696568
0.0664787
0.0619495
0.0552287
0.044228
0.0198447
0.0772946
0.0772784
0.0772508
0.077205
0.0771309
0.0770138
0.0768329
0.0765596
0.0761555
0.0755699
0.0747356
0.0735631
0.0719292
0.0696575
0.0664792
0.0619498
0.0552289
0.0442281
0.0198447
0.0772979
0.0772816
0.0772538
0.0772077
0.0771333
0.0770159
0.0768347
0.0765611
0.0761568
0.075571
0.0747365
0.0735638
0.0719297
0.0696578
0.0664794
0.06195
0.055229
0.0442281
0.0198447
0.0772999
0.0772835
0.0772556
0.0772094
0.0771348
0.0770172
0.0768358
0.076562
0.0761576
0.0755716
0.074737
0.0735642
0.07193
0.0696581
0.0664796
0.0619501
0.055229
0.0442281
0.0198447
0.0773011
0.0772847
0.0772566
0.0772103
0.0771356
0.0770179
0.0768364
0.0765626
0.076158
0.075572
0.0747373
0.0735644
0.0719302
0.0696582
0.0664796
0.0619501
0.0552291
0.0442282
0.0198447
0.0773017
0.0772853
0.0772572
0.0772108
0.0771361
0.0770184
0.0768368
0.0765629
0.0761583
0.0755722
0.0747375
0.0735645
0.0719303
0.0696582
0.0664797
0.0619502
0.0552291
0.0442282
0.0198447
0.0773021
0.0772857
0.0772576
0.0772112
0.0771364
0.0770186
0.076837
0.0765631
0.0761584
0.0755723
0.0747376
0.0735646
0.0719303
0.0696583
0.0664797
0.0619502
0.0552291
0.0442282
0.0198447
0.0773023
0.0772859
0.0772578
0.0772113
0.0771366
0.0770187
0.0768371
0.0765632
0.0761585
0.0755724
0.0747376
0.0735646
0.0719304
0.0696583
0.0664797
0.0619502
0.0552291
0.0442282
0.0198447
0.0773025
0.077286
0.0772579
0.0772114
0.0771367
0.0770188
0.0768372
0.0765632
0.0761586
0.0755724
0.0747376
0.0735647
0.0719304
0.0696583
0.0664797
0.0619502
0.0552291
0.0442282
0.0198447
0.0773025
0.0772861
0.0772579
0.0772115
0.0771367
0.0770189
0.0768372
0.0765633
0.0761586
0.0755724
0.0747376
0.0735647
0.0719304
0.0696583
0.0664797
0.0619502
0.0552291
0.0442282
0.0198447
0.0773026
0.0772861
0.077258
0.0772115
0.0771367
0.0770189
0.0768373
0.0765633
0.0761586
0.0755724
0.0747377
0.0735647
0.0719304
0.0696583
0.0664797
0.0619502
0.0552291
0.0442282
0.0198447
0.0773026
0.0772861
0.077258
0.0772115
0.0771367
0.0770189
0.0768373
0.0765633
0.0761586
0.0755724
0.0747377
0.0735647
0.0719304
0.0696583
0.0664797
0.0619502
0.0552291
0.0442282
0.0198447
0.0773026
0.0772861
0.077258
0.0772115
0.0771368
0.0770189
0.0768373
0.0765633
0.0761586
0.0755724
0.0747377
0.0735647
0.0719304
0.0696583
0.0664797
0.0619502
0.0552291
0.0442282
0.0198447
0.0773026
0.0772861
0.077258
0.0772116
0.0771368
0.0770189
0.0768373
0.0765633
0.0761586
0.0755724
0.0747377
0.0735647
0.0719304
0.0696583
0.0664797
0.0619502
0.0552291
0.0442282
0.0198447
0.0773026
0.0772861
0.077258
0.0772116
0.0771368
0.0770189
0.0768373
0.0765633
0.0761586
0.0755724
0.0747377
0.0735647
0.0719304
0.0696583
0.0664797
0.0619502
0.0552291
0.0442282
0.0198447
0.0773026
0.0772861
0.077258
0.0772116
0.0771368
0.0770189
0.0768373
0.0765633
0.0761586
0.0755724
0.0747377
0.0735647
0.0719304
0.0696583
0.0664797
0.0619502
0.0552291
0.0442282
0.0198447
0.0773026
0.0772861
0.077258
0.0772116
0.0771368
0.0770189
0.0768373
0.0765633
0.0761586
0.0755724
0.0747377
0.0735647
0.0719304
0.0696583
0.0664797
0.0619502
0.0552291
0.0442282
0.0198447
0.0773026
0.0772861
0.077258
0.0772116
0.0771368
0.0770189
0.0768373
0.0765633
0.0761586
0.0755724
0.0747377
0.0735647
0.0719304
0.0696583
0.0664797
0.0619502
0.0552291
0.0442282
0.0198447
0.0773026
0.0772861
0.077258
0.0772115
0.0771368
0.0770189
0.0768373
0.0765633
0.0761586
0.0755724
0.0747377
0.0735647
0.0719304
0.0696583
0.0664797
0.0619502
0.0552291
0.0442282
0.0198447
0.0773026
0.0772861
0.077258
0.0772115
0.0771368
0.0770189
0.0768373
0.0765633
0.0761586
0.0755724
0.0747377
0.0735647
0.0719304
0.0696583
0.0664797
0.0619502
0.0552291
0.0442282
0.0198447
0.0773026
0.0772861
0.077258
0.0772115
0.0771368
0.0770189
0.0768373
0.0765633
0.0761586
0.0755724
0.0747377
0.0735647
0.0719304
0.0696583
0.0664797
0.0619502
0.0552291
0.0442282
0.0198447
0.0773025
0.0772861
0.077258
0.0772115
0.0771367
0.0770189
0.0768373
0.0765633
0.0761586
0.0755724
0.0747377
0.0735647
0.0719304
0.0696583
0.0664797
0.0619502
0.0552291
0.0442282
0.0198447
0.0773025
0.0772861
0.077258
0.0772115
0.0771367
0.0770189
0.0768373
0.0765633
0.0761586
0.0755724
0.0747377
0.0735647
0.0719304
0.0696583
0.0664797
0.0619502
0.0552291
0.0442282
0.0198447
)
;

boundaryField
{
    leftWall
    {
        type            kqRWallFunction;
        value           nonuniform List<scalar> 
50
(
0.00474693
0.00834712
0.0105993
0.0122879
0.0135979
0.0146383
0.0154763
0.0161571
0.0170284
0.0177973
0.0182959
0.018615
0.0188156
0.0189392
0.0190138
0.019058
0.0190836
0.0190983
0.0191065
0.0191111
0.0191136
0.019115
0.0191157
0.0191161
0.0191163
0.0191164
0.0191165
0.0191165
0.0191165
0.0191165
0.0191165
0.0191165
0.0191165
0.0191165
0.0191165
0.0191165
0.0191165
0.0191165
0.0191165
0.0191165
0.0191165
0.0191165
0.0191165
0.0191165
0.0191165
0.0191165
0.0191165
0.0191165
0.0191165
0.0191165
)
;
    }
    rightWall
    {
        type            kqRWallFunction;
        value           nonuniform List<scalar> 
50
(
0.00517029
0.00901107
0.0112934
0.0129924
0.0143076
0.0153522
0.0161939
0.0168779
0.0177531
0.0185246
0.019024
0.0193433
0.0195438
0.0196672
0.0197418
0.0197859
0.0198116
0.0198262
0.0198345
0.0198392
0.0198417
0.0198431
0.0198438
0.0198442
0.0198444
0.0198446
0.0198446
0.0198447
0.0198447
0.0198447
0.0198447
0.0198447
0.0198447
0.0198447
0.0198447
0.0198447
0.0198447
0.0198447
0.0198447
0.0198447
0.0198447
0.0198447
0.0198447
0.0198447
0.0198447
0.0198447
0.0198447
0.0198447
0.0198447
0.0198447
)
;
    }
    lowerWall
    {
        type            kqRWallFunction;
        value           nonuniform List<scalar> 
62
(
0.00474693
0.00794999
0.0105033
0.0121187
0.0131826
0.013892
0.0143631
0.0146711
0.0148679
0.0149894
0.01506
0.0150948
0.0151009
0.0150782
0.0150182
0.0149016
0.0146943
0.0143393
0.0137435
0.0127521
0.0111015
0.00831684
0.00355146
0.00355146
0.00835782
0.0109989
0.0130745
0.0149291
0.0169267
0.019972
0.0272752
0.0299475
0.025072
0.0250339
0.0297452
0.00377825
0.00896315
0.0116721
0.0137822
0.0156748
0.0177588
0.0209983
0.0284442
0.00377825
0.00875756
0.011559
0.0131423
0.0140432
0.0145521
0.0148318
0.0149747
0.0150315
0.0150254
0.0149594
0.0148192
0.014573
0.0141683
0.0135247
0.0125165
0.01093
0.00834909
0.00517029
)
;
    }
    atmosphere
    {
        type            inletOutlet;
        inletValue      uniform 0.1;
        value           nonuniform List<scalar> 
46
(
0.0191165
0.0427205
0.0535232
0.0602535
0.0648933
0.0682306
0.0706816
0.0724992
0.07385
0.0748505
0.0755858
0.0761202
0.0765032
0.0767733
0.0769607
0.0770884
0.0771739
0.07723
0.0772662
0.0772889
0.0773028
0.0773106
0.0773142
0.0773141
0.0773133
0.0773116
0.0773089
0.0773025
0.0772861
0.077258
0.0772115
0.0771367
0.0770189
0.0768373
0.0765633
0.0761586
0.0755724
0.0747377
0.0735647
0.0719304
0.0696583
0.0664797
0.0619502
0.0552291
0.0442282
0.0198447
)
;
    }
    defaultFaces
    {
        type            empty;
    }
}


// ************************************************************************* //
