/*--------------------------------*- C++ -*----------------------------------*\
| =========                 |                                                 |
| \\      /  F ield         | OpenFOAM: The Open Source CFD Toolbox           |
|  \\    /   O peration     | Version:  2406                                  |
|   \\  /    A nd           | Website:  www.openfoam.com                      |
|    \\/     M anipulation  |                                                 |
\*---------------------------------------------------------------------------*/
FoamFile
{
    version     2.0;
    format      ascii;
    arch        "LSB;label=32;scalar=64";
    class       volScalarField;
    location    "0.3";
    object      nut;
}
// * * * * * * * * * * * * * * * * * * * * * * * * * * * * * * * * * * * * * //

dimensions      [0 2 -1 0 0 0 0];

internalField   nonuniform List<scalar> 
2268
(
5.32732e-05
5.35702e-05
6.22898e-05
6.74489e-05
7.08177e-05
7.31089e-05
7.46868e-05
7.57681e-05
7.64954e-05
7.69682e-05
7.72563e-05
7.74055e-05
7.7439e-05
7.73574e-05
7.71364e-05
7.67216e-05
7.60186e-05
7.48715e-05
7.30183e-05
6.99894e-05
6.48633e-05
5.54936e-05
3.42646e-05
0.000112502
0.000408818
0.000539397
0.000615464
0.000665404
0.00069969
0.000723516
0.000739974
0.000751123
0.000758421
0.000762902
0.000765247
0.000765807
0.0007646
0.000761275
0.00075504
0.000744514
0.000727411
0.000699866
0.000654874
0.000578422
0.000436774
0.000113634
0.000128687
0.000668649
0.000962114
0.00114402
0.00126746
0.00135409
0.00141524
0.00145796
0.00148716
0.00150642
0.00151833
0.00152462
0.00152622
0.00152316
0.00151459
0.00149848
0.00147137
0.00142753
0.00135743
0.00124436
0.00105694
0.000729703
0.000132636
0.000139959
0.000848613
0.00128864
0.0015759
0.00177646
0.00191986
0.00202249
0.00209498
0.00214499
0.00217827
0.00219904
0.00221016
0.00221317
0.00220819
0.00219381
0.00216679
0.00212143
0.00204846
0.00193264
0.0017478
0.00144738
0.000945779
0.000146497
0.000148312
0.000982826
0.00154976
0.00193554
0.00221158
0.00241231
0.00255781
0.00266171
0.00273408
0.00278269
0.00281332
0.00282997
0.0028348
0.00282807
0.00280788
0.00276985
0.00270625
0.00260456
0.00244432
0.00219092
0.00178427
0.00112345
0.000158204
0.000154777
0.0010879
0.00176448
0.00224058
0.00258865
0.00284571
0.00303434
0.00317044
0.00326618
0.00333109
0.00337241
0.00339522
0.00340234
0.00339418
0.00336852
0.00331998
0.00323913
0.00311073
0.00291004
0.00259529
0.00209355
0.00128553
0.000170101
0.000159924
0.00117272
0.00194436
0.00250252
0.00291838
0.00322991
0.00346118
0.00362977
0.00374949
0.00383141
0.0038841
0.00391367
0.00392357
0.00391448
0.00388393
0.00382584
0.0037295
0.00357766
0.00334258
0.00297744
0.00239763
0.00145383
0.000186653
0.0001641
0.00124255
0.00209686
0.00272918
0.00320822
0.0035718
0.00384471
0.0040456
0.00418958
0.00428899
0.00435361
0.00439046
0.00440368
0.00439425
0.00435965
0.00429337
0.00418389
0.00401284
0.00375117
0.00335049
0.00272113
0.00167214
0.000220427
3.54023e-05
5.70491e-05
6.63114e-05
7.11864e-05
7.39448e-05
7.55468e-05
7.64659e-05
7.69543e-05
7.71477e-05
7.71078e-05
7.68412e-05
7.63066e-05
7.54163e-05
7.40278e-05
7.19178e-05
6.87091e-05
6.3667e-05
5.498e-05
5.75369e-05
0.000130462
0.00045969
0.000599727
0.000672519
0.000713559
0.000737414
0.000751133
0.00075843
0.000761286
0.000760595
0.000756439
0.000748199
0.000734579
0.000713503
0.000681757
0.000633946
0.000559343
0.000429238
0.000129642
0.000151347
0.000779305
0.00110792
0.00128817
0.00139202
0.00145299
0.00148824
0.00150699
0.00151424
0.00151223
0.00150115
0.00147943
0.00144384
0.00138935
0.00130842
0.00118903
0.00100853
0.000711562
0.000147198
0.000166623
0.00101882
0.00152783
0.00181881
0.00198941
0.00209052
0.00214924
0.0021805
0.00219237
0.00218848
0.00216909
0.00213162
0.00207084
0.00197874
0.00184377
0.00164819
0.00136046
0.000910151
0.000159476
0.000179664
0.00121739
0.00189215
0.00228767
0.00252241
0.00266267
0.00274458
0.00278817
0.00280433
0.00279792
0.0027692
0.00271455
0.00262685
0.00249542
0.00230521
0.00203408
0.00164467
0.0010596
0.000168608
0.000193234
0.00139891
0.0022261
0.00271496
0.00300729
0.00318341
0.00328686
0.00334189
0.00336166
0.00335199
0.00331302
0.00324014
0.00312447
0.002953
0.00270788
0.00236379
0.00188004
0.00117727
0.000175696
0.000212436
0.00158595
0.00255083
0.00311586
0.00345584
0.00366267
0.00378501
0.00384999
0.0038724
0.00385864
0.00380861
0.0037167
0.00357247
0.00336094
0.00306212
0.00264863
0.0020783
0.00127263
0.00018135
0.000249996
0.00182134
0.00288797
0.00350194
0.00387642
0.00410739
0.00424515
0.00431816
0.004342
0.00432327
0.00426145
0.00414994
0.00397694
0.00372586
0.00337518
0.00289637
0.0022471
0.00135134
0.000185941
0.000169442
0.00133369
0.00230187
0.00304053
0.00361321
0.00405611
0.00439392
0.00464619
0.00482942
0.00495764
0.00504223
0.00509167
0.00511116
0.0051023
0.00506277
0.00498582
0.00485947
0.00466507
0.00437445
0.00394494
0.00331254
0.00239953
0.00123116
0.00017431
0.0014192
0.00250115
0.00335138
0.00402666
0.00455993
0.00497433
0.00528919
0.00552172
0.00568725
0.00579873
0.00586619
0.00589626
0.00589174
0.00585134
0.00576935
0.00563542
0.00543407
0.00514427
0.0047395
0.00419126
0.00348467
0.00266258
0.000177594
0.00147867
0.00264423
0.00358048
0.00433829
0.00494702
0.00542757
0.00579817
0.00607591
0.00627669
0.00641453
0.00650075
0.00654339
0.00654672
0.00651104
0.00643269
0.00630426
0.00611514
0.00585281
0.00550552
0.00506875
0.00455895
0.0040394
0.000179799
0.00151965
0.00274554
0.00374655
0.00456888
0.00523863
0.0057743
0.00619263
0.00651014
0.00674284
0.0069054
0.00701022
0.00706668
0.00708063
0.00705429
0.00698644
0.00687304
0.00670837
0.00648698
0.0062071
0.00587621
0.0055199
0.00519334
0.000181257
0.0015474
0.00281584
0.00386439
0.00473576
0.00545332
0.00603338
0.00649117
0.00684236
0.00710283
0.00728765
0.00741009
0.00748072
0.00750698
0.007493
0.00744001
0.00734706
0.00721241
0.00703551
0.00681992
0.00657716
0.00633124
0.00612184
0.000182203
0.00156579
0.0028635
0.00394603
0.00485363
0.00560753
0.00622221
0.0067115
0.00709024
0.007374
0.00757811
0.0077165
0.00780081
0.00783987
0.0078396
0.00780333
0.00773264
0.00762865
0.0074937
0.00733352
0.0071596
0.00699097
0.00685416
0.000182803
0.00157768
0.00289503
0.0040012
0.00493482
0.00571554
0.00635639
0.00687003
0.00727054
0.00757318
0.00779339
0.00794563
0.00804242
0.00809378
0.00810709
0.00808741
0.00803818
0.00796238
0.0078638
0.0077486
0.0076266
0.00751182
0.00742151
0.000183174
0.0015852
0.00291539
0.00403759
0.00498938
0.00578932
0.00644936
0.00698125
0.00739842
0.00771586
0.00794905
0.00811285
0.00822047
0.00828289
0.00830863
0.00830403
0.00827386
0.00822218
0.00815338
0.00807321
0.00798951
0.00791224
0.00785257
0.0001834
0.00158983
0.00292823
0.00406102
0.00502517
0.00583851
0.00651222
0.00705738
0.00748694
0.00781561
0.00805892
0.00823201
0.00834862
0.00842044
0.00845685
0.00846511
0.00845085
0.00841872
0.00837324
0.00831948
0.00826351
0.00821232
0.00817317
0.000183534
0.00159264
0.00293615
0.00407578
0.00504812
0.00587056
0.00655376
0.0071083
0.00754679
0.00788374
0.0081347
0.008315
0.00843876
0.00851819
0.0085633
0.00858196
0.00858032
0.00856335
0.00853547
0.00850107
0.00846482
0.00843165
0.00840631
0.000183612
0.0015943
0.00294095
0.00408489
0.00506253
0.005891
0.00658061
0.00714162
0.00758638
0.00792927
0.00818584
0.00837154
0.00850079
0.00858614
0.00863801
0.0086647
0.00867267
0.00866701
0.00865199
0.0086314
0.00860891
0.00858804
0.00857197
0.000183657
0.00159526
0.0029438
0.0040904
0.00507141
0.00590378
0.00659761
0.00716297
0.00761203
0.00795908
0.00821964
0.00840929
0.00854259
0.00863237
0.00868931
0.00872196
0.00873697
0.00873948
0.00873356
0.00872259
0.00870951
0.00869692
0.00868701
0.000183682
0.00159582
0.00294547
0.00409368
0.00507678
0.00591162
0.00660819
0.00717641
0.00762834
0.00797822
0.00824156
0.008434
0.00857022
0.0086632
0.0087238
0.00876073
0.00878074
0.00878896
0.00878931
0.00878487
0.0087781
0.00877099
0.00876512
0.000183697
0.00159613
0.00294643
0.00409561
0.00507998
0.00591636
0.00661466
0.00718472
0.00763853
0.0079903
0.00825553
0.00844989
0.00858815
0.00868337
0.00874654
0.00878645
0.00880989
0.008822
0.00882657
0.00882646
0.00882383
0.00882028
0.00881701
0.000183704
0.00159631
0.00294697
0.00409672
0.00508186
0.00591918
0.00661855
0.00718977
0.0076448
0.0079978
0.00826428
0.00845994
0.00859958
0.00869634
0.00876126
0.00880318
0.00882893
0.00884361
0.00885095
0.00885365
0.00885368
0.0088524
0.00885078
0.000183709
0.00159641
0.00294728
0.00409736
0.00508295
0.00592083
0.00662086
0.00719281
0.0076486
0.00800239
0.00826969
0.0084662
0.00860676
0.00870454
0.00877062
0.00881387
0.00884113
0.00885747
0.00886659
0.00887108
0.00887278
0.00887293
0.00887233
0.000183711
0.00159646
0.00294745
0.00409772
0.00508357
0.00592179
0.00662222
0.00719461
0.00765087
0.00800516
0.00827298
0.00847004
0.0086112
0.00870965
0.00877648
0.00882058
0.00884881
0.00886621
0.00887644
0.00888205
0.00888478
0.00888581
0.00888584
0.000183712
0.00159649
0.00294754
0.00409792
0.00508392
0.00592234
0.006623
0.00719566
0.00765222
0.00800681
0.00827496
0.00847237
0.00861391
0.00871278
0.00878009
0.00882474
0.00885356
0.00887163
0.00888254
0.00888883
0.0088922
0.00889375
0.00889416
0.000183713
0.0015965
0.00294759
0.00409803
0.00508412
0.00592265
0.00662345
0.00719627
0.007653
0.00800779
0.00827613
0.00847376
0.00861554
0.00871468
0.00878229
0.00882727
0.00885647
0.00887493
0.00888627
0.00889297
0.00889671
0.00889858
0.00889921
0.000183713
0.00159651
0.00294762
0.00409809
0.00508423
0.00592283
0.00662371
0.00719662
0.00765346
0.00800835
0.00827682
0.00847459
0.00861651
0.00871581
0.0087836
0.00882879
0.00885822
0.00887692
0.0088885
0.00889545
0.00889941
0.00890147
0.00890223
0.000183714
0.00159652
0.00294764
0.00409812
0.00508429
0.00592292
0.00662385
0.00719682
0.00765372
0.00800868
0.00827723
0.00847507
0.00861709
0.00871648
0.00878438
0.0088297
0.00885925
0.0088781
0.00888983
0.00889692
0.00890101
0.00890317
0.00890401
0.000183714
0.00159652
0.00294765
0.00409814
0.00508433
0.00592298
0.00662393
0.00719693
0.00765386
0.00800887
0.00827746
0.00847535
0.00861742
0.00871688
0.00878484
0.00883023
0.00885986
0.00887879
0.0088906
0.00889777
0.00890194
0.00890416
0.00890505
0.000183714
0.00159652
0.00294765
0.00409815
0.00508435
0.00592301
0.00662398
0.00719699
0.00765395
0.00800898
0.00827759
0.00847551
0.00861761
0.0087171
0.00878511
0.00883053
0.00886021
0.00887919
0.00889105
0.00889827
0.00890248
0.00890474
0.00890565
0.000183714
0.00159652
0.00294765
0.00409816
0.00508435
0.00592302
0.006624
0.00719702
0.00765399
0.00800904
0.00827766
0.0084756
0.00861772
0.00871723
0.00878526
0.00883071
0.00886042
0.00887942
0.00889131
0.00889855
0.00890279
0.00890506
0.00890599
0.000183714
0.00159652
0.00294765
0.00409816
0.00508436
0.00592303
0.00662401
0.00719704
0.00765402
0.00800907
0.00827771
0.00847565
0.00861778
0.00871731
0.00878535
0.00883081
0.00886053
0.00887955
0.00889146
0.00889871
0.00890296
0.00890525
0.00890618
0.000183714
0.00159652
0.00294765
0.00409816
0.00508436
0.00592304
0.00662402
0.00719705
0.00765403
0.00800909
0.00827773
0.00847568
0.00861782
0.00871735
0.00878539
0.00883087
0.0088606
0.00887963
0.00889154
0.0088988
0.00890306
0.00890535
0.00890629
0.000183714
0.00159652
0.00294765
0.00409816
0.00508436
0.00592304
0.00662402
0.00719706
0.00765404
0.0080091
0.00827774
0.0084757
0.00861784
0.00871737
0.00878542
0.0088309
0.00886063
0.00887967
0.00889159
0.00889885
0.00890311
0.00890541
0.00890635
0.000183714
0.00159652
0.00294765
0.00409816
0.00508437
0.00592304
0.00662403
0.00719706
0.00765405
0.0080091
0.00827775
0.00847571
0.00861785
0.00871738
0.00878544
0.00883092
0.00886065
0.00887969
0.00889161
0.00889888
0.00890314
0.00890544
0.00890638
0.000183714
0.00159652
0.00294765
0.00409816
0.00508437
0.00592304
0.00662403
0.00719707
0.00765405
0.00800911
0.00827775
0.00847571
0.00861785
0.00871739
0.00878544
0.00883093
0.00886066
0.0088797
0.00889162
0.0088989
0.00890316
0.00890546
0.0089064
0.000183714
0.00159652
0.00294765
0.00409816
0.00508437
0.00592304
0.00662403
0.00719707
0.00765405
0.00800911
0.00827776
0.00847571
0.00861786
0.00871739
0.00878545
0.00883093
0.00886067
0.00887971
0.00889163
0.00889891
0.00890317
0.00890547
0.00890641
0.000183714
0.00159652
0.00294765
0.00409816
0.00508437
0.00592304
0.00662403
0.00719707
0.00765405
0.00800911
0.00827776
0.00847572
0.00861786
0.0087174
0.00878545
0.00883093
0.00886067
0.00887971
0.00889164
0.00889891
0.00890318
0.00890547
0.00890641
0.000183714
0.00159652
0.00294765
0.00409816
0.00508437
0.00592304
0.00662403
0.00719707
0.00765405
0.00800911
0.00827776
0.00847572
0.00861786
0.0087174
0.00878545
0.00883094
0.00886068
0.00887972
0.00889164
0.00889891
0.00890318
0.00890548
0.00890642
0.000183714
0.00159652
0.00294765
0.00409816
0.00508437
0.00592304
0.00662403
0.00719707
0.00765405
0.00800911
0.00827776
0.00847572
0.00861786
0.0087174
0.00878545
0.00883094
0.00886068
0.00887972
0.00889164
0.00889892
0.00890318
0.00890548
0.00890642
0.000183714
0.00159652
0.00294765
0.00409816
0.00508437
0.00592304
0.00662403
0.00719707
0.00765405
0.00800911
0.00827776
0.00847572
0.00861786
0.0087174
0.00878546
0.00883094
0.00886068
0.00887972
0.00889164
0.00889892
0.00890318
0.00890548
0.00890642
0.000183714
0.00159652
0.00294765
0.00409816
0.00508437
0.00592304
0.00662403
0.00719707
0.00765405
0.00800911
0.00827776
0.00847572
0.00861786
0.0087174
0.00878546
0.00883094
0.00886068
0.00887972
0.00889165
0.00889892
0.00890319
0.00890549
0.00890643
0.000183714
0.00159652
0.00294765
0.00409816
0.00508437
0.00592304
0.00662403
0.00719707
0.00765405
0.00800911
0.00827776
0.00847572
0.00861786
0.0087174
0.00878546
0.00883094
0.00886068
0.00887972
0.00889165
0.00889892
0.00890319
0.00890549
0.00890643
0.000183714
0.00159652
0.00294765
0.00409816
0.00508437
0.00592304
0.00662403
0.00719707
0.00765405
0.00800911
0.00827776
0.00847572
0.00861786
0.0087174
0.00878546
0.00883094
0.00886068
0.00887972
0.00889165
0.00889893
0.0089032
0.0089055
0.00890644
0.000183714
0.00159652
0.00294765
0.00409816
0.00508437
0.00592304
0.00662403
0.00719707
0.00765405
0.00800911
0.00827776
0.00847572
0.00861786
0.0087174
0.00878546
0.00883094
0.00886068
0.00887973
0.00889165
0.00889893
0.0089032
0.0089055
0.00890645
0.000183714
0.00159652
0.00294765
0.00409816
0.00508437
0.00592304
0.00662403
0.00719707
0.00765405
0.00800911
0.00827776
0.00847572
0.00861786
0.0087174
0.00878546
0.00883094
0.00886069
0.00887973
0.00889166
0.00889894
0.00890321
0.00890551
0.00890646
0.000183714
0.00159652
0.00294765
0.00409816
0.00508437
0.00592304
0.00662403
0.00719707
0.00765405
0.00800911
0.00827776
0.00847572
0.00861786
0.0087174
0.00878546
0.00883094
0.00886069
0.00887973
0.00889166
0.00889894
0.00890321
0.00890552
0.00890646
0.000183714
0.00159652
0.00294765
0.00409816
0.00508437
0.00592304
0.00662403
0.00719707
0.00765405
0.00800911
0.00827776
0.00847572
0.00861786
0.0087174
0.00878546
0.00883095
0.00886069
0.00887973
0.00889166
0.00889894
0.00890322
0.00890552
0.00890647
0.000183714
0.00159652
0.00294765
0.00409816
0.00508437
0.00592304
0.00662403
0.00719707
0.00765405
0.00800911
0.00827776
0.00847572
0.00861786
0.0087174
0.00878546
0.00883095
0.00886069
0.00887973
0.00889166
0.00889894
0.00890322
0.00890553
0.00890648
0.000234269
0.000214714
0.000214554
0.000233497
0.00205813
0.0019619
0.00196188
0.0020574
0.00375691
0.00367244
0.0036721
0.00375571
0.00504229
0.00499204
0.00499153
0.00504071
0.00603267
0.00600269
0.00600211
0.00603088
0.00679834
0.0067796
0.006779
0.00679654
0.00738547
0.00737333
0.00737276
0.00738372
0.00782898
0.00782098
0.00782042
0.00782729
0.0081577
0.00815238
0.00815184
0.00815605
0.00839621
0.00839265
0.00839212
0.00839458
0.00856544
0.00856305
0.00856252
0.00856382
0.00868283
0.0086812
0.00868068
0.00868121
0.00876246
0.00876134
0.00876081
0.00876085
0.00881534
0.00881453
0.008814
0.00881371
0.00884972
0.00884912
0.00884859
0.0088481
0.00887166
0.00887118
0.00887065
0.00887003
0.00888541
0.008885
0.00888447
0.00888377
0.00889387
0.00889351
0.00889298
0.00889224
0.008899
0.00889867
0.00889814
0.00889737
0.00890207
0.00890175
0.00890122
0.00890043
0.00890388
0.00890357
0.00890304
0.00890224
0.00890493
0.00890463
0.00890409
0.00890329
0.00890554
0.00890524
0.0089047
0.0089039
0.00890588
0.00890559
0.00890505
0.00890424
0.00890608
0.00890578
0.00890524
0.00890444
0.00890619
0.00890589
0.00890535
0.00890455
0.00890625
0.00890595
0.00890541
0.00890461
0.00890628
0.00890598
0.00890545
0.00890464
0.0089063
0.008906
0.00890547
0.00890466
0.00890631
0.00890601
0.00890548
0.00890467
0.00890632
0.00890602
0.00890548
0.00890467
0.00890632
0.00890602
0.00890549
0.00890468
0.00890632
0.00890603
0.00890549
0.00890468
0.00890633
0.00890603
0.00890549
0.00890469
0.00890633
0.00890603
0.0089055
0.00890469
0.00890634
0.00890604
0.0089055
0.0089047
0.00890634
0.00890605
0.00890551
0.0089047
0.00890635
0.00890606
0.00890552
0.00890471
0.00890636
0.00890607
0.00890553
0.00890472
0.00890637
0.00890608
0.00890554
0.00890473
0.00890638
0.00890609
0.00890555
0.00890474
0.00890639
0.0089061
0.00890556
0.00890475
0.00128994
0.00253718
0.00348043
0.00410627
0.00451189
0.00477005
0.00492642
0.00500881
0.00503276
0.0050045
0.00492253
0.00477873
0.00455934
0.00424585
0.00381522
0.00323854
0.00247503
0.00145432
0.000191819
0.00270262
0.00359187
0.00433517
0.00488897
0.00527778
0.00553761
0.00569851
0.00578147
0.00579859
0.00575379
0.00564348
0.00545746
0.00518008
0.0047914
0.00426806
0.0035825
0.00269767
0.00155112
0.00019717
0.00405847
0.00463253
0.00518003
0.00562998
0.00596869
0.00620515
0.00635368
0.00642644
0.00643028
0.0063656
0.00622619
0.00599979
0.00566933
0.00521434
0.0046122
0.00383775
0.00285828
0.00161852
0.000200774
0.00520136
0.00556744
0.00595658
0.00630276
0.00657844
0.00677734
0.00690205
0.00695662
0.00694237
0.0068558
0.00668786
0.00642436
0.00604715
0.00553577
0.00486886
0.00402397
0.00297247
0.00166501
0.000203189
0.00612465
0.00636086
0.00663218
0.00688836
0.00710101
0.00725722
0.00735232
0.00738415
0.00734917
0.00724021
0.00704555
0.00674922
0.00633229
0.00577455
0.00505607
0.00415693
0.00305203
0.00169652
0.000204783
0.00685442
0.0070086
0.00719511
0.00737864
0.00753493
0.00764946
0.00771376
0.00772147
0.00766527
0.00753486
0.00731622
0.00699188
0.00654231
0.00594768
0.00518936
0.00424964
0.00310619
0.00171741
0.000205816
0.0074204
0.00752137
0.00764755
0.00777483
0.00788403
0.00796141
0.00799687
0.00798151
0.00790527
0.00775547
0.00751619
0.00716877
0.00669325
0.00607014
0.00528196
0.00431273
0.00314219
0.00173094
0.00020647
0.00785064
0.00791628
0.00799978
0.00808472
0.00815641
0.00820268
0.00821306
0.00817722
0.00808328
0.0079168
0.00766044
0.00729465
0.00679911
0.00615467
0.00534474
0.00435462
0.00316554
0.0017395
0.000206876
0.00817072
0.00821256
0.00826606
0.00831988
0.00836277
0.00838423
0.00837399
0.00832101
0.00821226
0.00803209
0.00776212
0.00738214
0.00687162
0.00621166
0.00538632
0.00438181
0.00318035
0.0017448
0.000207122
0.00840349
0.00842924
0.00846186
0.00849328
0.00851477
0.00851724
0.00849083
0.00842418
0.00830361
0.00811264
0.0078322
0.00744161
0.0069202
0.00624924
0.00541325
0.00439907
0.00318954
0.00174801
0.000207269
0.0085689
0.00858382
0.00860209
0.00861775
0.00862379
0.00861222
0.00857361
0.00849653
0.0083669
0.00816773
0.0078795
0.00748119
0.00695206
0.00627351
0.00543034
0.00440982
0.00319513
0.00174991
0.000207354
0.00868376
0.00869147
0.00870003
0.00870482
0.00870003
0.00867841
0.00863093
0.00854617
0.00840984
0.00820465
0.00791078
0.00750702
0.00697256
0.00628888
0.00544098
0.00441638
0.00319848
0.00175103
0.000207404
0.00876174
0.00876471
0.00876682
0.0087643
0.00875208
0.00872348
0.00866974
0.00857951
0.0084384
0.00822893
0.0079311
0.00752358
0.00698552
0.00629844
0.0054475
0.00442033
0.00320046
0.00175167
0.000207432
0.00881354
0.00881345
0.00881135
0.00880401
0.00878683
0.00875351
0.00869549
0.00860148
0.00845704
0.00824461
0.00794406
0.00753401
0.00699357
0.00630431
0.00545143
0.00442267
0.0032016
0.00175204
0.000207447
0.00884726
0.00884521
0.00884042
0.00882997
0.00880956
0.00877312
0.00871224
0.00861569
0.008469
0.00825457
0.00795221
0.00754048
0.0069985
0.00630785
0.00545377
0.00442403
0.00320226
0.00175225
0.000207456
0.00886877
0.00886551
0.00885903
0.00884661
0.00882413
0.00878568
0.00872294
0.00862472
0.00847655
0.0082608
0.00795725
0.00754445
0.00700148
0.00630996
0.00545514
0.00442482
0.00320263
0.00175236
0.000207461
0.00888225
0.00887825
0.00887073
0.00885708
0.00883331
0.00879358
0.00872966
0.00863036
0.00848124
0.00826464
0.00796033
0.00754684
0.00700326
0.0063112
0.00545594
0.00442527
0.00320284
0.00175242
0.000207464
0.00889056
0.0088861
0.00887795
0.00886356
0.00883899
0.00879848
0.00873381
0.00863384
0.00848411
0.00826697
0.00796218
0.00754827
0.00700431
0.00631192
0.0054564
0.00442553
0.00320296
0.00175246
0.000207465
0.0088956
0.00889088
0.00888235
0.0088675
0.00884246
0.00880146
0.00873634
0.00863595
0.00848585
0.00826837
0.00796329
0.00754911
0.00700492
0.00631234
0.00545666
0.00442567
0.00320302
0.00175248
0.000207466
0.00889861
0.00889373
0.00888498
0.00886987
0.00884454
0.00880326
0.00873786
0.00863722
0.00848689
0.00826921
0.00796394
0.0075496
0.00700528
0.00631258
0.0054568
0.00442575
0.00320306
0.00175249
0.000207466
0.00890039
0.00889542
0.00888654
0.00887127
0.00884577
0.00880432
0.00873876
0.00863797
0.0084875
0.0082697
0.00796432
0.00754989
0.00700548
0.00631272
0.00545689
0.0044258
0.00320308
0.00175249
0.000207466
0.00890142
0.0088964
0.00888745
0.00887209
0.00884649
0.00880494
0.00873929
0.00863841
0.00848786
0.00826998
0.00796454
0.00755005
0.0070056
0.00631279
0.00545693
0.00442582
0.00320309
0.0017525
0.000207466
0.00890202
0.00889697
0.00888797
0.00887257
0.00884691
0.00880531
0.0087396
0.00863866
0.00848806
0.00827014
0.00796467
0.00755014
0.00700566
0.00631283
0.00545696
0.00442583
0.00320309
0.0017525
0.000207466
0.00890236
0.00889729
0.00888827
0.00887284
0.00884715
0.00880551
0.00873977
0.0086388
0.00848818
0.00827024
0.00796474
0.00755019
0.0070057
0.00631286
0.00545697
0.00442584
0.0032031
0.0017525
0.000207467
0.00890255
0.00889747
0.00888844
0.00887299
0.00884729
0.00880563
0.00873987
0.00863889
0.00848825
0.00827029
0.00796478
0.00755022
0.00700572
0.00631287
0.00545698
0.00442585
0.0032031
0.0017525
0.000207467
0.00890266
0.00889757
0.00888854
0.00887308
0.00884736
0.0088057
0.00873993
0.00863893
0.00848828
0.00827032
0.0079648
0.00755024
0.00700573
0.00631288
0.00545698
0.00442585
0.0032031
0.0017525
0.000207467
0.00890272
0.00889763
0.00888859
0.00887313
0.00884741
0.00880573
0.00873996
0.00863896
0.00848831
0.00827034
0.00796481
0.00755025
0.00700573
0.00631288
0.00545699
0.00442585
0.0032031
0.0017525
0.000207467
0.00890275
0.00889766
0.00888862
0.00887315
0.00884743
0.00880575
0.00873998
0.00863897
0.00848832
0.00827034
0.00796482
0.00755025
0.00700574
0.00631288
0.00545699
0.00442585
0.0032031
0.0017525
0.000207467
0.00890277
0.00889768
0.00888863
0.00887317
0.00884744
0.00880577
0.00873999
0.00863898
0.00848832
0.00827035
0.00796482
0.00755026
0.00700574
0.00631289
0.00545699
0.00442585
0.0032031
0.0017525
0.000207467
0.00890278
0.00889769
0.00888864
0.00887317
0.00884745
0.00880577
0.00873999
0.00863899
0.00848833
0.00827035
0.00796483
0.00755026
0.00700574
0.00631289
0.00545699
0.00442585
0.0032031
0.0017525
0.000207467
0.00890278
0.00889769
0.00888865
0.00887318
0.00884746
0.00880578
0.00873999
0.00863899
0.00848833
0.00827035
0.00796483
0.00755026
0.00700574
0.00631289
0.00545699
0.00442585
0.0032031
0.0017525
0.000207467
0.00890279
0.0088977
0.00888865
0.00887318
0.00884746
0.00880578
0.00874
0.00863899
0.00848833
0.00827035
0.00796483
0.00755026
0.00700574
0.00631289
0.00545699
0.00442585
0.0032031
0.0017525
0.000207467
0.00890279
0.0088977
0.00888865
0.00887318
0.00884746
0.00880578
0.00874
0.00863899
0.00848833
0.00827036
0.00796483
0.00755026
0.00700574
0.00631289
0.00545699
0.00442585
0.0032031
0.0017525
0.000207467
0.00890279
0.0088977
0.00888866
0.00887319
0.00884746
0.00880578
0.00874
0.00863899
0.00848833
0.00827036
0.00796483
0.00755026
0.00700574
0.00631289
0.00545699
0.00442585
0.0032031
0.0017525
0.000207467
0.0089028
0.00889771
0.00888866
0.00887319
0.00884746
0.00880578
0.00874
0.00863899
0.00848833
0.00827036
0.00796483
0.00755026
0.00700574
0.00631289
0.00545699
0.00442585
0.0032031
0.0017525
0.000207467
0.0089028
0.00889771
0.00888866
0.00887319
0.00884747
0.00880578
0.00874
0.00863899
0.00848833
0.00827036
0.00796483
0.00755026
0.00700574
0.00631289
0.00545699
0.00442585
0.0032031
0.0017525
0.000207467
0.00890281
0.00889772
0.00888867
0.0088732
0.00884747
0.00880579
0.00874
0.00863899
0.00848833
0.00827036
0.00796483
0.00755026
0.00700574
0.00631289
0.00545699
0.00442585
0.0032031
0.0017525
0.000207467
0.00890282
0.00889772
0.00888868
0.0088732
0.00884747
0.00880579
0.00874
0.008639
0.00848833
0.00827036
0.00796483
0.00755026
0.00700574
0.00631289
0.00545699
0.00442585
0.0032031
0.0017525
0.000207467
0.00890283
0.00889773
0.00888868
0.00887321
0.00884748
0.00880579
0.00874001
0.008639
0.00848833
0.00827036
0.00796483
0.00755026
0.00700574
0.00631289
0.00545699
0.00442585
0.0032031
0.0017525
0.000207467
0.00890284
0.00889774
0.00888869
0.00887321
0.00884748
0.00880579
0.00874001
0.008639
0.00848834
0.00827036
0.00796483
0.00755026
0.00700574
0.00631289
0.00545699
0.00442585
0.0032031
0.0017525
0.000207467
0.00890285
0.00889775
0.00888869
0.00887321
0.00884748
0.00880579
0.00874001
0.008639
0.00848834
0.00827036
0.00796483
0.00755026
0.00700574
0.00631289
0.00545699
0.00442585
0.0032031
0.0017525
0.000207467
0.00890285
0.00889775
0.0088887
0.00887322
0.00884748
0.0088058
0.00874001
0.008639
0.00848834
0.00827036
0.00796483
0.00755026
0.00700574
0.00631289
0.00545699
0.00442585
0.0032031
0.0017525
0.000207467
)
;

boundaryField
{
    leftWall
    {
        type            nutkWallFunction;
        blending        stepwise;
        value           nonuniform List<scalar> 
50
(
4.58506e-06
9.5494e-06
1.2039e-05
1.37126e-05
1.49223e-05
1.58365e-05
1.65462e-05
1.71069e-05
1.78051e-05
1.84046e-05
1.87854e-05
1.90261e-05
1.91763e-05
1.92683e-05
1.93237e-05
1.93564e-05
1.93754e-05
1.93862e-05
1.93923e-05
1.93957e-05
1.93976e-05
1.93986e-05
1.93991e-05
1.93994e-05
1.93996e-05
1.93996e-05
1.93997e-05
1.93997e-05
1.93997e-05
1.93997e-05
1.93997e-05
1.93997e-05
1.93997e-05
1.93997e-05
1.93997e-05
1.93997e-05
1.93997e-05
1.93997e-05
1.93997e-05
1.93997e-05
1.93997e-05
1.93997e-05
1.93997e-05
1.93997e-05
1.93997e-05
1.93997e-05
1.93997e-05
1.93997e-05
1.93997e-05
1.93997e-05
)
;
    }
    rightWall
    {
        type            nutkWallFunction;
        blending        stepwise;
        value           nonuniform List<scalar> 
50
(
7.03937e-06
1.25736e-05
1.52277e-05
1.70095e-05
1.82996e-05
1.92768e-05
2.0037e-05
2.06384e-05
2.13881e-05
2.20317e-05
2.24403e-05
2.26983e-05
2.2859e-05
2.29576e-05
2.30169e-05
2.3052e-05
2.30723e-05
2.3084e-05
2.30906e-05
2.30942e-05
2.30962e-05
2.30973e-05
2.30979e-05
2.30983e-05
2.30984e-05
2.30985e-05
2.30986e-05
2.30986e-05
2.30986e-05
2.30986e-05
2.30986e-05
2.30986e-05
2.30986e-05
2.30986e-05
2.30986e-05
2.30986e-05
2.30986e-05
2.30986e-05
2.30986e-05
2.30986e-05
2.30986e-05
2.30986e-05
2.30986e-05
2.30986e-05
2.30986e-05
2.30986e-05
2.30986e-05
2.30986e-05
2.30986e-05
2.30986e-05
)
;
    }
    lowerWall
    {
        type            nutkWallFunction;
        blending        stepwise;
        value           nonuniform List<scalar> 
62
(
0
0
0
6.96983e-07
1.22202e-06
1.5587e-06
1.77679e-06
1.91719e-06
2.00599e-06
2.0605e-06
2.09204e-06
2.10754e-06
2.11027e-06
2.10016e-06
2.07335e-06
2.02113e-06
1.92768e-06
1.76591e-06
1.48906e-06
1.01265e-06
1.69436e-07
0
0
0
9.56208e-06
1.24481e-05
1.44474e-05
1.60853e-05
1.77247e-05
2.00243e-05
2.48289e-05
2.65799e-05
2.36318e-05
2.36075e-05
2.64632e-05
0
1.2514e-05
1.56374e-05
1.77927e-05
1.9571e-05
2.13929e-05
2.39984e-05
2.92269e-05
0
0
4.10011e-07
1.2026e-06
1.62916e-06
1.86314e-06
1.98974e-06
2.05391e-06
2.07931e-06
2.07659e-06
2.04706e-06
1.98409e-06
1.87266e-06
1.68713e-06
1.38565e-06
8.96278e-07
7.77915e-08
0
0
)
;
    }
    atmosphere
    {
        type            calculated;
        value           nonuniform List<scalar> 
46
(
0.000183714
0.00159652
0.00294765
0.00409816
0.00508437
0.00592304
0.00662403
0.00719707
0.00765405
0.00800911
0.00827776
0.00847572
0.00861786
0.0087174
0.00878546
0.00883095
0.00886069
0.00887973
0.00889166
0.00889894
0.00890322
0.00890553
0.00890648
0.00890639
0.0089061
0.00890556
0.00890475
0.00890285
0.00889775
0.0088887
0.00887322
0.00884748
0.0088058
0.00874001
0.008639
0.00848834
0.00827036
0.00796483
0.00755026
0.00700574
0.00631289
0.00545699
0.00442585
0.0032031
0.0017525
0.000207467
)
;
    }
    defaultFaces
    {
        type            empty;
    }
}


// ************************************************************************* //
