/*--------------------------------*- C++ -*----------------------------------*\
| =========                 |                                                 |
| \\      /  F ield         | OpenFOAM: The Open Source CFD Toolbox           |
|  \\    /   O peration     | Version:  2406                                  |
|   \\  /    A nd           | Website:  www.openfoam.com                      |
|    \\/     M anipulation  |                                                 |
\*---------------------------------------------------------------------------*/
FoamFile
{
    version     2.0;
    format      ascii;
    arch        "LSB;label=32;scalar=64";
    class       volScalarField;
    location    "0.3";
    object      nut;
}
// * * * * * * * * * * * * * * * * * * * * * * * * * * * * * * * * * * * * * //

dimensions      [0 2 -1 0 0 0 0];

internalField   nonuniform List<scalar> 
2268
(
0.000289337
0.000213038
0.000213038
0.000213038
0.000213038
0.000213038
0.000213038
0.000213038
0.000213038
0.000213038
0.000213038
0.000213038
0.000213038
6.11909e-05
5.58071e-05
6.23044e-05
6.57963e-05
6.73792e-05
6.73826e-05
6.56934e-05
6.16995e-05
5.36059e-05
3.40032e-05
0.000450785
0.000254306
0.000232321
0.000225511
0.000222385
0.000220634
0.000219545
0.000218827
0.000218345
0.000218026
0.00021783
0.000217737
0.000217737
0.000129677
0.000397804
0.000518962
0.00057463
0.00059954
0.000600737
0.000577246
0.000520672
0.000404088
0.000111672
0.000450785
0.000288167
0.000251962
0.000238672
0.000232268
0.000228639
0.000226375
0.000224886
0.000223885
0.000223224
0.000222819
0.000222627
0.000222627
0.000179744
0.000616636
0.00088223
0.00101621
0.00107826
0.00108334
0.00102995
0.000901999
0.000650629
0.00012912
0.000450785
0.000314823
0.000270613
0.00025196
0.00024245
0.000236938
0.000233468
0.000231177
0.000229635
0.000228616
0.000227993
0.000227696
0.000227696
0.000219264
0.000761852
0.00114345
0.00135346
0.001455
0.00146675
0.00138663
0.00119327
0.000825047
0.000141562
0.000450785
0.000335499
0.000287639
0.000264954
0.00025271
0.000245414
0.000240758
0.00023766
0.00023557
0.000234185
0.000233336
0.000232932
0.000232932
0.000251881
0.000871531
0.00134749
0.00162845
0.00177054
0.00179242
0.00169098
0.00144044
0.000968735
0.000152093
0.000450785
0.000351572
0.000302834
0.000277373
0.000262866
0.000253958
0.000248177
0.000244294
0.000241659
0.000239908
0.000238833
0.000238321
0.000238321
0.000279749
0.000961588
0.00151871
0.00186667
0.00205065
0.00208699
0.00197112
0.00167236
0.00110444
0.0001631
0.000450785
0.000364209
0.000316232
0.000289058
0.00027278
0.000262475
0.000255663
0.000251036
0.000247874
0.000245763
0.000244465
0.000243845
0.000243845
0.00030429
0.00104031
0.00167154
0.00208429
0.00231202
0.00236811
0.00224657
0.00191139
0.00125238
0.000179019
0.000450785
0.00037429
0.00032798
0.000299934
0.000282354
0.000270887
0.000263158
0.000257844
0.000254183
0.000251727
0.000250211
0.000249487
0.000249487
0.000326572
0.00111344
0.00181657
0.0022935
0.00256739
0.00264936
0.00253333
0.0021809
0.00144976
0.000211839
3.5214e-05
5.56273e-05
6.41179e-05
6.86575e-05
7.12657e-05
7.2784e-05
7.36442e-05
7.40931e-05
7.42722e-05
7.42492e-05
7.40316e-05
7.35744e-05
7.27817e-05
7.1503e-05
6.95182e-05
6.64848e-05
6.17614e-05
5.37302e-05
5.73237e-05
0.000128977
0.000434152
0.000556699
0.000621899
0.000659683
0.000681864
0.000694494
0.000701095
0.00070371
0.000703312
0.000700005
0.000693116
0.000681234
0.000662188
0.000632902
0.000588787
0.000521225
0.000405745
0.000128415
0.000148702
0.000713404
0.000985463
0.00113778
0.00122858
0.00128274
0.00131381
0.00133007
0.00133645
0.00133531
0.00132689
0.00130953
0.0012798
0.0012326
0.00116113
0.00105609
0.000901193
0.000652009
0.000144977
0.000162964
0.00091656
0.0013244
0.00156126
0.00170528
0.00179223
0.00184246
0.0018688
0.001879
0.0018768
0.0018625
0.00183338
0.00178398
0.00170632
0.00159032
0.0014232
0.00118422
0.000818849
0.000156397
0.00017528
0.00108738
0.00161955
0.00193489
0.00212899
0.00224734
0.00231619
0.00235237
0.00236614
0.00236242
0.00234152
0.00229961
0.00222921
0.00211973
0.00195831
0.00172985
0.00141147
0.000944419
0.000164903
0.000188469
0.00125043
0.00190071
0.00228725
0.00252669
0.00267394
0.00276024
0.00280567
0.00282257
0.00281677
0.00278843
0.0027326
0.00263986
0.00249726
0.00228973
0.00200067
0.00160644
0.00104693
0.000171629
0.000207584
0.00142718
0.00219074
0.00263821
0.00291636
0.00308895
0.00319093
0.00324471
0.00326411
0.00325554
0.00321882
0.00314785
0.00303142
0.00285456
0.00260047
0.0022516
0.0017839
0.0011367
0.000177207
0.000244808
0.00165571
0.0025125
0.0030037
0.00331168
0.00350494
0.00362019
0.00368107
0.00370214
0.00368997
0.00364387
0.00355656
0.00341525
0.00320334
0.00290276
0.00249513
0.00195543
0.00122121
0.000182031
0.000450785
0.000387195
0.000344346
0.000315956
0.00029696
0.000284002
0.000275004
0.000268694
0.00026429
0.000261312
0.000259465
0.00025858
0.00025858
0.000359513
0.00122735
0.00204606
0.00262671
0.00297959
0.00311462
0.00302918
0.00270178
0.00208112
0.00113698
0.000450785
0.000399213
0.000361271
0.000333994
0.000314484
0.00030048
0.00029038
0.000283101
0.000277924
0.000274375
0.000272155
0.000271086
0.000271086
0.000394705
0.00133228
0.00226085
0.00295524
0.00340989
0.0036329
0.0036303
0.0034067
0.00296965
0.00235713
0.000450785
0.00040801
0.000374623
0.000349178
0.000330023
0.000315684
0.000304998
0.000297101
0.000291377
0.000287402
0.000284894
0.00028368
0.00028368
0.000423858
0.00140633
0.00241281
0.0031994
0.00374881
0.004067
0.0041663
0.00406788
0.00380701
0.00344691
0.000450785
0.000414732
0.000385377
0.000362021
0.000343728
0.00032956
0.000318699
0.000310493
0.000304443
0.000300189
0.00029748
0.000296163
0.000296164
0.000449102
0.00146205
0.0025259
0.00338696
0.00402042
0.00443033
0.00463169
0.00465215
0.00453387
0.00433543
0.000450785
0.000420036
0.000394196
0.000372955
0.000355794
0.000342128
0.000331403
0.00032314
0.000316955
0.000312555
0.000309732
0.000308354
0.000308354
0.000471469
0.00150524
0.00261163
0.00353183
0.00423626
0.00472717
0.00501955
0.00514135
0.0051324
0.00504028
0.000450785
0.000424322
0.000401534
0.000382319
0.000366408
0.000353448
0.000343074
0.000334948
0.000328784
0.000324355
0.000321492
0.000320088
0.000320088
0.000491502
0.00153923
0.00267671
0.00364263
0.0044041
0.00496168
0.00532888
0.00553118
0.00560324
0.00558288
0.000450785
0.000427844
0.000407702
0.000390373
0.000375737
0.000363594
0.000353712
0.000345861
0.000339837
0.00033547
0.00033263
0.000331231
0.000331231
0.000509512
0.00156622
0.00272583
0.00372589
0.00453105
0.00514028
0.00556507
0.00582764
0.00595738
0.00598471
0.000450785
0.000430773
0.000412925
0.000397318
0.000383923
0.00037264
0.000363332
0.000355849
0.00035005
0.000345813
0.000343042
0.000341673
0.000341674
0.000525698
0.0015878
0.00276263
0.0037873
0.00462445
0.00527159
0.00573825
0.00604355
0.00621251
0.00627027
0.000450785
0.000433225
0.000417363
0.000403308
0.000391086
0.000380661
0.000371963
0.0003649
0.00035938
0.000355321
0.000352654
0.000351333
0.000351333
0.000540205
0.00160524
0.00279017
0.00383199
0.00469165
0.00536533
0.00586089
0.006195
0.00638938
0.00646559
0.000450785
0.000435287
0.000421139
0.000408466
0.000397326
0.000387726
0.00037964
0.000373019
0.000367809
0.000363955
0.000361413
0.00036015
0.00036015
0.000553152
0.00161956
0.00281102
0.00386454
0.00473951
0.00543103
0.00594566
0.00629826
0.00650832
0.00659515
0.000450785
0.00043702
0.000424344
0.000412888
0.000402728
0.000393898
0.000386402
0.000380221
0.000375329
0.000371693
0.000369286
0.000368088
0.000368088
0.000564655
0.00163162
0.00282739
0.00388891
0.00477416
0.00547727
0.0060039
0.00636774
0.00658691
0.0066794
0.000450785
0.000438472
0.000427051
0.000416653
0.000407364
0.000399235
0.000392289
0.000386529
0.000381946
0.000378527
0.000376258
0.000375126
0.000375126
0.000574853
0.00164223
0.00284129
0.00390866
0.0048009
0.00551135
0.00604507
0.00641515
0.00663904
0.00673405
0.000450785
0.000439679
0.000429317
0.000419825
0.000411296
0.000403789
0.00039734
0.000391966
0.000387674
0.000384462
0.000382324
0.000381257
0.000381257
0.000583948
0.00165235
0.00285486
0.00392729
0.00482463
0.00553953
0.00607684
0.00644958
0.00667505
0.00677041
0.000450785
0.000440669
0.000431186
0.000422456
0.000414574
0.000407605
0.000401591
0.000396562
0.000392532
0.000389507
0.000387491
0.000386483
0.000386483
0.000592304
0.00166339
0.00287089
0.00394885
0.00485039
0.00556761
0.00610565
0.00647805
0.0067025
0.00679635
0.000450785
0.000441465
0.000432694
0.000424589
0.000417242
0.000410723
0.000405078
0.000400343
0.000396539
0.000393677
0.000391767
0.000390811
0.000390811
0.000600655
0.00167778
0.00289375
0.00397902
0.00488427
0.00560159
0.00613728
0.00650619
0.00672692
0.00681729
0.000450785
0.000442083
0.000433869
0.000426256
0.000419336
0.000413176
0.00040783
0.000403335
0.000399715
0.000396989
0.000395167
0.000394254
0.000394254
0.000610653
0.00170039
0.00293126
0.00402662
0.00493446
0.00564837
0.00617739
0.00653873
0.00675246
0.00683699
0.000450785
0.000442536
0.000434732
0.000427484
0.000420881
0.000414993
0.000409872
0.000405558
0.00040208
0.000399457
0.000397703
0.000396823
0.000396824
0.000626465
0.00174227
0.00299871
0.00410622
0.00501237
0.00571605
0.00623159
0.00657971
0.00678221
0.00685799
0.000450785
0.000442833
0.000435299
0.000428293
0.000421901
0.000416192
0.000411222
0.000407031
0.000403648
0.000401095
0.000399386
0.00039853
0.00039853
0.000660829
0.00183272
0.00312772
0.00424143
0.00513285
0.00581332
0.00630491
0.00663217
0.00681824
0.00688187
0.000450785
0.00044298
0.000435581
0.000428694
0.000422407
0.000416789
0.000411894
0.000407764
0.000404429
0.000401912
0.000400226
0.000399381
0.000399381
0.000770063
0.00206224
0.00338181
0.00446532
0.0053112
0.00594684
0.0064002
0.00669744
0.0068613
0.00690924
0.000450785
0.00044298
0.000435581
0.000428694
0.000422407
0.000416789
0.000411894
0.000407764
0.00040443
0.000401912
0.000400226
0.000399381
0.000580382
0.00150054
0.00271144
0.0038505
0.00480196
0.00555223
0.00611625
0.00651607
0.0067743
0.00691065
0.00693978
0.000201216
0.000392518
0.000484464
0.00053827
0.000570885
0.000590572
0.000602445
0.000610349
0.000618071
0.000631267
0.000663751
0.000772722
0.00150274
0.00247608
0.00348857
0.0044177
0.00520529
0.00583453
0.00630999
0.00664582
0.00685885
0.0069641
0.00697236
0.000151424
0.000777389
0.00109188
0.00128553
0.001417
0.00150947
0.00157613
0.00162719
0.00167328
0.00172991
0.00182977
0.00206544
0.00271495
0.00349065
0.0042769
0.00500251
0.00562593
0.00612939
0.00651146
0.00677987
0.0069456
0.00701859
0.00700535
0.00015856
0.00106556
0.00163854
0.0020136
0.00228016
0.00247632
0.00262357
0.00273874
0.0028394
0.00294881
0.0031049
0.00337533
0.00385087
0.00442025
0.00500468
0.00555087
0.0060254
0.00641152
0.00670491
0.00690874
0.00702902
0.00707099
0.00703711
0.000166249
0.00123276
0.00201013
0.00255622
0.00296207
0.00327065
0.00350761
0.00369385
0.00385106
0.00400509
0.00418898
0.00444297
0.00479609
0.00520754
0.0056311
0.00602982
0.0063785
0.00666317
0.00687863
0.0070251
0.00710473
0.00711882
0.00706627
0.000171507
0.00133717
0.00225891
0.00294252
0.00347064
0.00388364
0.00420645
0.00446052
0.00466841
0.00485522
0.00504811
0.00527248
0.00554101
0.0058386
0.00614077
0.00642453
0.00667273
0.00687488
0.00702607
0.00712471
0.00717013
0.00716054
0.00709203
0.000175014
0.00140527
0.00242642
0.00321275
0.00383864
0.00433932
0.0047363
0.00504901
0.00529874
0.00550869
0.00570201
0.00589791
0.00610608
0.00632264
0.00653625
0.00673422
0.00690603
0.00704452
0.00714549
0.00720633
0.00722444
0.00719576
0.00711423
0.000177319
0.0014499
0.00253834
0.003398
0.00409727
0.00466637
0.00512266
0.00548248
0.00576489
0.00599116
0.00618216
0.0063551
0.00652033
0.00668011
0.00683105
0.00696745
0.00708369
0.00717528
0.00723882
0.00727117
0.00726845
0.00722503
0.00713334
0.000178804
0.00147876
0.00261181
0.003522
0.00427378
0.00489338
0.00539433
0.00578989
0.00609682
0.00633471
0.00652329
0.00667944
0.00681497
0.00693597
0.00704395
0.00713777
0.00721516
0.00727359
0.00731036
0.0073221
0.00730411
0.00724975
0.00715039
0.000179741
0.00149712
0.00265917
0.00360329
0.00439139
0.00504676
0.00557992
0.00600148
0.00632626
0.00657256
0.00675955
0.00690436
0.00702014
0.00711548
0.00719496
0.00726032
0.00731151
0.00734735
0.00736566
0.007363
0.00733418
0.00727193
0.00716697
0.000180331
0.00150875
0.00268962
0.00365634
0.00446919
0.00514941
0.00570527
0.00614535
0.00648295
0.00673549
0.00692185
0.00705952
0.00716272
0.00724166
0.00730283
0.00734977
0.00738384
0.00740475
0.00741072
0.00739829
0.00736202
0.00729424
0.00718527
0.000180719
0.00151647
0.00271006
0.00369238
0.00452254
0.0052203
0.00579229
0.00624563
0.00659254
0.00684986
0.00703635
0.00716987
0.0072654
0.00733419
0.00738393
0.00741928
0.00744246
0.00745377
0.0074517
0.00743281
0.00739153
0.00731998
0.00720824
0.00018102
0.00152246
0.00272598
0.00372041
0.00456389
0.00527498
0.00585909
0.00632233
0.00667623
0.00693733
0.00712444
0.00725573
0.00734672
0.00740939
0.00745216
0.00748035
0.00749676
0.00750204
0.00749485
0.00747181
0.00742728
0.00735326
0.00723972
0.000181342
0.00152875
0.00274233
0.0037485
0.00460421
0.00532692
0.0059211
0.00639224
0.00675159
0.00701566
0.00720347
0.00733355
0.00742184
0.00748081
0.00751933
0.00754316
0.00755542
0.00755698
0.00754664
0.00752106
0.00747457
0.00739913
0.00728468
0.000181816
0.00153772
0.00276477
0.00378537
0.00465481
0.00538932
0.00599275
0.00647044
0.00683383
0.00709984
0.00728792
0.00741699
0.0075034
0.00755992
0.00759574
0.00761685
0.00762657
0.00762591
0.00761375
0.0075868
0.00753941
0.00746358
0.00734925
0.000182652
0.001553
0.0028013
0.00384257
0.00472951
0.00547712
0.00608917
0.00657167
0.00693707
0.00720319
0.00739023
0.00751764
0.00760207
0.00765652
0.00769032
0.00770959
0.00771772
0.0077158
0.00770279
0.00767545
0.00762823
0.00755321
0.00744048
0.000184231
0.0015807
0.00286463
0.00393717
0.00484718
0.00560894
0.00622755
0.00671127
0.00707476
0.00733757
0.00752097
0.00764497
0.00772644
0.00777844
0.00781028
0.00782803
0.00783509
0.00783257
0.00781949
0.00779274
0.00774693
0.00767436
0.0075654
0.000187268
0.00163128
0.00297532
0.00409502
0.00503414
0.0058084
0.00642748
0.00690479
0.00725909
0.00751258
0.00768787
0.00780541
0.00788203
0.00793052
0.00795992
0.00797609
0.0079823
0.00797964
0.00796722
0.00794212
0.00789926
0.00783138
0.00772932
0.000193058
0.00172143
0.00316524
0.00435401
0.00532564
0.00610362
0.00670922
0.00716578
0.00749863
0.00773341
0.00789391
0.00800053
0.00806947
0.00811279
0.00813886
0.0081531
0.00815848
0.00815604
0.00814497
0.00812269
0.00808463
0.00802423
0.00793318
0.000203762
0.00187447
0.00348164
0.00476718
0.00576516
0.00652366
0.007089
0.00750127
0.00779455
0.0079977
0.00813474
0.00822485
0.00828266
0.00831876
0.00834038
0.00835213
0.00835658
0.00835459
0.00834554
0.00832726
0.00829596
0.00824612
0.00817073
0.000223157
0.00212283
0.00400139
0.00541021
0.00640126
0.00709034
0.00757083
0.0079055
0.00813634
0.00829297
0.00839715
0.00846497
0.00850818
0.00853502
0.00855104
0.00855975
0.00856308
0.0085617
0.00855516
0.00854186
0.00851901
0.00848248
0.00842704
0.000265436
0.00255273
0.00490281
0.00640602
0.00727948
0.0078035
0.00813562
0.00835409
0.00849981
0.00859671
0.00866036
0.00870148
0.00872755
0.0087437
0.00875333
0.00875858
0.00876061
0.00875986
0.00875607
0.00874829
0.00873484
0.00871326
0.00868037
0.000417079
0.00368542
0.00677776
0.00795878
0.00840523
0.00861347
0.00873028
0.00880303
0.00885039
0.00888151
0.00890185
0.00891495
0.00892325
0.00892839
0.00893146
0.00893314
0.00893381
0.00893361
0.00893245
0.00893006
0.00892589
0.00891914
0.00890869
0.000226087
0.000207504
0.000207938
0.000227583
0.00184859
0.00175763
0.00176456
0.00186544
0.0031962
0.00311321
0.00312869
0.00323629
0.00418852
0.00413561
0.00415838
0.0042497
0.00495018
0.00491905
0.00494746
0.00502857
0.00552807
0.00551121
0.00554389
0.00561968
0.00595148
0.0059433
0.00597917
0.00605278
0.00624928
0.00624589
0.00628411
0.00635748
0.00645093
0.00644991
0.00648981
0.00656391
0.00658338
0.0065834
0.00662442
0.00669951
0.00666871
0.00666903
0.00671072
0.00678667
0.00672341
0.00672364
0.00676561
0.00684207
0.00675911
0.00675893
0.00680081
0.00687741
0.00678368
0.00678274
0.00682415
0.00690053
0.00680237
0.00680023
0.00684077
0.00691654
0.0068187
0.00681477
0.00685397
0.00692874
0.00683494
0.00682855
0.00686587
0.0069392
0.00685249
0.00684285
0.00687771
0.00694918
0.00687194
0.00685828
0.00689012
0.00695932
0.0068932
0.00687487
0.00690323
0.00696982
0.00691561
0.00689221
0.00691679
0.00698057
0.00693821
0.00690962
0.00693036
0.00699128
0.00695995
0.00692639
0.00694344
0.00700161
0.00698003
0.00694194
0.00695563
0.00701128
0.00699796
0.00695596
0.00696674
0.00702021
0.00701372
0.00696849
0.00697685
0.0070285
0.00702773
0.00697994
0.00698636
0.00703655
0.00704089
0.00699112
0.00699605
0.0070451
0.00705459
0.00700333
0.00700713
0.00705532
0.00707081
0.00701847
0.00702143
0.00706897
0.00709233
0.00703923
0.00704157
0.0070886
0.00712293
0.00706932
0.0070712
0.00711781
0.00716762
0.00711378
0.0071153
0.00716148
0.00723275
0.00717906
0.00718031
0.00722592
0.00732584
0.00727287
0.00727392
0.00731862
0.00745469
0.00740337
0.00740429
0.00744744
0.00762561
0.00757736
0.00757821
0.00761879
0.00784063
0.00779739
0.00779821
0.00783471
0.00809418
0.00805823
0.008059
0.00808957
0.00837099
0.00834451
0.00834517
0.00836793
0.00864754
0.00863191
0.00863237
0.00864603
0.00889847
0.00889376
0.00889397
0.00889845
0.00123141
0.00233234
0.00311638
0.00363225
0.00397124
0.00418929
0.00432152
0.00439145
0.0044136
0.00439407
0.004331
0.00421529
0.00403207
0.00376287
0.00338823
0.0028881
0.00223356
0.00135477
0.000188682
0.00247509
0.00327515
0.00391829
0.00439249
0.00472611
0.00494948
0.00508777
0.00515997
0.00517793
0.00514556
0.00505869
0.00490575
0.00466961
0.00433039
0.00386834
0.00326367
0.00248717
0.00146997
0.000194573
0.00359748
0.00416367
0.0046661
0.00506797
0.00536687
0.00557399
0.00570387
0.00576923
0.00577775
0.00573012
0.00561932
0.00543129
0.00514707
0.00474619
0.00420979
0.00352039
0.00265194
0.00154087
0.000198276
0.00451994
0.00493976
0.00532718
0.00565199
0.00590268
0.00608035
0.00619162
0.00624333
0.00623863
0.00617462
0.00604129
0.00582223
0.00549707
0.00504524
0.00444944
0.00369513
0.00276015
0.00158583
0.000200617
0.00525489
0.00558242
0.00588205
0.00613729
0.00633766
0.00648071
0.00656831
0.00660269
0.006583
0.00650288
0.00634956
0.00610455
0.0057464
0.00525474
0.00461389
0.00381212
0.00283064
0.00161437
0.000202087
0.00582207
0.00609052
0.00632584
0.00652387
0.00667875
0.00678803
0.0068513
0.00686767
0.00683307
0.00673827
0.00656813
0.00630244
0.00591895
0.00539756
0.00472401
0.00388885
0.00287584
0.00163228
0.000202996
0.00624323
0.00647478
0.00666501
0.00681924
0.00693677
0.00701674
0.00705802
0.00705781
0.00700977
0.00690244
0.00671879
0.00643731
0.00603512
0.0054924
0.00479598
0.00393808
0.00290426
0.0016433
0.000203548
0.00654352
0.00675335
0.00691348
0.00703618
0.00712524
0.00718183
0.00720497
0.00719083
0.00713155
0.00701408
0.00682003
0.0065269
0.00611139
0.00555387
0.00484194
0.003969
0.00292176
0.00164995
0.000203876
0.00674967
0.00694763
0.00708866
0.00718984
0.00725848
0.00729764
0.00730681
0.00728175
0.00721362
0.00708835
0.00688657
0.00658511
0.00616037
0.00559285
0.00487068
0.00398801
0.00293233
0.00165388
0.000204067
0.00688667
0.00707864
0.00720807
0.00729522
0.00734993
0.00737677
0.00737579
0.00734261
0.00726787
0.00713682
0.00692947
0.00662221
0.00619123
0.0056171
0.00488832
0.0039995
0.0029386
0.00165617
0.000204177
0.00697545
0.00716456
0.00728717
0.00736552
0.0074111
0.00742959
0.00742155
0.0073826
0.00730312
0.00716794
0.0069567
0.00664548
0.00621035
0.00563195
0.00489897
0.00400633
0.00294226
0.00165747
0.000204239
0.00703206
0.00721977
0.00733841
0.00741133
0.0074511
0.00746414
0.00745136
0.00740846
0.00732568
0.00718764
0.00697373
0.00665987
0.00622204
0.00564091
0.00490531
0.00401033
0.00294437
0.00165821
0.000204273
0.00706798
0.00725482
0.00737106
0.00744067
0.00747681
0.00748634
0.00747047
0.00742494
0.00733994
0.00719997
0.00698427
0.00666867
0.0062291
0.00564625
0.00490903
0.00401265
0.00294556
0.00165862
0.000204292
0.00709103
0.00727707
0.00739172
0.00745924
0.0074931
0.00750042
0.00748256
0.00743531
0.00734885
0.00720759
0.00699071
0.00667399
0.00623331
0.0056494
0.0049112
0.00401397
0.00294623
0.00165885
0.000204303
0.00710637
0.00729143
0.00740486
0.00747097
0.00750335
0.00750926
0.00749013
0.00744177
0.00735435
0.00721225
0.00699462
0.00667718
0.00623581
0.00565125
0.00491245
0.00401472
0.00294661
0.00165897
0.000204308
0.00711734
0.00730111
0.0074134
0.00747844
0.00750981
0.00751479
0.00749483
0.00744576
0.00735772
0.00721509
0.00699697
0.00667907
0.00623728
0.00565231
0.00491317
0.00401515
0.00294682
0.00165904
0.000204311
0.007126
0.00730812
0.00741923
0.00748334
0.00751394
0.00751827
0.00749775
0.00744822
0.00735978
0.0072168
0.00699837
0.00668019
0.00623813
0.00565293
0.00491357
0.00401538
0.00294693
0.00165908
0.000204313
0.00713361
0.00731371
0.0074235
0.00748672
0.00751667
0.0075205
0.00749959
0.00744973
0.00736104
0.00721783
0.00699921
0.00668085
0.00623863
0.00565328
0.0049138
0.00401551
0.00294699
0.0016591
0.000204314
0.00714088
0.00731859
0.00742693
0.00748922
0.00751857
0.00752198
0.00750077
0.00745069
0.00736181
0.00721846
0.00699971
0.00668124
0.00623892
0.00565348
0.00491393
0.00401559
0.00294702
0.00165911
0.000204314
0.00714811
0.00732314
0.00742989
0.00749124
0.00751999
0.00752304
0.00750158
0.00745131
0.00736231
0.00721885
0.00700002
0.00668147
0.00623909
0.0056536
0.004914
0.00401563
0.00294704
0.00165911
0.000204314
0.00715533
0.00732752
0.00743261
0.00749298
0.00752116
0.00752385
0.00750217
0.00745177
0.00736266
0.00721913
0.00700023
0.00668164
0.00623921
0.00565368
0.00491405
0.00401565
0.00294705
0.00165911
0.000204314
0.00716246
0.00733177
0.00743519
0.00749459
0.00752221
0.00752457
0.00750268
0.00745215
0.00736295
0.00721936
0.00700041
0.00668177
0.00623931
0.00565375
0.00491409
0.00401568
0.00294706
0.00165912
0.000204314
0.00716934
0.00733588
0.00743769
0.00749616
0.00752324
0.00752528
0.00750321
0.00745255
0.00736327
0.00721962
0.00700062
0.00668193
0.00623942
0.00565383
0.00491414
0.0040157
0.00294708
0.00165912
0.000204315
0.00717587
0.00733986
0.00744018
0.00749779
0.00752437
0.00752611
0.00750385
0.00745308
0.00736371
0.00721998
0.00700092
0.00668217
0.0062396
0.00565395
0.00491422
0.00401574
0.00294709
0.00165913
0.000204315
0.00718204
0.00734378
0.00744278
0.00749962
0.00752574
0.0075272
0.00750477
0.00745387
0.0073644
0.00722058
0.00700142
0.00668258
0.00623991
0.00565417
0.00491436
0.00401582
0.00294713
0.00165914
0.000204315
0.00718802
0.00734786
0.00744573
0.0075019
0.00752761
0.00752881
0.0075062
0.00745515
0.00736555
0.0072216
0.0070023
0.0066833
0.00624047
0.00565457
0.00491462
0.00401597
0.00294719
0.00165915
0.000204316
0.0071942
0.00735249
0.00744943
0.00750502
0.00753037
0.00753133
0.00750852
0.0074573
0.00736752
0.00722337
0.00700384
0.00668459
0.00624149
0.00565532
0.00491511
0.00401625
0.00294732
0.00165919
0.000204317
0.00720129
0.00735835
0.00745454
0.00750966
0.00753468
0.00753539
0.00751236
0.00746092
0.00737089
0.00722644
0.00700656
0.00668689
0.00624334
0.00565668
0.00491602
0.00401678
0.00294757
0.00165927
0.000204321
0.00721039
0.0073665
0.0074621
0.00751682
0.00754154
0.00754199
0.0075187
0.00746696
0.00737658
0.00723169
0.00701126
0.00669095
0.00624664
0.00565918
0.00491773
0.00401779
0.00294805
0.00165942
0.000204327
0.00722317
0.00737855
0.00747368
0.00752806
0.0075525
0.00755266
0.00752905
0.00747693
0.00738606
0.00724054
0.00701931
0.00669799
0.00625249
0.0056637
0.00492089
0.00401972
0.002949
0.00165971
0.00020434
0.00724208
0.00739685
0.00749158
0.00754565
0.00756979
0.00756964
0.00754566
0.00749306
0.00740156
0.0072552
0.00703284
0.00671004
0.00626271
0.00567179
0.00492671
0.00402336
0.00295084
0.00166031
0.000204365
0.00727056
0.00742468
0.007519
0.00757274
0.00759658
0.0075961
0.00757171
0.00751858
0.00742634
0.00727893
0.0070551
0.00673027
0.00628028
0.00568609
0.00493733
0.00403024
0.00295443
0.0016615
0.000204418
0.00731324
0.00746645
0.0075602
0.00761353
0.00763703
0.00763622
0.00761146
0.00755784
0.00746489
0.00731639
0.00709087
0.00676353
0.00630997
0.00571104
0.00495652
0.00404318
0.00296145
0.00166391
0.000204526
0.00737602
0.00752763
0.00762039
0.00767311
0.00769622
0.00769515
0.00767019
0.00761634
0.00752299
0.00737372
0.00714674
0.00681682
0.00635904
0.00575385
0.00499088
0.00406743
0.00297525
0.00166886
0.000204751
0.00746574
0.00761437
0.00770534
0.00775701
0.00777963
0.00777846
0.00775369
0.00770022
0.00760733
0.00745835
0.00723109
0.00689962
0.00643808
0.00582582
0.00505161
0.00411273
0.00300255
0.00167916
0.000205231
0.00758927
0.00773251
0.00782023
0.00787012
0.00789203
0.00789099
0.00786707
0.00781512
0.00772436
0.00757796
0.00735329
0.00702356
0.00656134
0.00594376
0.00515704
0.00419667
0.00305679
0.00170101
0.000206282
0.00775166
0.00788577
0.00796798
0.00801485
0.00803564
0.008035
0.00801286
0.00796413
0.00787819
0.00773833
0.00752175
0.00720078
0.00674594
0.00613058
0.0053354
0.00434971
0.0031642
0.00174812
0.000208658
0.00795351
0.00807334
0.00814686
0.00818896
0.00820793
0.00820787
0.00818859
0.00814526
0.00806782
0.00794031
0.00774048
0.00744042
0.00700864
0.00641333
0.00562548
0.00461994
0.0033722
0.00184929
0.000214191
0.00818817
0.0082876
0.00834869
0.00838385
0.00839998
0.00840047
0.00838502
0.00834938
0.00828469
0.00817669
0.00800508
0.00774335
0.00735941
0.00681627
0.00607098
0.00507092
0.00375154
0.00205319
0.000227087
0.00844041
0.00851364
0.00855869
0.00858475
0.00859691
0.00859765
0.00858665
0.00856058
0.00851255
0.00843127
0.00830031
0.0080973
0.00779304
0.00734843
0.00670529
0.00576643
0.00437734
0.00239708
0.000254392
0.00868867
0.00873201
0.0087587
0.00877418
0.00878149
0.00878206
0.00877565
0.0087602
0.00873139
0.00868211
0.00860182
0.00847563
0.00828258
0.0079898
0.00753352
0.0067654
0.0053526
0.00288347
0.000302373
0.00891168
0.0089251
0.0089334
0.00893821
0.00894048
0.00894065
0.00893864
0.00893375
0.00892459
0.00890886
0.00888309
0.00884235
0.00877934
0.00868092
0.00851309
0.00815605
0.00713671
0.00407097
0.000468787
)
;

boundaryField
{
    leftWall
    {
        type            nutkWallFunction;
        blending        stepwise;
        value           nonuniform List<scalar> 
50
(
0
0
0
0
0
0
0
0
0
0
0
0
0
0
0
0
0
0
0
0
0
0
0
0
0
0
0
5.36008e-05
2.12072e-05
1.5406e-05
1.64778e-05
1.74831e-05
1.8134e-05
1.85442e-05
1.87984e-05
1.89527e-05
1.90447e-05
1.90993e-05
1.91332e-05
1.91581e-05
1.91841e-05
1.92231e-05
1.92943e-05
1.94346e-05
1.97178e-05
2.02911e-05
2.1437e-05
2.37293e-05
2.92271e-05
4.9249e-05
)
;
    }
    rightWall
    {
        type            nutkWallFunction;
        blending        stepwise;
        value           nonuniform List<scalar> 
50
(
7.00651e-06
1.24569e-05
1.50087e-05
1.6702e-05
1.79283e-05
1.88697e-05
1.96243e-05
2.02544e-05
2.10996e-05
2.1802e-05
2.22172e-05
2.24649e-05
2.26122e-05
2.26987e-05
2.27488e-05
2.27773e-05
2.27932e-05
2.2802e-05
2.28068e-05
2.28094e-05
2.28108e-05
2.28115e-05
2.28119e-05
2.28121e-05
2.28122e-05
2.28123e-05
2.28123e-05
2.28123e-05
2.28124e-05
2.28124e-05
2.28124e-05
2.28124e-05
2.28124e-05
2.28124e-05
2.28125e-05
2.28127e-05
2.28131e-05
2.28139e-05
2.28156e-05
2.28189e-05
2.28261e-05
2.28412e-05
2.28739e-05
2.29471e-05
2.31165e-05
2.35248e-05
2.45412e-05
2.71176e-05
3.4044e-05
5.55075e-05
)
;
    }
    lowerWall
    {
        type            nutkWallFunction;
        blending        stepwise;
        value           nonuniform List<scalar> 
62
(
0
0
0
0
0
0
0
0
0
0
0
0
2.16739e-05
0
0
3.67999e-08
6.06262e-07
8.50916e-07
8.30777e-07
5.23697e-07
0
0
0
0
9.37561e-06
1.21057e-05
1.39625e-05
1.54842e-05
1.70391e-05
1.92882e-05
2.40301e-05
2.5829e-05
2.29463e-05
2.29752e-05
2.59196e-05
0
1.23753e-05
1.53819e-05
1.74349e-05
1.91415e-05
2.09298e-05
2.35393e-05
2.87646e-05
0
0
1.59157e-07
9.172e-07
1.32923e-06
1.55398e-06
1.67303e-06
1.73175e-06
1.7548e-06
1.75342e-06
1.72912e-06
1.675e-06
1.5752e-06
1.40275e-06
1.11499e-06
6.42747e-07
0
0
0
)
;
    }
    atmosphere
    {
        type            calculated;
        value           uniform 0.009;
    }
    defaultFaces
    {
        type            empty;
    }
}


// ************************************************************************* //
