/*--------------------------------*- C++ -*----------------------------------*\
| =========                 |                                                 |
| \\      /  F ield         | OpenFOAM: The Open Source CFD Toolbox           |
|  \\    /   O peration     | Version:  2406                                  |
|   \\  /    A nd           | Website:  www.openfoam.com                      |
|    \\/     M anipulation  |                                                 |
\*---------------------------------------------------------------------------*/
FoamFile
{
    version     2.0;
    format      ascii;
    arch        "LSB;label=32;scalar=64";
    class       surfaceScalarField;
    location    "0.3";
    object      phi;
}
// * * * * * * * * * * * * * * * * * * * * * * * * * * * * * * * * * * * * * //

dimensions      [0 3 -1 0 0 0 0];

oriented        oriented;

internalField   nonuniform List<scalar> 
4432
(
-1.25345e-304
-6.73585e-305
-2.57709e-304
-3.18702e-304
-4.1381e-304
-4.57212e-304
-6.05225e-304
-5.16789e-304
-8.43587e-304
-4.661e-304
-1.13711e-303
-2.25944e-304
-1.48752e-303
3.41146e-304
-1.88269e-303
1.46022e-303
-2.2755e-303
3.4955e-303
-2.49327e-303
7.06921e-303
-1.73897e-303
1.33554e-302
4.01998e-303
2.47556e-302
5.4034e-303
4.69353e-302
-3.82267e-303
1.21687e-302
-3.13939e-303
6.08409e-304
-1.49027e-303
-1.0715e-303
-7.01017e-304
-8.44299e-304
-3.35257e-304
-4.6084e-304
-1.61571e-304
-2.02081e-304
-7.59221e-305
-6.48233e-305
-3.23479e-305
-4.04414e-306
-9.87556e-306
1.46527e-305
9.59154e-306
-3.94417e-304
-1.2337e-304
-8.03454e-304
-5.76187e-304
-1.27971e-303
-8.34419e-304
-1.86168e-303
-9.2877e-304
-2.58191e-303
-7.92525e-304
-3.46254e-303
-2.70263e-304
-4.50557e-303
9.07555e-304
-5.67149e-303
3.17399e-303
-6.82817e-303
7.22203e-303
-7.60763e-303
1.41879e-302
-6.79414e-303
2.60925e-302
-5.17701e-303
4.71229e-302
1.27066e-303
8.10132e-302
-6.88918e-303
1.83662e-302
-4.5933e-303
1.80373e-303
-2.42067e-303
-7.09357e-304
-1.24556e-303
-7.72708e-304
-6.38887e-304
-4.595e-304
-3.27095e-304
-2.03041e-304
-1.64053e-304
-5.52975e-305
-7.67156e-305
1.35542e-305
-2.75728e-305
3.53352e-305
2.51035e-305
-6.77252e-304
-1.87749e-304
-1.3854e-303
-8.25657e-304
-2.20775e-303
-1.19496e-303
-3.21044e-303
-1.3107e-303
-4.45045e-303
-1.06874e-303
-5.96924e-303
-2.37832e-304
-7.77887e-303
1.57562e-303
-9.83337e-303
4.99998e-303
-1.19698e-302
1.10217e-302
-1.37833e-302
2.12237e-302
-1.40762e-302
3.82887e-302
-1.72099e-302
6.72885e-302
-4.02606e-303
1.10334e-301
-9.36233e-303
2.30512e-302
-5.69317e-303
2.98511e-303
-3.14457e-303
-2.59221e-304
-1.70193e-303
-6.13955e-304
-9.13471e-304
-4.03888e-304
-4.8734e-304
-1.76038e-304
-2.55287e-304
-3.2835e-305
-1.26468e-304
3.73565e-305
-5.01314e-305
6.08408e-305
4.69873e-305
-9.91515e-304
-2.55968e-304
-2.03479e-303
-1.08102e-303
-3.2428e-303
-1.5576e-303
-4.71099e-303
-1.68314e-303
-6.52384e-303
-1.3134e-303
-8.74745e-303
-1.44063e-304
-1.14134e-302
2.33726e-303
-1.44879e-302
6.93592e-303
-1.78171e-302
1.49005e-302
-2.10359e-302
2.81854e-302
-2.30644e-302
4.99658e-302
-3.11524e-302
8.56537e-302
-1.03235e-302
1.35482e-301
-1.1981e-302
2.75501e-302
-6.88329e-303
4.18696e-303
-3.88702e-303
2.02562e-304
-2.17567e-303
-4.27804e-304
-1.20987e-303
-3.26014e-304
-6.6877e-304
-1.3578e-304
-3.6427e-304
-3.27718e-306
-1.8993e-304
6.55049e-305
-8.17162e-305
9.10748e-305
7.6884e-305
-1.35414e-303
-3.29461e-304
-2.78317e-303
-1.35552e-303
-4.43105e-303
-1.94166e-303
-6.42425e-303
-2.06785e-303
-8.8777e-303
-1.5489e-303
-1.18867e-302
-7.93151e-306
-1.55102e-302
3.17776e-303
-1.97408e-302
8.97532e-303
-2.44566e-302
1.88581e-302
-2.93555e-302
3.50858e-302
-3.34308e-302
6.11883e-302
-4.64517e-302
1.02711e-301
-1.74532e-302
1.58498e-301
-1.49265e-302
3.20589e-302
-8.26725e-303
5.3971e-303
-4.72511e-303
6.59683e-304
-2.71074e-303
-2.33946e-304
-1.55217e-303
-2.3865e-304
-8.85382e-304
-8.94149e-305
-4.9988e-304
2.90532e-305
-2.73349e-304
9.45788e-305
-1.26631e-304
1.22753e-304
1.13351e-304
-1.78214e-303
-4.11614e-304
-3.6633e-303
-1.66114e-303
-5.82063e-303
-2.36521e-303
-8.41348e-303
-2.48689e-303
-1.15896e-302
-1.79762e-303
-1.54771e-302
1.49832e-304
-2.01681e-302
4.08258e-303
-2.56911e-302
1.11107e-302
-3.19679e-302
2.2899e-302
-3.8761e-302
4.19447e-302
-4.50716e-302
7.20337e-302
-6.29669e-302
1.1886e-301
-2.54015e-302
1.8089e-301
-1.82641e-302
3.66358e-302
-9.88465e-303
6.62884e-303
-5.70116e-303
1.12066e-303
-3.3369e-303
-3.40264e-305
-1.95914e-303
-1.45908e-304
-1.14911e-303
-4.08799e-305
-6.70235e-304
6.03063e-305
-3.83246e-304
1.19809e-304
-1.91081e-304
1.48736e-304
1.45749e-304
-2.29326e-303
-5.08562e-304
-4.70973e-303
-2.00935e-303
-7.46258e-303
-2.84765e-303
-1.07452e-302
-2.96453e-303
-1.47403e-302
-2.08613e-303
-1.96112e-302
3.05131e-304
-2.54871e-302
5.03287e-303
-3.24378e-302
1.33343e-302
-4.04362e-302
2.703e-302
-4.93101e-302
4.87948e-302
-5.80462e-302
8.25871e-302
-8.08379e-302
1.34298e-301
-3.42798e-302
2.02927e-301
-2.20217e-302
4.11977e-302
-1.17656e-302
7.90681e-303
-6.85142e-303
1.60669e-303
-4.08278e-303
1.78699e-304
-2.45051e-303
-4.80767e-305
-1.47301e-303
6.95088e-306
-8.84046e-304
8.63846e-305
-5.26429e-304
1.35032e-304
-2.8455e-304
1.55927e-304
1.36598e-304
-2.90605e-303
-6.27044e-304
-5.95944e-303
-2.40565e-303
-9.41131e-303
-3.40166e-303
-1.34903e-302
-3.52155e-303
-1.8415e-302
-2.44271e-303
-2.43856e-302
4.2259e-304
-3.15703e-302
5.98623e-303
-4.00829e-302
1.55974e-302
-4.99521e-302
3.11976e-302
-6.10798e-302
5.55852e-302
-7.23617e-302
9.28012e-302
-1.0049e-301
1.48761e-301
-4.37914e-302
2.22243e-301
-2.61835e-302
4.55417e-302
-1.39166e-302
9.25035e-303
-8.19471e-303
2.14758e-303
-4.96657e-303
4.19329e-304
-3.03983e-303
6.09762e-305
-1.86582e-303
5.55802e-305
-1.14573e-303
1.06196e-304
-7.03758e-304
1.36936e-304
-4.19433e-304
1.37519e-304
8.75963e-305
-6.93887e-310
-4.33918e-309
-8.40245e-310
-2.87651e-308
-4.28892e-310
-2.09405e-308
-4.47577e-310
-8.41165e-309
-4.05291e-310
-2.21664e-309
-2.65757e-310
-2.70337e-310
-1.37995e-310
1.05899e-310
-6.07347e-311
9.76657e-311
-2.36214e-311
4.87062e-311
-8.33013e-312
1.95631e-311
-2.70638e-312
6.96533e-312
-8.17448e-313
2.29224e-312
-2.30331e-313
7.1347e-313
-6.03931e-314
2.1259e-313
-1.45811e-314
6.07022e-314
-3.16131e-315
1.63824e-314
-5.78944e-316
4.03125e-315
-7.42225e-317
8.21777e-316
7.64218e-317
-2.15272e-309
-1.77693e-308
-3.81497e-309
-7.85901e-308
-3.07215e-309
-5.0673e-308
-2.57942e-309
-1.93321e-308
-1.79679e-309
-4.88867e-309
-1.0262e-309
-4.82011e-310
-4.99875e-310
3.29962e-310
-2.14977e-310
2.74137e-310
-8.36318e-311
1.37112e-310
-2.99193e-311
5.62462e-311
-9.95027e-312
2.05669e-311
-3.09595e-312
6.96002e-312
-9.03257e-313
2.22606e-312
-2.46487e-313
6.80681e-313
-6.23221e-314
1.9944e-313
-1.42807e-314
5.54579e-314
-2.81213e-315
1.42462e-314
-4.00697e-316
3.14375e-315
3.59264e-316
-6.03287e-309
-6.213e-308
-1.1783e-308
-1.88719e-307
-1.01825e-308
-1.06868e-307
-7.78118e-309
-3.80263e-308
-4.87751e-309
-9.06914e-309
-2.59389e-309
-6.66132e-310
-1.21264e-309
7.7722e-310
-5.11363e-310
6.01583e-310
-1.97958e-310
3.0037e-310
-7.11946e-311
1.24873e-310
-2.39773e-311
4.65557e-311
-7.59735e-312
1.61122e-311
-2.26805e-312
5.27936e-312
-6.3628e-313
1.65611e-312
-1.66288e-313
4.98844e-313
-3.96795e-314
1.43251e-313
-8.23896e-315
3.84052e-314
-1.26713e-315
9.08074e-315
1.22088e-315
-1.84005e-308
-2.09153e-307
-3.39573e-308
-4.29854e-307
-2.88985e-308
-2.1312e-307
-2.02633e-308
-7.03662e-308
-1.17652e-308
-1.57688e-308
-5.93547e-309
-7.72543e-310
-2.68799e-309
1.61535e-309
-1.1155e-309
1.19129e-309
-4.29899e-310
5.94448e-310
-1.55224e-310
2.50012e-310
-5.2819e-311
9.48166e-311
-1.69949e-311
3.34856e-311
-5.17465e-312
1.12205e-311
-1.48702e-312
3.60629e-312
-4.00024e-313
1.11553e-312
-9.8887e-314
3.30313e-313
-2.14901e-314
9.2098e-314
-3.52351e-315
2.31241e-314
3.56569e-315
-5.94844e-308
-6.99228e-307
-9.32623e-308
-9.33037e-307
-7.54231e-308
-4.03416e-307
-4.86586e-308
-1.23755e-307
-2.65162e-308
-2.61808e-308
-1.28338e-308
-7.20993e-310
-5.67355e-309
3.06581e-309
-2.32812e-309
2.19397e-309
-8.95574e-310
1.09777e-309
-3.25038e-310
4.6733e-310
-1.11771e-310
1.80204e-310
-3.65007e-311
6.48835e-311
-1.13231e-311
2.22086e-311
-3.32774e-312
7.3033e-312
-9.19455e-313
2.31603e-312
-2.34783e-313
7.05432e-313
-5.31802e-314
2.03769e-313
-9.23779e-315
5.39441e-314
9.43161e-315
-2.01454e-307
-2.28783e-306
-2.47973e-307
-1.91496e-306
-1.84174e-307
-7.20889e-307
-1.09456e-307
-2.0678e-307
-5.64576e-308
-4.17245e-308
-2.64329e-308
-4.19193e-310
-1.14803e-308
5.41236e-309
-4.6793e-309
3.81259e-309
-1.80207e-309
1.92054e-309
-6.58597e-310
8.28826e-310
-2.29067e-310
3.25104e-310
-7.59382e-311
1.1932e-310
-2.39911e-311
4.16907e-311
-7.20379e-312
1.40108e-311
-2.04122e-312
4.54637e-312
-5.37248e-313
1.42023e-312
-1.26468e-313
4.22922e-313
-2.31971e-314
1.16831e-313
2.26929e-314
-7.12711e-307
-7.55813e-306
-6.48443e-307
-3.61221e-306
-4.26877e-307
-1.1992e-306
-2.33523e-307
-3.27231e-307
-1.14823e-307
-6.43416e-308
-5.23851e-308
-5.99795e-311
-2.24873e-308
8.85598e-309
-9.14573e-309
6.24313e-309
-3.538e-309
3.18317e-309
-1.30517e-309
1.39581e-309
-4.59925e-310
5.57374e-310
-1.54946e-310
2.08473e-310
-4.98825e-311
7.42698e-311
-1.53046e-311
2.54532e-311
-4.44517e-312
8.42376e-312
-1.20447e-312
2.68574e-312
-2.93946e-313
8.18026e-313
-5.66852e-314
2.32172e-313
4.84053e-314
-2.46249e-306
-1.54039e-305
-1.62931e-306
-5.72675e-306
-9.1875e-307
-1.78972e-306
-4.65988e-307
-4.77799e-307
-2.20547e-307
-9.27676e-308
-9.88069e-308
7.3061e-310
-4.21532e-308
1.36154e-308
-1.71711e-308
9.62777e-309
-6.68887e-309
4.9687e-309
-2.4944e-309
2.21134e-309
-8.912e-310
8.97164e-310
-3.05136e-310
3.41001e-310
-1.00042e-310
1.23401e-310
-3.13221e-311
4.29213e-311
-9.30503e-312
1.44008e-311
-2.58732e-312
4.64996e-312
-6.51706e-313
1.43285e-312
-1.31798e-313
4.09955e-313
8.63491e-314
-8.53132e-303
-9.32242e-304
-1.74583e-302
-3.3522e-303
-2.74433e-302
-4.7664e-303
-3.90928e-302
-4.9848e-303
-5.29954e-302
-3.57719e-303
-6.97026e-302
1.7419e-304
-8.97052e-302
7.33819e-303
-1.13398e-301
1.94314e-302
-1.41039e-301
3.85535e-302
-1.72691e-301
6.75821e-302
-2.03561e-301
1.1046e-301
-2.87101e-301
1.72479e-301
-1.24628e-301
2.49971e-301
-7.05162e-302
5.29224e-302
-3.73354e-302
1.18849e-302
-2.23304e-302
3.31242e-303
-1.38221e-302
9.70357e-304
-8.65536e-303
3.18369e-304
-5.43443e-303
1.64764e-304
-3.40811e-303
1.37257e-304
-2.13065e-303
1.19406e-304
-1.31572e-303
7.83737e-305
4.75923e-306
-6.81823e-304
-1.18499e-302
-1.319e-303
-2.42097e-302
-4.51395e-303
-3.79299e-302
-6.52011e-303
-5.37943e-302
-7.048e-303
-7.25754e-302
-5.56915e-303
-9.50149e-302
-1.26163e-303
-1.21805e-301
7.05029e-303
-1.53568e-301
2.0973e-302
-1.90826e-301
4.2642e-302
-2.33982e-301
7.48383e-302
-2.77059e-301
1.21142e-301
-3.88496e-301
1.85895e-301
-1.76231e-301
2.63617e-301
-9.17681e-302
5.74463e-302
-4.79191e-302
1.37897e-302
-2.87733e-302
4.24733e-303
-1.79938e-302
1.45429e-303
-1.1407e-302
5.60138e-304
-7.24345e-303
2.70082e-304
-4.57203e-303
1.64827e-304
-2.84084e-303
1.02966e-304
-1.69473e-303
4.19134e-305
-2.28553e-305
-8.79863e-304
-1.52541e-302
-1.8543e-303
-3.11008e-302
-6.12689e-303
-4.86073e-302
-9.03819e-303
-6.87457e-302
-1.02063e-302
-9.2481e-302
-9.01515e-303
-1.2075e-301
-4.55798e-303
-1.54446e-301
4.41236e-303
-1.94397e-301
1.95418e-302
-2.41347e-301
4.29332e-302
-2.95927e-301
7.71933e-302
-3.51233e-301
1.25473e-301
-4.88649e-301
1.91229e-301
-2.28344e-301
2.67807e-301
-1.1385e-301
5.96827e-302
-5.87569e-302
1.49098e-302
-3.51639e-302
4.85054e-303
-2.20123e-302
1.79699e-303
-1.39916e-302
7.47969e-304
-8.90383e-303
3.61825e-304
-5.61562e-303
1.98798e-304
-3.46475e-303
1.06349e-304
-2.03339e-303
3.67648e-305
-1.62979e-305
-1.04834e-303
-1.87733e-302
-2.62677e-303
-3.8169e-302
-8.46424e-303
-5.95043e-302
-1.27598e-302
-8.3947e-302
-1.50421e-302
-1.1266e-301
-1.46118e-302
-1.46774e-301
-1.04893e-302
-1.8737e-301
-1.37306e-303
-2.35457e-301
1.43994e-302
-2.91948e-301
3.88787e-302
-3.57628e-301
7.44991e-302
-4.24531e-301
1.24048e-301
-5.87011e-301
1.90328e-301
-2.79776e-301
2.66023e-301
-1.36616e-301
6.03461e-302
-6.99758e-302
1.53987e-302
-4.16761e-302
5.14831e-303
-2.60265e-302
1.99082e-303
-1.65221e-302
8.70792e-304
-1.05001e-302
4.3412e-304
-6.60588e-303
2.38015e-304
-4.05727e-303
1.27961e-304
-2.36683e-303
5.38994e-305
5.08171e-306
-1.22013e-303
-2.24408e-302
-3.74497e-303
-4.54639e-302
-1.18518e-302
-7.06754e-302
-1.82114e-302
-9.94466e-302
-2.22568e-302
-1.33144e-301
-2.32027e-302
-1.73092e-301
-1.99967e-302
-2.20551e-301
-1.12858e-302
-2.76692e-301
4.61221e-303
-3.42567e-301
2.97135e-302
-4.1907e-301
6.6333e-302
-4.97134e-301
1.17019e-301
-6.84137e-301
1.84171e-301
-3.30857e-301
2.60117e-301
-1.60003e-301
5.98427e-302
-8.15984e-302
1.53613e-302
-4.83833e-302
5.16801e-303
-3.01179e-302
2.03548e-303
-1.90702e-302
9.19655e-304
-1.20902e-302
4.76861e-304
-7.58624e-303
2.72771e-304
-4.64622e-303
1.57351e-304
-2.70458e-303
8.14205e-305
3.17107e-305
-1.39668e-303
-2.62976e-302
-5.34297e-303
-5.30507e-302
-1.66886e-302
-8.22038e-302
-2.60386e-302
-1.15344e-301
-3.27137e-302
-1.54054e-301
-3.58293e-302
-1.99857e-301
-3.42522e-302
-2.54192e-301
-2.65662e-302
-3.18383e-301
-1.10497e-302
-3.93609e-301
1.4323e-302
-4.80866e-301
5.18299e-302
-5.69973e-301
1.03923e-301
-7.81383e-301
1.72822e-301
-3.82434e-301
2.50674e-301
-1.84069e-301
5.8244e-302
-9.3635e-302
1.47924e-302
-5.53163e-302
4.89393e-303
-3.43269e-302
1.91307e-303
-2.16762e-302
8.77033e-304
-1.37079e-302
4.74104e-304
-8.58142e-303
2.88799e-304
-5.24569e-303
1.81718e-304
-3.05086e-303
1.08678e-304
5.74363e-305
-1.578e-303
-3.0388e-302
-7.5883e-303
-6.09993e-302
-2.34687e-302
-9.41849e-302
-3.70411e-302
-1.31769e-301
-4.7482e-302
-1.75568e-301
-5.37865e-302
-2.27322e-301
-5.47224e-302
-2.88656e-301
-4.87945e-302
-3.61052e-301
-3.42096e-302
-4.45815e-301
-8.87614e-303
-5.44043e-301
2.95466e-302
-6.44447e-301
8.3564e-302
-8.80586e-301
1.55417e-301
-4.35679e-301
2.3718e-301
-2.08987e-301
5.52952e-302
-1.0612e-301
1.3556e-302
-6.2496e-302
4.24701e-303
-3.86749e-302
1.57375e-303
-2.43611e-302
7.09124e-304
-1.53713e-302
4.0151e-304
-9.60413e-303
2.67825e-304
-5.86259e-303
1.87242e-304
-3.40791e-303
1.25967e-304
7.70296e-305
-1.76455e-303
-3.47476e-302
-1.06913e-302
-6.93601e-302
-3.28073e-302
-1.06689e-301
-5.22111e-302
-1.48827e-301
-6.78877e-302
-1.97862e-301
-7.86775e-302
-2.55772e-301
-8.32331e-302
-3.2439e-301
-7.99613e-302
-4.05361e-301
-6.69687e-302
-5.00126e-301
-4.20336e-302
-6.09891e-301
-2.64712e-303
-7.22262e-301
5.39107e-302
-9.83921e-301
1.30105e-301
-4.92014e-301
2.18044e-301
-2.35024e-301
5.03983e-302
-1.19115e-301
1.13677e-302
-6.99426e-302
3.07165e-303
-4.31726e-302
9.26853e-304
-2.7133e-302
3.60697e-304
-1.70867e-302
2.24122e-304
-1.06587e-302
1.87012e-304
-6.49902e-303
1.58888e-304
-3.77626e-303
1.23898e-304
8.55876e-305
-1.95643e-303
-3.93822e-302
-1.49178e-302
-7.81208e-302
-4.54719e-302
-1.19697e-301
-7.27823e-302
-1.66525e-301
-9.55668e-302
-2.21012e-301
-1.12473e-301
-2.85415e-301
-1.22024e-301
-3.61795e-301
-1.22527e-301
-4.51982e-301
-1.11967e-301
-5.57555e-301
-8.79394e-302
-6.79833e-301
-4.76542e-302
-8.0532e-301
1.19952e-302
-1.09382e-300
9.39374e-302
-5.53059e-301
1.90463e-301
-2.62517e-301
4.25494e-302
-1.32697e-301
7.76639e-303
-7.76739e-302
1.1213e-303
-4.78216e-302
-1.66792e-304
-2.99904e-302
-2.4867e-304
-1.88524e-302
-1.05275e-304
-1.17435e-302
1.82989e-305
-7.15335e-303
7.99978e-305
-4.15459e-303
9.29687e-305
7.83675e-305
-2.15297e-303
-4.42365e-302
-2.06072e-302
-8.71415e-302
-6.24288e-302
-1.3301e-301
-1.0029e-301
-1.84654e-301
-1.32534e-301
-2.44868e-301
-1.5757e-301
-3.16235e-301
-1.73799e-301
-4.01078e-301
-1.79455e-301
-5.01428e-301
-1.72418e-301
-6.19013e-301
-1.50061e-301
-7.55266e-301
-1.09211e-301
-8.95587e-301
-4.61821e-302
-1.21288e-300
4.2702e-302
-6.20573e-301
1.50158e-301
-2.91841e-301
3.02278e-302
-1.46943e-301
2.0729e-303
-8.56967e-302
-1.95754e-303
-5.26123e-302
-1.90053e-303
-3.29219e-302
-1.22616e-303
-2.0659e-302
-6.46293e-304
-1.28516e-302
-2.71472e-304
-7.82092e-303
-6.77333e-305
-4.53994e-303
2.34136e-305
5.07059e-305
-2.35267e-303
-4.91445e-302
-2.82016e-302
-9.60599e-302
-8.49092e-302
-1.46117e-301
-1.36659e-301
-2.02631e-301
-1.81263e-301
-2.68872e-301
-2.16853e-301
-3.47805e-301
-2.41759e-301
-4.42046e-301
-2.5423e-301
-5.53843e-301
-2.52103e-301
-6.85084e-301
-2.3254e-301
-8.37323e-301
-1.91894e-301
-9.94857e-301
-1.25718e-301
-1.34363e-300
-2.92442e-302
-6.9631e-301
9.10214e-302
-3.23345e-301
1.12503e-302
-1.6189e-301
-6.65305e-303
-9.39917e-302
-6.63497e-303
-5.75179e-302
-4.52038e-303
-3.59051e-302
-2.70177e-303
-2.24903e-302
-1.46757e-303
-1.39718e-302
-7.18473e-304
-8.49433e-303
-3.03253e-304
-4.92777e-303
-9.44451e-305
-1.92346e-306
-2.55315e-303
-5.37583e-302
-3.8296e-302
-1.04146e-301
-1.14522e-301
-1.57998e-301
-1.84338e-301
-2.1928e-301
-2.44805e-301
-2.91831e-301
-2.93768e-301
-3.79043e-301
-3.29625e-301
-4.83844e-301
-3.50825e-301
-6.08712e-301
-3.55315e-301
-7.55712e-301
-3.4011e-301
-9.2653e-301
-3.0106e-301
-1.10438e-300
-2.32781e-301
-1.48812e-300
-1.29081e-301
-7.81727e-301
4.78252e-303
-3.5724e-301
-1.7369e-302
-1.77493e-301
-1.96302e-302
-1.02493e-301
-1.34816e-302
-6.24869e-302
-8.30477e-303
-3.89045e-302
-4.81254e-303
-2.43226e-302
-2.63685e-303
-1.50885e-302
-1.35644e-303
-9.16333e-303
-6.43505e-304
-5.31177e-303
-2.69089e-304
-8.35499e-305
-2.75104e-303
-5.74255e-302
-5.17396e-302
-1.10077e-301
-1.53439e-301
-1.66855e-301
-2.46502e-301
-2.3255e-301
-3.2694e-301
-3.1164e-301
-3.92398e-301
-4.0794e-301
-4.41635e-301
-5.24668e-301
-4.73639e-301
-6.64532e-301
-4.86736e-301
-8.29795e-301
-4.77955e-301
-1.02232e-300
-4.42662e-301
-1.22428e-300
-3.74455e-301
-1.64732e-300
-2.65437e-301
-8.77521e-301
-1.19136e-301
-3.93431e-301
-5.94596e-302
-1.93561e-301
-3.82844e-302
-1.11068e-301
-2.30902e-302
-6.74367e-302
-1.3507e-302
-4.1869e-302
-7.66728e-303
-2.6123e-302
-4.20151e-303
-1.618e-302
-2.20682e-303
-9.81369e-303
-1.09881e-303
-5.683e-303
-5.05787e-304
-1.96925e-304
-2.94138e-303
-5.89747e-302
-6.98453e-302
-1.1156e-301
-2.04739e-301
-1.69699e-301
-3.27378e-301
-2.3915e-301
-4.32394e-301
-3.24979e-301
-5.17537e-301
-4.31285e-301
-5.82503e-301
-5.61479e-301
-6.2737e-301
-7.18466e-301
-6.51261e-301
-9.04753e-301
-6.51454e-301
-1.12246e-300
-6.2295e-301
-1.35285e-300
-5.58352e-301
-1.82011e-300
-4.48001e-301
-9.82945e-301
-2.93324e-301
-4.31284e-301
-1.19448e-301
-2.09691e-301
-6.39636e-302
-1.195e-301
-3.58749e-302
-7.2248e-302
-2.0238e-302
-4.47272e-302
-1.12852e-302
-2.78452e-302
-6.15883e-303
-1.72148e-302
-3.26503e-303
-1.04242e-302
-1.66666e-303
-6.0279e-303
-8.03834e-304
-3.42331e-304
-3.11656e-303
-5.6258e-302
-9.48647e-302
-1.04632e-301
-2.73001e-301
-1.61707e-301
-4.32729e-301
-2.34092e-301
-5.67083e-301
-3.2702e-301
-6.74727e-301
-4.44474e-301
-7.57305e-301
-5.89811e-301
-8.16819e-301
-7.66091e-301
-8.53732e-301
-9.76148e-301
-8.65876e-301
-1.22252e-300
-8.48042e-301
-1.48574e-300
-7.9201e-301
-2.00237e-300
-6.86661e-301
-1.09501e-300
-5.31396e-301
-4.69321e-301
-2.01408e-301
-2.25209e-301
-9.72132e-302
-1.27474e-301
-5.16746e-302
-7.67506e-302
-2.82768e-302
-4.73722e-302
-1.55128e-302
-2.94158e-302
-8.42123e-303
-1.81418e-302
-4.48595e-303
-1.09601e-302
-2.3254e-303
-6.32464e-303
-1.15356e-303
-5.16079e-304
-3.26442e-303
-4.50557e-302
-1.30999e-301
-8.22796e-302
-3.65358e-301
-1.35224e-301
-5.70499e-301
-2.10182e-301
-7.38303e-301
-3.11286e-301
-8.70143e-301
-4.41512e-301
-9.71238e-301
-6.03797e-301
-1.0466e-300
-8.01343e-301
-1.09865e-300
-1.0375e-300
-1.12602e-300
-1.31548e-300
-1.12344e-300
-1.61537e-300
-1.08208e-300
-2.18593e-300
-9.90159e-301
-1.20754e-300
-8.46041e-301
-5.0473e-301
-3.06328e-301
-2.39076e-301
-1.36238e-301
-1.34518e-301
-6.91166e-302
-8.06648e-302
-3.6841e-302
-4.96134e-302
-1.99477e-302
-3.0702e-302
-1.07912e-302
-1.88709e-302
-5.77472e-303
-1.13637e-302
-3.02988e-303
-6.53837e-303
-1.53378e-303
-7.08899e-304
-3.36629e-303
-1.59974e-302
-1.86248e-301
-3.15608e-302
-4.92993e-301
-7.82294e-302
-7.51322e-301
-1.5765e-301
-9.54537e-301
-2.69876e-301
-1.11016e-300
-4.15448e-301
-1.22917e-300
-5.96554e-301
-1.32078e-300
-8.168e-301
-1.38983e-300
-1.08049e-300
-1.43591e-300
-1.39186e-300
-1.45357e-300
-1.73079e-300
-1.43346e-300
-2.35833e-300
-1.36426e-300
-1.31003e-300
-1.24583e-300
-5.32181e-301
-4.24561e-301
-2.49621e-301
-1.74241e-301
-1.39768e-301
-8.49185e-302
-8.34266e-302
-4.44585e-302
-5.10713e-302
-2.39332e-302
-3.14575e-302
-1.29687e-302
-1.92496e-302
-6.98956e-303
-1.15444e-302
-3.71103e-303
-6.61825e-303
-1.91031e-303
-9.04563e-304
-3.39632e-303
5.52406e-302
-2.46677e-301
7.23855e-302
-6.4632e-301
2.75865e-302
-9.62041e-301
-6.44752e-302
-1.19825e-300
-1.94552e-301
-1.37412e-300
-3.59423e-301
-1.50862e-300
-5.60983e-301
-1.61596e-300
-8.04291e-301
-1.70369e-300
-1.09558e-300
-1.77219e-300
-1.44056e-300
-1.81535e-300
-1.81869e-300
-1.82258e-300
-2.50372e-300
-1.77881e-300
-1.38619e-300
-1.72923e-300
-5.41089e-301
-5.06342e-301
-2.53762e-301
-1.94735e-301
-1.41314e-301
-9.38179e-302
-8.3831e-302
-4.92455e-302
-5.10309e-302
-2.6702e-302
-3.12771e-302
-1.46055e-302
-1.90552e-302
-7.95939e-303
-1.13829e-302
-4.2806e-303
-6.50276e-303
-2.23692e-303
-1.07975e-303
-3.32535e-303
2.39917e-301
-6.1142e-301
2.76457e-301
-1.12945e-300
2.06055e-301
-1.49903e-300
7.98923e-302
-1.76265e-300
-8.02286e-302
-1.95443e-300
-2.69099e-301
-2.10201e-300
-4.91141e-301
-2.22471e-300
-7.55585e-301
-2.33263e-300
-1.07267e-300
-2.4267e-300
-1.45044e-300
-2.49967e-300
-1.86172e-300
-2.53894e-300
-2.60818e-300
-2.53522e-300
-1.42004e-300
-1.44466e-300
-5.15433e-301
-4.42515e-301
-2.42482e-301
-1.83699e-301
-1.34422e-301
-9.26029e-302
-7.96261e-302
-5.00209e-302
-4.84343e-302
-2.76841e-302
-2.96637e-302
-1.53959e-302
-1.80529e-302
-8.51472e-303
-1.07686e-302
-4.64393e-303
-6.1405e-303
-2.46135e-303
-1.20702e-303
-3.13125e-303
7.13061e-301
-6.24832e-302
6.22533e-301
-4.64782e-301
4.5835e-301
-7.17185e-301
2.65876e-301
-8.91858e-301
6.34301e-302
-1.01746e-300
-1.50351e-301
-1.11366e-300
-3.88075e-301
-1.19386e-300
-6.6742e-301
-1.26491e-300
-1.00611e-300
-1.32698e-300
-1.41666e-300
-1.37343e-300
-1.89903e-300
-1.39129e-300
-1.54727e-300
-1.37222e-300
-6.86489e-301
-6.63138e-301
-3.36733e-301
-2.97704e-301
-1.88645e-301
-1.51648e-301
-1.12118e-301
-8.30138e-302
-6.87207e-302
-4.68572e-302
-4.25975e-302
-2.66888e-302
-2.63798e-302
-1.51654e-302
-1.61594e-302
-8.53574e-303
-9.67376e-303
-4.72654e-303
-5.52395e-303
-2.53986e-303
-1.26242e-303
-2.81333e-303
2.32805e-301
-2.34129e-301
1.5917e-301
-3.71708e-301
1.06002e-301
-4.3397e-301
5.0986e-302
-4.78315e-301
-7.08775e-303
-5.10705e-301
-7.14147e-302
-5.34616e-301
-1.46714e-301
-5.52727e-301
-2.37991e-301
-5.66267e-301
-3.47275e-301
-5.74465e-301
-4.65362e-301
-5.73759e-301
-5.4163e-301
-5.5614e-301
-4.64337e-301
-5.12388e-301
-3.06212e-301
-3.32337e-301
-2.00165e-301
-1.97387e-301
-1.29923e-301
-1.16153e-301
-8.40718e-302
-6.87497e-302
-5.41932e-302
-4.07064e-302
-3.46715e-302
-2.39628e-302
-2.1914e-302
-1.39573e-302
-1.36031e-302
-8.011e-303
-8.21237e-303
-4.50802e-303
-4.71143e-303
-2.45569e-303
-1.23501e-303
-2.40036e-303
6.21771e-303
-1.17845e-301
4.99061e-303
-1.91284e-301
5.61934e-304
-2.22455e-301
-9.91873e-303
-2.43327e-301
-2.57598e-302
-2.57646e-301
-4.71204e-302
-2.67135e-301
-7.47395e-302
-2.73023e-301
-1.08962e-301
-2.76003e-301
-1.48003e-301
-2.76179e-301
-1.8514e-301
-2.73013e-301
-2.0391e-301
-2.64947e-301
-1.90089e-301
-2.45313e-301
-1.55063e-301
-1.88565e-301
-1.17622e-301
-1.2932e-301
-8.46949e-302
-8.42198e-302
-5.88721e-302
-5.33242e-302
-3.9873e-302
-3.30806e-302
-2.64048e-302
-2.01475e-302
-1.70967e-302
-1.20425e-302
-1.07927e-302
-7.05409e-303
-6.59061e-303
-4.0352e-303
-3.80711e-303
-2.22753e-303
-1.13175e-303
-1.94213e-303
-2.48429e-302
-5.30099e-302
-2.12961e-302
-1.01591e-301
-1.90602e-302
-1.24971e-301
-1.99157e-302
-1.39245e-301
-2.42771e-302
-1.48203e-301
-3.21956e-302
-1.53566e-301
-4.37015e-302
-1.56386e-301
-5.84052e-302
-1.5732e-301
-7.48167e-302
-1.56684e-301
-8.96084e-302
-1.54358e-301
-9.74986e-302
-1.49281e-301
-9.52045e-302
-1.37703e-301
-8.45561e-302
-1.13134e-301
-6.94988e-302
-8.42599e-302
-5.36061e-302
-5.8842e-302
-3.93764e-302
-3.93269e-302
-2.78303e-302
-2.54267e-302
-1.90331e-302
-1.59862e-302
-1.26233e-302
-9.79591e-303
-8.11077e-303
-5.8527e-303
-5.01539e-303
-3.40143e-303
-2.91992e-303
-1.90126e-303
-9.74292e-304
-1.49162e-303
-2.00449e-302
-2.43978e-302
-1.9877e-302
-5.42981e-302
-1.85652e-302
-7.13325e-302
-1.79421e-302
-8.20098e-302
-1.89524e-302
-8.86154e-302
-2.18924e-302
-9.24418e-302
-2.67977e-302
-9.43456e-302
-3.33581e-302
-9.48945e-302
-4.07167e-302
-9.4393e-302
-4.73464e-302
-9.2787e-302
-5.13206e-302
-8.93729e-302
-5.14086e-302
-8.23692e-302
-4.76742e-302
-6.98761e-302
-4.11104e-302
-5.46152e-302
-3.32353e-302
-4.00106e-302
-2.54548e-302
-2.78769e-302
-1.86287e-302
-1.8653e-302
-1.3102e-302
-1.20582e-302
-8.88256e-303
-7.55681e-303
-5.80393e-303
-4.59758e-303
-3.63342e-303
-2.71122e-303
-2.13185e-303
-1.53261e-303
-7.90746e-304
-1.08993e-303
-1.26124e-302
-1.16042e-302
-1.38215e-302
-2.90769e-302
-1.36576e-302
-4.06245e-302
-1.32728e-302
-4.83971e-302
-1.34421e-302
-5.33949e-302
-1.45084e-302
-5.63678e-302
-1.65756e-302
-5.7901e-302
-1.95069e-302
-5.8416e-302
-2.28846e-302
-5.8147e-302
-2.60236e-302
-5.70704e-302
-2.81242e-302
-5.47842e-302
-2.85854e-302
-5.04851e-302
-2.71991e-302
-4.35868e-302
-2.42072e-302
-3.51026e-302
-2.02352e-302
-2.65817e-302
-1.5996e-302
-1.91085e-302
-1.20373e-302
-1.31419e-302
-8.6672e-303
-8.69581e-303
-5.98927e-303
-5.55623e-303
-3.97282e-303
-3.4347e-303
-2.51536e-303
-2.05169e-303
-1.48634e-303
-1.17115e-303
-6.07266e-304
-7.5976e-304
-7.26033e-303
-5.6475e-303
-8.5609e-303
-1.55485e-302
-8.89188e-303
-2.29416e-302
-8.84483e-303
-2.83234e-302
-8.88775e-303
-3.19892e-302
-9.28143e-303
-3.42837e-302
-1.01427e-302
-3.5546e-302
-1.14434e-302
-3.60492e-302
-1.30061e-302
-3.59537e-302
-1.45278e-302
-3.52579e-302
-1.56459e-302
-3.37599e-302
-1.6039e-302
-3.11136e-302
-1.55205e-302
-2.71422e-302
-1.41223e-302
-2.22823e-302
-1.20971e-302
-1.72664e-302
-9.79632e-303
-1.27038e-302
-7.53683e-303
-8.92676e-303
-5.53216e-303
-6.01949e-303
-3.88495e-303
-3.90887e-303
-2.61071e-303
-2.44924e-303
-1.66939e-303
-1.47918e-303
-9.92451e-304
-8.51229e-304
-4.42778e-304
-5.06569e-304
-3.96725e-303
-2.78009e-303
-4.94981e-303
-8.27121e-303
-5.36307e-303
-1.2804e-302
-5.48048e-303
-1.63548e-302
-5.54239e-303
-1.89233e-302
-5.70918e-303
-2.06226e-302
-6.07343e-303
-2.16195e-302
-6.65106e-303
-2.20704e-302
-7.37873e-303
-2.20756e-302
-8.12525e-303
-2.1645e-302
-8.71834e-303
-2.06888e-302
-8.98329e-303
-1.90671e-302
-8.79426e-303
-1.67384e-302
-8.13097e-303
-1.39142e-302
-7.09316e-303
-1.09566e-302
-5.8517e-303
-8.20047e-303
-4.58138e-303
-5.85833e-303
-3.41561e-303
-4.0102e-303
-2.43076e-303
-2.63859e-303
-1.65143e-303
-1.67187e-303
-1.06488e-303
-1.01891e-303
-6.36182e-304
-5.90183e-304
-3.07432e-304
-3.23827e-304
-2.08275e-303
-1.37233e-303
-2.71821e-303
-4.36031e-303
-3.05263e-303
-7.04278e-303
-3.20347e-303
-9.28652e-303
-3.28121e-303
-1.10037e-302
-3.37177e-303
-1.22009e-302
-3.53566e-303
-1.29439e-302
-3.79752e-303
-1.33121e-302
-4.1409e-303
-1.33626e-302
-4.51093e-303
-1.31082e-302
-4.82431e-303
-1.25147e-302
-4.98691e-303
-1.15321e-302
-4.92237e-303
-1.01624e-302
-4.6052e-303
-8.51723e-303
-4.07331e-303
-6.78219e-303
-3.40897e-303
-5.14003e-303
-2.70595e-303
-3.71829e-303
-2.04277e-303
-2.57534e-303
-1.4696e-303
-1.71236e-303
-1.00745e-303
-1.09481e-303
-6.54134e-304
-6.72128e-304
-3.92267e-304
-3.9126e-304
-2.03781e-304
-1.98867e-304
-1.05564e-303
-6.74823e-304
-1.42868e-303
-2.26959e-303
-1.65427e-303
-3.80793e-303
-1.77983e-303
-5.17121e-303
-1.85164e-303
-6.26899e-303
-1.91114e-303
-7.07129e-303
-1.99305e-303
-7.59385e-303
-2.11727e-303
-7.87101e-303
-2.28332e-303
-7.93255e-303
-2.46918e-303
-7.78928e-303
-2.63456e-303
-7.43177e-303
-2.72964e-303
-6.84659e-303
-2.71078e-303
-6.04694e-303
-2.55879e-303
-5.0951e-303
-2.28731e-303
-4.08868e-303
-1.93569e-303
-3.12687e-303
-1.55325e-303
-2.28332e-303
-1.18431e-303
-1.5958e-303
-8.59474e-304
-1.06981e-303
-5.93496e-304
-6.88878e-304
-3.87503e-304
-4.25348e-304
-2.33002e-304
-2.485e-304
-1.29225e-304
-1.17511e-304
-5.17818e-304
-3.28763e-304
-7.21548e-304
-1.16255e-303
-8.57576e-304
-2.01892e-303
-9.44051e-304
-2.81742e-303
-9.9872e-304
-3.49018e-303
-1.03978e-303
-4.00276e-303
-1.08527e-303
-4.35063e-303
-1.14796e-303
-4.54523e-303
-1.23101e-303
-4.60041e-303
-1.3259e-303
-4.52368e-303
-1.41327e-303
-4.31491e-303
-1.46728e-303
-3.97399e-303
-1.46409e-303
-3.5142e-303
-1.39149e-303
-2.97113e-303
-1.25404e-303
-2.39688e-303
-1.0705e-303
-1.84495e-303
-8.6634e-304
-1.35662e-303
-6.65777e-304
-9.54641e-304
-4.86526e-304
-6.4404e-304
-3.37913e-304
-4.16997e-304
-2.21594e-304
-2.58595e-304
-1.33473e-304
-1.51441e-304
-7.85328e-305
-6.68942e-305
-2.46207e-304
-1.57948e-304
-3.51036e-304
-5.84281e-304
-4.26535e-304
-1.04728e-303
-4.79433e-304
-1.49883e-303
-5.15913e-304
-1.89483e-303
-5.43282e-304
-2.2078e-303
-5.70155e-304
-2.42784e-303
-6.03666e-304
-2.55637e-303
-6.46636e-304
-2.59889e-303
-6.95854e-304
-2.55993e-303
-7.42061e-304
-2.44191e-303
-7.7214e-304
-2.24832e-303
-7.73507e-304
-1.98938e-303
-7.39128e-304
-1.68547e-303
-6.70361e-304
-1.36453e-303
-5.76122e-304
-1.05512e-303
-4.69354e-304
-7.79777e-304
-3.62926e-304
-5.51519e-304
-2.66657e-304
-3.73849e-304
-1.86041e-304
-2.43056e-304
-1.22406e-304
-1.51204e-304
-7.37952e-305
-8.86694e-305
-4.58041e-305
-3.67187e-305
-1.13621e-304
-7.45388e-305
-1.6483e-304
-2.8739e-304
-2.03993e-304
-5.30464e-304
-2.33635e-304
-7.77195e-304
-2.55688e-304
-1.00141e-303
-2.72825e-304
-1.18443e-303
-2.8886e-304
-1.31712e-303
-3.07393e-304
-1.39749e-303
-3.30176e-304
-1.42712e-303
-3.5597e-304
-1.40846e-303
-3.8036e-304
-1.34394e-303
-3.96816e-304
-1.23709e-303
-3.98912e-304
-1.09483e-303
-3.82847e-304
-9.28698e-304
-3.4896e-304
-7.53581e-304
-3.01481e-304
-5.84529e-304
-2.46878e-304
-4.33547e-304
-1.91808e-304
-3.07772e-304
-1.41518e-304
-2.0935e-304