/*--------------------------------*- C++ -*----------------------------------*\
| =========                 |                                                 |
| \\      /  F ield         | OpenFOAM: The Open Source CFD Toolbox           |
|  \\    /   O peration     | Version:  2406                                  |
|   \\  /    A nd           | Website:  www.openfoam.com                      |
|    \\/     M anipulation  |                                                 |
\*---------------------------------------------------------------------------*/
FoamFile
{
    version     2.0;
    format      ascii;
    arch        "LSB;label=32;scalar=64";
    class       volVectorField;
    location    "0.3";
    object      U;
}
// * * * * * * * * * * * * * * * * * * * * * * * * * * * * * * * * * * * * * //

dimensions      [0 1 -1 0 0 0 0];

internalField   nonuniform List<vector> 
2268
(
(-7.28555e-301 -2.29907e-301 0)
(-2.13327e-300 -1.00539e-300 0)
(-3.75061e-300 -1.41452e-300 0)
(-5.69731e-300 -1.6249e-300 0)
(-8.12091e-300 -1.55517e-300 0)
(-1.11395e-299 -9.90644e-301 0)
(-1.48224e-299 4.52925e-301 0)
(-1.914e-299 3.40013e-300 0)
(-2.38447e-299 8.89922e-300 0)
(-2.81086e-299 1.88117e-299 0)
(-2.88167e-299 3.69776e-299 0)
(-1.15869e-299 7.00388e-299 0)
(1.24986e-298 1.55563e-298 0)
(-3.87807e-299 4.52882e-299 0)
(-4.84969e-299 -2.70655e-302 0)
(-2.31802e-299 -6.55883e-300 0)
(-1.08449e-299 -4.57182e-300 0)
(-5.16041e-300 -2.3863e-300 0)
(-2.49402e-300 -1.03658e-300 0)
(-1.19489e-300 -3.53401e-301 0)
(-5.3853e-301 -6.03794e-302 0)
(-2.00023e-301 2.86412e-302 0)
(-2.54516e-302 1.67328e-302 0)
(-2.30158e-300 -4.96892e-301 0)
(-6.70358e-300 -2.43341e-300 0)
(-1.16405e-299 -3.5188e-300 0)
(-1.75771e-299 -3.95127e-300 0)
(-2.49278e-299 -3.47406e-300 0)
(-3.40212e-299 -1.4473e-300 0)
(-4.5034e-299 3.22804e-300 0)
(-5.78352e-299 1.23556e-299 0)
(-7.16537e-299 2.88173e-299 0)
(-8.42439e-299 5.74652e-299 0)
(-8.945e-299 1.07128e-298 0)
(-6.86717e-299 1.97074e-298 0)
(1.62229e-299 3.5087e-298 0)
(-8.8885e-299 8.60121e-299 0)
(-6.84056e-299 6.59181e-300 0)
(-3.64666e-299 -5.00267e-300 0)
(-1.88011e-299 -4.53818e-300 0)
(-9.63698e-300 -2.58617e-300 0)
(-4.9498e-300 -1.14388e-300 0)
(-2.51829e-300 -3.46043e-301 0)
(-1.2273e-300 1.6743e-302 0)
(-5.24232e-301 1.29462e-301 0)
(-1.05297e-301 8.67601e-302 0)
(-3.91563e-300 -8.34276e-301 0)
(-1.15471e-299 -3.78366e-300 0)
(-2.00836e-299 -5.48459e-300 0)
(-3.03226e-299 -6.07018e-300 0)
(-4.29768e-299 -5.07729e-300 0)
(-5.86338e-299 -1.46885e-300 0)
(-7.76532e-299 6.56449e-300 0)
(-9.99505e-299 2.18918e-299 0)
(-1.2456e-298 4.91085e-299 0)
(-1.48728e-298 9.56228e-299 0)
(-1.65966e-298 1.74411e-298 0)
(-1.60416e-298 3.11383e-298 0)
(-1.22929e-298 5.23263e-298 0)
(-1.30294e-298 1.1216e-298 0)
(-8.34629e-299 1.28705e-299 0)
(-4.6521e-299 -2.6513e-300 0)
(-2.52743e-299 -3.79935e-300 0)
(-1.35833e-299 -2.37184e-300 0)
(-7.27263e-300 -1.04694e-300 0)
(-3.85409e-300 -2.50617e-301 0)
(-1.9745e-300 1.29507e-301 0)
(-9.12951e-301 2.51806e-301 0)
(-2.31627e-301 1.84107e-301 0)
(-5.69183e-300 -1.19154e-300 0)
(-1.6946e-299 -5.12519e-300 0)
(-2.95114e-299 -7.40905e-300 0)
(-4.45268e-299 -8.07233e-300 0)
(-6.30324e-299 -6.45439e-300 0)
(-8.59168e-299 -1.09737e-300 0)
(-1.13801e-298 1.04365e-299 0)
(-1.46784e-298 3.20581e-299 0)
(-1.83998e-298 6.98162e-299 0)
(-2.22795e-298 1.33381e-298 0)
(-2.57488e-298 2.38725e-298 0)
(-2.7611e-298 4.14661e-298 0)
(-2.8173e-298 6.67243e-298 0)
(-1.73232e-298 1.36563e-298 0)
(-1.00314e-298 1.93389e-299 0)
(-5.68425e-299 -1.45699e-301 0)
(-3.19041e-299 -2.82524e-300 0)
(-1.77697e-299 -1.98612e-300 0)
(-9.85349e-300 -8.52508e-301 0)
(-5.41557e-300 -1.03673e-301 0)
(-2.90128e-300 2.73569e-301 0)
(-1.43511e-300 4.04667e-301 0)
(-4.30594e-301 3.22886e-301 0)
(-7.73905e-300 -1.57035e-300 0)
(-2.3178e-299 -6.53906e-300 0)
(-4.03661e-299 -9.39746e-300 0)
(-6.08015e-299 -1.00888e-299 0)
(-8.5874e-299 -7.71723e-300 0)
(-1.16818e-298 -4.57073e-301 0)
(-1.54574e-298 1.47826e-299 0)
(-1.99547e-298 4.27806e-299 0)
(-2.51166e-298 9.09601e-299 0)
(-3.07215e-298 1.70739e-298 0)
(-3.63016e-298 3.00407e-298 0)
(-4.09264e-298 5.09544e-298 0)
(-4.5405e-298 7.94611e-298 0)
(-2.20579e-298 1.60703e-298 0)
(-1.20215e-298 2.58385e-299 0)
(-6.85389e-299 2.33135e-300 0)
(-3.93427e-299 -1.79078e-300 0)
(-2.25478e-299 -1.53158e-300 0)
(-1.28906e-299 -6.1256e-301 0)
(-7.32402e-300 6.83121e-302 0)
(-4.08902e-300 4.33229e-301 0)
(-2.15195e-300 5.78031e-301 0)
(-7.39218e-301 5.06693e-301 0)
(-1.01616e-299 -1.98454e-300 0)
(-3.05275e-299 -8.08703e-300 0)
(-5.31112e-299 -1.15531e-299 0)
(-7.97828e-299 -1.22233e-299 0)
(-1.1231e-298 -8.99541e-300 0)
(-1.52298e-298 3.71492e-301 0)
(-2.01068e-298 1.95055e-299 0)
(-2.59402e-298 5.40633e-299 0)
(-3.27165e-298 1.12519e-298 0)
(-4.02712e-298 2.07837e-298 0)
(-4.82262e-298 3.59816e-298 0)
(-5.57796e-298 5.98704e-298 0)
(-6.38753e-298 9.15591e-298 0)
(-2.73477e-298 1.85212e-298 0)
(-1.43521e-298 3.23963e-299 0)
(-8.21609e-299 4.78664e-300 0)
(-4.80054e-299 -7.33501e-301 0)
(-2.81812e-299 -1.04346e-300 0)
(-1.65488e-299 -3.52229e-301 0)
(-9.68702e-300 2.45173e-301 0)
(-5.61548e-300 5.87277e-301 0)
(-3.13463e-300 7.46481e-301 0)
(-1.22804e-300 7.16366e-301 0)
(-1.30644e-299 -2.45678e-300 0)
(-3.92943e-299 -9.83669e-300 0)
(-6.8236e-299 -1.39675e-299 0)
(-1.02146e-298 -1.46102e-299 0)
(-1.43184e-298 -1.04009e-299 0)
(-1.93359e-298 1.2452e-300 0)
(-2.54395e-298 2.45457e-299 0)
(-3.27516e-298 6.58215e-299 0)
(-4.13089e-298 1.34562e-298 0)
(-5.10131e-298 2.44747e-298 0)
(-6.15696e-298 4.17429e-298 0)
(-7.22593e-298 6.83801e-298 0)
(-8.38143e-298 1.03622e-297 0)
(-3.32315e-298 2.10089e-298 0)
(-1.70475e-298 3.9129e-299 0)
(-9.8153e-299 7.30527e-300 0)
(-5.82755e-299 3.66356e-301 0)
(-3.49408e-299 -5.3089e-301 0)
(-2.10082e-299 -8.88656e-302 0)
(-1.26229e-299 4.05534e-301 0)
(-7.56121e-300 7.05461e-301 0)
(-4.45797e-300 8.58381e-301 0)
(-2.03875e-300 8.56269e-301 0)
(-1.65529e-299 -3.03061e-300 0)
(-4.97968e-299 -1.18443e-299 0)
(-8.62665e-299 -1.67587e-299 0)
(-1.28608e-298 -1.73771e-299 0)
(-1.79396e-298 -1.21084e-299 0)
(-2.41046e-298 2.04718e-300 0)
(-3.15715e-298 2.97591e-299 0)
(-4.05083e-298 7.80555e-299 0)
(-5.10072e-298 1.57093e-298 0)
(-6.30412e-298 2.8175e-298 0)
(-7.64133e-298 4.73687e-298 0)
(-9.05741e-298 7.65273e-298 0)
(-1.05712e-297 1.15337e-297 0)
(-3.96785e-298 2.34435e-298 0)
(-2.01024e-298 4.61857e-299 0)
(-1.16713e-298 1.00309e-299 0)
(-7.03847e-299 1.56181e-300 0)
(-4.30099e-299 1.21412e-302 0)
(-2.6394e-299 1.63866e-301 0)
(-1.62055e-299 5.26557e-301 0)
(-9.9533e-300 7.51541e-301 0)
(-6.11458e-300 8.24072e-301 0)
(-3.46173e-300 6.17628e-301 0)
(-1.57796e-306 -5.59777e-306 0)
(-1.42646e-305 -6.23666e-305 0)
(-4.91953e-306 -5.02484e-305 0)
(-4.87272e-306 -2.07004e-305 0)
(-5.34615e-306 -5.55275e-306 0)
(-3.90727e-306 -7.84084e-307 0)
(-2.16037e-306 1.56988e-307 0)
(-9.90264e-307 1.73582e-307 0)
(-3.96403e-307 8.53675e-308 0)
(-1.4291e-307 3.29596e-308 0)
(-4.72794e-308 1.12133e-308 0)
(-1.45113e-308 3.53172e-309 0)
(-4.15227e-309 1.05867e-309 0)
(-1.10655e-309 3.06395e-310 0)
(-2.72319e-310 8.55167e-311 0)
(-6.05894e-311 2.25077e-311 0)
(-1.15881e-311 5.2947e-312 0)
(-1.63004e-312 9.64302e-313 0)
(-6.45696e-314 6.2559e-314 0)
(1.20458e-306 -3.6543e-305 0)
(-5.03546e-305 -2.16991e-304 0)
(-3.67472e-305 -1.53119e-304 0)
(-3.33946e-305 -6.0991e-305 0)
(-2.54975e-305 -1.59746e-305 0)
(-1.5526e-305 -1.84134e-306 0)
(-7.90365e-306 8.71472e-307 0)
(-3.50927e-306 7.74917e-307 0)
(-1.39898e-306 3.87652e-307 0)
(-5.10462e-307 1.57031e-307 0)
(-1.72642e-307 5.64319e-308 0)
(-5.4538e-308 1.87298e-308 0)
(-1.61474e-308 5.87034e-309 0)
(-4.47534e-309 1.75822e-309 0)
(-1.15233e-309 5.04005e-310 0)
(-2.70576e-310 1.36593e-310 0)
(-5.54749e-311 3.38556e-311 0)
(-8.73043e-312 7.01655e-312 0)
(-4.18111e-313 6.79626e-313 0)
(4.99807e-306 -1.36027e-304 0)
(-1.42738e-304 -5.46252e-304 0)
(-1.26285e-304 -3.39002e-304 0)
(-1.06198e-304 -1.26757e-304 0)
(-7.14584e-305 -3.15027e-305 0)
(-3.99027e-305 -2.8398e-306 0)
(-1.93197e-305 2.33301e-306 0)
(-8.36673e-306 1.88742e-306 0)
(-3.30848e-306 9.43938e-307 0)
(-1.2112e-306 3.89215e-307 0)
(-4.14287e-307 1.43308e-307 0)
(-1.33152e-307 4.88638e-308 0)
(-4.03074e-308 1.57485e-308 0)
(-1.14758e-308 4.85234e-309 0)
(-3.05145e-309 1.4329e-309 0)
(-7.45174e-310 4.01997e-310 0)
(-1.60771e-310 1.045e-310 0)
(-2.73372e-311 2.35146e-311 0)
(-1.59344e-312 2.80944e-312 0)
(-1.81551e-305 -4.6736e-304 0)
(-4.01956e-304 -1.28653e-303 0)
(-3.73341e-304 -6.98864e-304 0)
(-2.86457e-304 -2.42543e-304 0)
(-1.76186e-304 -5.65741e-305 0)
(-9.24331e-305 -3.62947e-306 0)
(-4.3083e-305 5.21512e-306 0)
(-1.8288e-305 3.95497e-306 0)
(-7.18064e-306 1.97317e-306 0)
(-2.63461e-306 8.23516e-307 0)
(-9.09404e-307 3.08826e-307 0)
(-2.96535e-307 1.07613e-307 0)
(-9.1485e-308 3.55231e-308 0)
(-2.66603e-308 1.12313e-308 0)
(-7.29076e-309 3.41172e-309 0)
(-1.8424e-309 9.89212e-310 0)
(-4.15347e-310 2.6848e-310 0)
(-7.53048e-311 6.46747e-311 0)
(-5.14234e-312 9.0474e-312 0)
(-2.4359e-304 -1.56387e-303 0)
(-1.11453e-303 -2.88808e-303 0)
(-1.01479e-303 -1.37089e-303 0)
(-7.07234e-304 -4.40832e-304 0)
(-4.03717e-304 -9.65679e-305 0)
(-2.0169e-304 -3.87324e-306 0)
(-9.13251e-305 1.04726e-305 0)
(-3.82107e-305 7.61451e-306 0)
(-1.4944e-305 3.79993e-306 0)
(-5.50339e-306 1.60452e-306 0)
(-1.91773e-306 6.12003e-307 0)
(-6.3417e-307 2.17589e-307 0)
(-1.99198e-307 7.34474e-308 0)
(-5.93268e-308 2.37919e-308 0)
(-1.66507e-308 7.42197e-309 0)
(-4.34183e-309 2.21869e-309 0)
(-1.01863e-309 6.25948e-310 0)
(-1.95558e-310 1.599e-310 0)
(-1.53554e-311 2.55815e-311 0)
(-1.51464e-303 -5.22682e-303 0)
(-3.08486e-303 -6.17329e-303 0)
(-2.57674e-303 -2.54696e-303 0)
(-1.62823e-303 -7.61043e-304 0)
(-8.70813e-304 -1.57692e-304 0)
(-4.18202e-304 -3.12882e-306 0)
(-1.85301e-304 1.93016e-305 0)
(-7.68123e-305 1.36926e-305 0)
(-3.00234e-305 6.86131e-306 0)
(-1.11206e-305 2.93405e-306 0)
(-3.9162e-306 1.13809e-306 0)
(-1.31377e-306 4.1254e-307 0)
(-4.2002e-307 1.42236e-307 0)
(-1.27734e-307 4.71355e-308 0)
(-3.67395e-308 1.50706e-308 0)
(-9.86479e-309 4.63226e-309 0)
(-2.40141e-309 1.353e-309 0)
(-4.86055e-310 3.63989e-310 0)
(-4.35704e-311 6.60154e-311 0)
(-7.67088e-303 -1.69919e-302 0)
(-8.60142e-303 -1.24242e-302 0)
(-6.20354e-303 -4.45409e-303 0)
(-3.54272e-303 -1.24714e-303 0)
(-1.78897e-303 -2.47524e-304 0)
(-8.32612e-304 -9.42249e-307 0)
(-3.6342e-304 3.32616e-305 0)
(-1.5e-304 2.33341e-305 0)
(-5.88112e-305 1.17904e-305 0)
(-2.19669e-305 5.11526e-306 0)
(-7.83213e-306 2.01922e-306 0)
(-2.66867e-306 7.46256e-307 0)
(-8.68994e-307 2.62651e-307 0)
(-2.69901e-307 8.89329e-308 0)
(-7.95261e-308 2.90824e-308 0)
(-2.19641e-308 9.16061e-309 0)
(-5.53593e-309 2.75429e-309 0)
(-1.17531e-309 7.70635e-310 0)
(-1.18902e-310 1.54371e-310 0)
(-3.28208e-302 -5.64104e-302 0)
(-2.34017e-302 -2.26565e-302 0)
(-1.3798e-302 -7.19215e-303 0)
(-7.17845e-303 -1.93083e-303 0)
(-3.46077e-303 -3.77342e-304 0)
(-1.57465e-303 3.59746e-307 0)
(-6.81262e-304 5.2745e-305 0)
(-2.81161e-304 3.72973e-305 0)
(-1.10882e-304 1.91236e-305 0)
(-4.18357e-305 8.44047e-306 0)
(-1.51153e-305 3.39382e-306 0)
(-5.23219e-306 1.27837e-306 0)
(-1.73454e-306 4.58635e-307 0)
(-5.49573e-307 1.58261e-307 0)
(-1.65558e-307 5.27266e-308 0)
(-4.68901e-308 1.69225e-308 0)
(-1.21824e-308 5.19013e-309 0)
(-2.69707e-309 1.48415e-309 0)
(-3.12066e-310 3.15726e-310 0)
(-2.28416e-299 -4.13227e-300 0)
(-6.87334e-299 -1.53911e-299 0)
(-1.18664e-298 -2.1741e-299 0)
(-1.75912e-298 -2.24482e-299 0)
(-2.43709e-298 -1.54543e-299 0)
(-3.25142e-298 2.77485e-300 0)
(-4.23044e-298 3.76913e-299 0)
(-5.39849e-298 9.71073e-299 0)
(-6.77368e-298 1.92174e-298 0)
(-8.36538e-298 3.38452e-298 0)
(-1.01712e-297 5.58043e-298 0)
(-1.21732e-297 8.81899e-298 0)
(-1.43584e-297 1.29606e-297 0)
(-5.04559e-298 2.69654e-298 0)
(-2.52361e-298 5.78184e-299 0)
(-1.48397e-298 1.48943e-299 0)
(-9.12977e-299 3.75222e-300 0)
(-5.70689e-299 1.00287e-300 0)
(-3.58375e-299 5.89112e-301 0)
(-2.24955e-299 6.71561e-301 0)
(-1.40871e-299 7.11614e-301 0)
(-8.78328e-300 5.67164e-301 0)
(-5.33965e-300 1.64067e-301 0)
(-3.17304e-299 -5.92665e-300 0)
(-9.54664e-299 -2.07792e-299 0)
(-1.644e-298 -2.96885e-299 0)
(-2.42738e-298 -3.13378e-299 0)
(-3.34689e-298 -2.31436e-299 0)
(-4.44334e-298 -8.95331e-301 0)
(-5.75555e-298 4.14878e-299 0)
(-7.31903e-298 1.12558e-298 0)
(-9.16492e-298 2.2382e-298 0)
(-1.13184e-297 3.9076e-298 0)
(-1.37972e-297 6.33822e-298 0)
(-1.6615e-297 9.79149e-298 0)
(-1.9732e-297 1.40113e-297 0)
(-6.61234e-298 3.01379e-298 0)
(-3.23803e-298 7.04194e-299 0)
(-1.9056e-298 2.08468e-299 0)
(-1.18293e-298 6.71795e-300 0)
(-7.48521e-299 2.43234e-300 0)
(-4.75902e-299 1.1887e-300 0)
(-3.01609e-299 8.09447e-301 0)
(-1.89153e-299 5.76784e-301 0)
(-1.15782e-299 2.78489e-301 0)
(-6.61295e-300 -1.12715e-301 0)
(-4.09219e-299 -8.30538e-300 0)
(-1.22816e-298 -2.79264e-299 0)
(-2.11019e-298 -4.06636e-299 0)
(-3.10731e-298 -4.47103e-299 0)
(-4.27184e-298 -3.69477e-299 0)
(-5.65506e-298 -1.27176e-299 0)
(-7.30627e-298 3.45849e-299 0)
(-9.27197e-298 1.13741e-298 0)
(-1.15946e-297 2.36288e-298 0)
(-1.43115e-297 4.16746e-298 0)
(-1.74532e-297 6.73306e-298 0)
(-2.10487e-297 1.02666e-297 0)
(-2.50311e-297 1.4433e-297 0)
(-8.24249e-298 3.18467e-298 0)
(-3.97815e-298 7.83716e-299 0)
(-2.3288e-298 2.4982e-299 0)
(-1.44569e-298 8.97381e-300 0)
(-9.17105e-299 3.61157e-300 0)
(-5.84754e-299 1.7255e-300 0)
(-3.70981e-299 9.69041e-301 0)
(-2.31798e-299 5.34222e-301 0)
(-1.40108e-299 1.73757e-301 0)
(-7.81558e-300 -1.33894e-301 0)
(-5.0532e-299 -1.17025e-299 0)
(-1.50981e-298 -3.81828e-299 0)
(-2.58725e-298 -5.68587e-299 0)
(-3.79994e-298 -6.54164e-299 0)
(-5.21092e-298 -6.03259e-299 0)
(-6.88195e-298 -3.6463e-299 0)
(-8.8727e-298 1.30244e-299 0)
(-1.12395e-297 9.71157e-299 0)
(-1.40344e-297 2.26962e-298 0)
(-1.73033e-297 4.1617e-298 0)
(-2.10844e-297 6.80555e-298 0)
(-2.54132e-297 1.0367e-297 0)
(-3.02071e-297 1.44634e-297 0)
(-9.91642e-298 3.25511e-298 0)
(-4.74796e-298 8.2505e-299 0)
(-2.76323e-298 2.73555e-299 0)
(-1.71027e-298 1.04158e-299 0)
(-1.08341e-298 4.45903e-300 0)
(-6.90071e-299 2.1786e-300 0)
(-4.37012e-299 1.176e-300 0)
(-2.72062e-299 6.13289e-301 0)
(-1.63445e-299 2.22935e-301 0)
(-9.06096e-300 -4.19612e-302 0)
(-6.06808e-299 -1.66404e-299 0)
(-1.80199e-298 -5.31466e-299 0)
(-3.0781e-298 -8.08195e-299 0)
(-4.50818e-298 -9.68886e-299 0)
(-6.16639e-298 -9.73352e-299 0)
(-8.12524e-298 -7.67163e-299 0)
(-1.04544e-297 -2.78398e-299 0)
(-1.32195e-297 5.82539e-299 0)
(-1.64806e-297 1.9254e-298 0)
(-2.02905e-297 3.87676e-298 0)
(-2.46924e-297 6.57927e-298 0)
(-2.97262e-297 1.01694e-297 0)
(-3.53018e-297 1.42405e-297 0)
(-1.16282e-297 3.25625e-298 0)
(-5.54649e-298 8.36468e-299 0)
(-3.21226e-298 2.81949e-299 0)
(-1.98119e-298 1.10652e-299 0)
(-1.25165e-298 4.93682e-300 0)
(-7.95339e-299 2.50557e-300 0)
(-5.02417e-299 1.39219e-300 0)
(-3.11888e-299 7.67414e-301 0)
(-1.86836e-299 3.5864e-301 0)
(-1.03473e-299 9.6793e-302 0)
(-7.15138e-299 -2.37679e-299 0)
(-2.10764e-298 -7.4734e-299 0)
(-3.5868e-298 -1.15682e-298 0)
(-5.23694e-298 -1.43263e-298 0)
(-7.14411e-298 -1.53022e-298 0)
(-9.39202e-298 -1.39048e-298 0)
(-1.20606e-297 -9.39343e-299 0)
(-1.52243e-297 -8.48811e-300 0)
(-1.89508e-297 1.28069e-298 0)
(-2.32991e-297 3.28058e-298 0)
(-2.8317e-297 6.04708e-298 0)
(-3.4048e-297 9.70263e-298 0)
(-4.04007e-297 1.38262e-297 0)
(-1.33843e-297 3.2008e-298 0)
(-6.37364e-298 8.21022e-299 0)
(-3.67712e-298 2.75681e-299 0)
(-2.26053e-298 1.08977e-299 0)
(-1.42411e-298 4.98627e-300 0)
(-9.02605e-299 2.63977e-300 0)
(-5.688e-299 1.55102e-300 0)
(-3.52328e-299 9.3041e-301 0)
(-2.10743e-299 5.19889e-301 0)
(-1.16735e-299 2.45366e-301 0)
(-8.31941e-299 -3.38828e-299 0)
(-2.4299e-298 -1.05336e-298 0)
(-4.11776e-298 -1.65275e-298 0)
(-5.99203e-298 -2.09718e-298 0)
(-8.152e-298 -2.33576e-298 0)
(-1.06935e-297 -2.30533e-298 0)
(-1.37072e-297 -1.92715e-298 0)
(-1.72771e-297 -1.10738e-298 0)
(-2.14782e-297 2.64764e-299 0)
(-2.63755e-297 2.31188e-298 0)
(-3.2022e-297 5.16622e-298 0)
(-3.84649e-297 8.94486e-298 0)
(-4.56146e-297 1.32216e-297 0)
(-1.52006e-297 3.08374e-298 0)
(-7.23198e-298 7.75086e-299 0)
(-4.15891e-298 2.52376e-299 0)
(-2.5494e-298 9.74431e-300 0)
(-1.60196e-298 4.47693e-300 0)
(-1.01295e-298 2.47582e-300 0)
(-6.36999e-299 1.56513e-300 0)
(-3.93906e-299 1.03034e-300 0)
(-2.35383e-299 6.52744e-301 0)
(-1.30421e-299 3.74372e-301 0)
(-9.58718e-299 -4.79951e-299 0)
(-2.77108e-298 -1.47892e-298 0)
(-4.67402e-298 -2.34399e-298 0)
(-6.77792e-298 -3.02613e-298 0)
(-9.19711e-298 -3.4678e-298 0)
(-1.20413e-297 -3.59922e-298 0)
(-1.54132e-297 -3.33778e-298 0)
(-1.94067e-297 -2.58384e-298 0)
(-2.41047e-297 -1.2225e-298 0)
(-2.95787e-297 8.76202e-299 0)
(-3.58869e-297 3.85035e-298 0)
(-4.30805e-297 7.82461e-298 0)
(-5.10733e-297 1.23702e-297 0)
(-1.71008e-297 2.88262e-298 0)
(-8.12659e-298 6.8761e-299 0)
(-4.65917e-298 2.05877e-299 0)
(-2.84845e-298 7.23653e-300 0)
(-1.78568e-298 3.17453e-300 0)
(-1.12677e-298 1.85648e-300 0)
(-7.07316e-299 1.32471e-300 0)
(-4.36791e-299 9.90004e-301 0)
(-2.60813e-299 7.06436e-301 0)
(-1.4453e-299 4.56778e-301 0)
(-1.09634e-298 -6.73638e-299 0)
(-3.13094e-298 -2.06099e-298 0)
(-5.25452e-298 -3.2896e-298 0)
(-7.59369e-298 -4.29896e-298 0)
(-1.02811e-297 -5.02151e-298 0)
(-1.34423e-297 -5.38164e-298 0)
(-1.71941e-297 -5.29006e-298 0)
(-2.16409e-297 -4.64209e-298 0)
(-2.68747e-297 -3.31293e-298 0)
(-3.29731e-297 -1.16183e-298 0)
(-4.00001e-297 1.96663e-298 0)
(-4.80107e-297 6.21373e-298 0)
(-5.69223e-297 1.11568e-297 0)
(-1.91144e-297 2.55537e-298 0)
(-9.06417e-298 5.3897e-299 0)
(-5.17954e-298 1.25554e-299 0)
(-3.15796e-298 2.76423e-300 0)
(-1.9752e-298 7.17394e-301 0)
(-1.24396e-298 5.61792e-301 0)
(-7.7965e-299 6.93151e-301 0)
(-4.80891e-299 7.24402e-301 0)
(-2.86948e-299 6.30429e-301 0)
(-1.59004e-299 4.66713e-301 0)
(-1.24421e-298 -9.35997e-299 0)
(-3.50413e-298 -2.84543e-298 0)
(-5.84962e-298 -4.56363e-298 0)
(-8.42769e-298 -6.01271e-298 0)
(-1.13931e-297 -7.1144e-298 0)
(-1.4891e-297 -7.78476e-298 0)
(-1.90536e-297 -7.9306e-298 0)
(-2.39981e-297 -7.43915e-298 0)
(-2.98251e-297 -6.17574e-298 0)
(-3.66196e-297 -3.98007e-298 0)
(-4.44505e-297 -6.72343e-299 0)
(-5.33773e-297 3.92213e-298 0)
(-6.33176e-297 9.3942e-298 0)
(-2.12745e-297 2.03572e-298 0)
(-1.00517e-297 2.99025e-299 0)
(-5.72114e-298 -4.56549e-301 0)
(-3.47753e-298 -4.56392e-300 0)
(-2.16987e-298 -3.40055e-300 0)
(-1.36396e-298 -1.69771e-300 0)
(-8.53577e-299 -4.95706e-301 0)
(-5.25907e-299 1.38775e-301 0)
(-3.13589e-299 3.72705e-301 0)
(-1.73727e-299 3.78873e-301 0)
(-1.39914e-298 -1.28753e-298 0)
(-3.87602e-298 -3.89065e-298 0)
(-6.43503e-298 -6.25763e-298 0)
(-9.24912e-298 -8.28773e-298 0)
(-1.25013e-297 -9.88741e-298 0)
(-1.63594e-297 -1.09682e-297 0)
(-2.09739e-297 -1.14327e-297 0)
(-2.64752e-297 -1.11648e-297 0)
(-3.29742e-297 -1.00159e-297 0)
(-4.05626e-297 -7.8038e-298 0)
(-4.93155e-297 -4.31071e-298 0)
(-5.92958e-297 6.85429e-299 0)
(-7.04157e-297 6.8079e-298 0)
(-2.3614e-297 1.22587e-298 0)
(-1.10938e-297 -7.53586e-300 0)
(-6.2834e-298 -2.06653e-299 0)
(-3.80564e-298 -1.59428e-299 0)
(-2.36832e-298 -9.82979e-300 0)
(-1.48573e-298 -5.2758e-300 0)
(-9.28379e-299 -2.43348e-300 0)
(-5.71354e-299 -8.69619e-301 0)
(-3.40426e-299 -1.20072e-301 0)
(-1.8852e-299 1.68245e-301 0)
(-1.55354e-298 -1.75543e-298 0)
(-4.21686e-298 -5.27107e-298 0)
(-6.96211e-298 -8.48793e-298 0)
(-9.99736e-298 -1.12706e-297 0)
(-1.35401e-297 -1.35111e-297 0)
(-1.7785e-297 -1.51176e-297 0)
(-2.29014e-297 -1.59988e-297 0)
(-2.90343e-297 -1.60372e-297 0)
(-3.63048e-297 -1.50752e-297 0)
(-4.48132e-297 -1.29016e-297 0)
(-5.46403e-297 -9.25424e-298 0)
(-6.58548e-297 -3.84088e-298 0)
(-7.83494e-297 3.01332e-298 0)
(-2.61565e-297 -1.19605e-300 0)
(-1.21896e-297 -6.42506e-299 0)
(-6.86251e-298 -5.09261e-299 0)
(-4.13907e-298 -3.28322e-299 0)
(-2.56826e-298 -1.93223e-299 0)
(-1.60774e-298 -1.05593e-299 0)
(-1.00304e-298 -5.31886e-300 0)
(-6.1656e-299 -2.40248e-300 0)
(-3.6703e-299 -8.98992e-301 0)
(-2.03134e-299 -1.88999e-301 0)
(-1.69262e-298 -2.37672e-298 0)
(-4.47142e-298 -7.08584e-298 0)
(-7.34424e-298 -1.14022e-297 0)
(-1.0566e-297 -1.51439e-297 0)
(-1.43959e-297 -1.81865e-297 0)
(-1.90555e-297 -2.0449e-297 0)
(-2.47327e-297 -2.18552e-297 0)
(-3.15851e-297 -2.23014e-297 0)
(-3.97457e-297 -2.16227e-297 0)
(-4.93243e-297 -1.95828e-297 0)
(-6.04112e-297 -1.58629e-297 0)
(-7.30822e-297 -1.0087e-297 0)
(-8.7192e-297 -2.49728e-298 0)
(-2.89037e-297 -1.86216e-298 0)
(-1.33271e-297 -1.4756e-298 0)
(-7.4497e-298 -9.4541e-299 0)
(-4.47231e-298 -5.67764e-299 0)
(-2.76633e-298 -3.26051e-299 0)
(-1.72788e-298 -1.78923e-299 0)
(-1.07616e-298 -9.31714e-300 0)
(-6.60599e-299 -4.54095e-300 0)
(-3.92801e-299 -2.00448e-300 0)
(-2.17212e-299 -7.12506e-301 0)
(-1.78897e-298 -3.20599e-298 0)
(-4.54136e-298 -9.47029e-298 0)
(-7.43346e-298 -1.51955e-297 0)
(-1.0782e-297 -2.01329e-297 0)
(-1.48883e-297 -2.41533e-297 0)
(-1.99948e-297 -2.72035e-297 0)
(-2.62993e-297 -2.92505e-297 0)
(-3.39698e-297 -3.02176e-297 0)
(-4.31503e-297 -2.99486e-297 0)
(-5.39658e-297 -2.81805e-297 0)
(-6.65192e-297 -2.45409e-297 0)
(-8.09028e-297 -1.85538e-297 0)
(-9.69018e-297 -1.03575e-297 0)
(-3.18156e-297 -4.55354e-298 0)
(-1.44783e-297 -2.65529e-298 0)
(-8.02988e-298 -1.54603e-298 0)
(-4.79723e-298 -8.89641e-299 0)
(-2.95785e-298 -5.01249e-299 0)
(-1.84316e-298 -2.7442e-299 0)
(-1.14574e-298 -1.44945e-299 0)
(-7.02099e-299 -7.31521e-300 0)
(-4.16829e-299 -3.45296e-300 0)
(-2.30205e-299 -1.41232e-300 0)
(-1.79008e-298 -4.33033e-298 0)
(-4.24865e-298 -1.26211e-297 0)
(-6.98255e-298 -2.01287e-297 0)
(-1.03751e-297 -2.65225e-297 0)
(-1.47523e-297 -3.16891e-297 0)
(-2.035e-297 -3.56487e-297 0)
(-2.73597e-297 -3.84428e-297 0)
(-3.59505e-297 -4.00536e-297 0)
(-4.62815e-297 -4.03433e-297 0)
(-5.8498e-297 -3.9036e-297 0)
(-7.27271e-297 -3.57054e-297 0)
(-8.90873e-297 -2.97856e-297 0)
(-1.07262e-296 -2.12921e-297 0)
(-3.47836e-297 -8.33494e-298 0)
(-1.55932e-297 -4.24639e-298 0)
(-8.58064e-298 -2.32489e-298 0)
(-5.10244e-298 -1.29404e-298 0)
(-3.13596e-298 -7.16421e-299 0)
(-1.94897e-298 -3.90119e-299 0)
(-1.20852e-298 -2.07353e-299 0)
(-7.38811e-299 -1.06681e-299 0)
(-4.37646e-299 -5.22042e-300 0)
(-2.41239e-299 -2.28143e-300 0)
(-1.58006e-298 -5.90559e-298 0)
(-3.25621e-298 -1.68358e-297 0)
(-5.57567e-298 -2.65629e-297 0)
(-8.93929e-298 -3.46659e-297 0)
(-1.36216e-297 -4.11141e-297 0)
(-1.97918e-297 -4.60646e-297 0)
(-2.76001e-297 -4.96922e-297 0)
(-3.72114e-297 -5.20642e-297 0)
(-4.88046e-297 -5.30849e-297 0)
(-6.25609e-297 -5.24679e-297 0)
(-7.86426e-297 -4.97526e-297 0)
(-9.72135e-297 -4.43052e-297 0)
(-1.17823e-296 -3.60455e-297 0)
(-3.75845e-297 -1.33971e-297 0)
(-1.65931e-297 -6.24293e-298 0)
(-9.06925e-298 -3.25082e-298 0)
(-5.3699e-298 -1.75704e-298 0)
(-3.28864e-298 -9.57407e-299 0)
(-2.03685e-298 -5.18534e-299 0)
(-1.25869e-298 -2.76682e-299 0)
(-7.66908e-299 -1.4423e-299 0)
(-4.52871e-299 -7.22654e-300 0)
(-2.48957e-299 -3.28707e-300 0)
(-8.38635e-299 -8.22919e-298 0)
(-8.78518e-299 -2.25864e-297 0)
(-2.50921e-298 -3.49941e-297 0)
(-5.88791e-298 -4.49972e-297 0)
(-1.10342e-297 -5.27744e-297 0)
(-1.79343e-297 -5.87322e-297 0)
(-2.66599e-297 -6.32365e-297 0)
(-3.73741e-297 -6.64799e-297 0)
(-5.03011e-297 -6.84133e-297 0)
(-6.5679e-297 -6.87512e-297 0)
(-8.37231e-297 -6.70037e-297 0)
(-1.04651e-296 -6.2533e-297 0)
(-1.27872e-296 -5.52424e-297 0)
(-3.97691e-297 -1.96558e-297 0)
(-1.73552e-297 -8.45713e-298 0)
(-9.43908e-298 -4.20687e-298 0)
(-5.56361e-298 -2.21811e-298 0)
(-3.39138e-298 -1.19495e-298 0)
(-2.09061e-298 -6.45842e-299 0)
(-1.28603e-298 -3.46411e-299 0)
(-7.8022e-299 -1.82694e-299 0)
(-4.58951e-299 -9.32292e-300 0)
(-2.51451e-299 -4.36196e-300 0)
(1.55887e-298 -1.1867e-297 0)
(4.37065e-298 -3.06077e-297 0)
(3.3992e-298 -4.60737e-297 0)
(-4.3807e-299 -5.79975e-297 0)
(-6.48269e-298 -6.70118e-297 0)
(-1.44005e-297 -7.3896e-297 0)
(-2.41799e-297 -7.92756e-297 0)
(-3.60359e-297 -8.34824e-297 0)
(-5.02965e-297 -8.65221e-297 0)
(-6.73025e-297 -8.80895e-297 0)
(-8.73269e-297 -8.76667e-297 0)
(-1.1061e-296 -8.46714e-297 0)
(-1.36494e-296 -7.91826e-297 0)
(-4.04073e-297 -2.61544e-297 0)
(-1.76731e-297 -1.03435e-297 0)
(-9.56561e-298 -4.95585e-298 0)
(-5.60301e-298 -2.57896e-298 0)
(-3.3954e-298 -1.38744e-298 0)
(-2.08226e-298 -7.53485e-299 0)
(-1.27502e-298 -4.07764e-299 0)
(-7.70361e-299 -2.17726e-299 0)
(-4.5148e-299 -1.12893e-299 0)
(-2.46524e-299 -5.39829e-300 0)
(9.9902e-298 -1.69958e-297 0)
(1.57625e-297 -4.20214e-297 0)
(1.39124e-297 -6.06218e-297 0)
(8.20556e-298 -7.41848e-297 0)
(3.70061e-299 -8.4147e-297 0)
(-8.98178e-298 -9.17752e-297 0)
(-1.99033e-297 -9.79777e-297 0)
(-3.28157e-297 -1.03237e-296 0)
(-4.82887e-297 -1.07589e-296 0)
(-6.68516e-297 -1.10678e-296 0)
(-8.88384e-297 -1.11882e-296 0)
(-1.14319e-296 -1.10641e-296 0)
(-1.425e-296 -1.07402e-296 0)
(-3.84036e-297 -2.84799e-297 0)
(-1.69229e-297 -1.06684e-297 0)
(-9.10515e-298 -5.16712e-298 0)
(-5.32366e-298 -2.73464e-298 0)
(-3.2234e-298 -1.4937e-298 0)
(-1.97554e-298 -8.2245e-299 0)
(-1.20856e-298 -4.51056e-299 0)
(-7.29237e-299 -2.44151e-299 0)
(-4.26661e-299 -1.28471e-299 0)
(-2.3246e-299 -6.2522e-300 0)
(3.93077e-297 -2.63716e-297 0)
(3.72321e-297 -5.65968e-297 0)
(2.95904e-297 -7.7874e-297 0)
(1.96088e-297 -9.27557e-297 0)
(8.93034e-298 -1.03486e-296 0)
(-2.12176e-298 -1.11782e-296 0)
(-1.40169e-297 -1.18819e-296 0)
(-2.7639e-297 -1.25204e-296 0)
(-4.40018e-297 -1.31003e-296 0)
(-6.39936e-297 -1.35787e-296 0)
(-8.80708e-297 -1.38813e-296 0)
(-1.15771e-296 -1.3916e-296 0)
(-5.03128e-297 -4.8477e-297 0)
(-2.33748e-297 -1.92676e-297 0)
(-1.277e-297 -9.15273e-298 0)
(-7.47904e-298 -4.82475e-298 0)
(-4.55568e-298 -2.66262e-298 0)
(-2.82078e-298 -1.49342e-298 0)
(-1.75162e-298 -8.3877e-299 0)
(-1.07997e-298 -4.67684e-299 0)
(-6.54569e-299 -2.5693e-299 0)
(-3.8381e-299 -1.3711e-299 0)
(-2.09129e-299 -6.77152e-300 0)
(1.5044e-297 -1.64779e-297 0)
(9.94528e-298 -2.66141e-297 0)
(7.13995e-298 -3.14077e-297 0)
(4.23834e-298 -3.48197e-297 0)
(1.23449e-298 -3.7332e-297 0)
(-1.99529e-298 -3.92337e-297 0)
(-5.67035e-298 -4.07416e-297 0)
(-1.00779e-297 -4.19502e-297 0)
(-1.5468e-297 -4.27811e-297 0)
(-2.18084e-297 -4.28986e-297 0)
(-2.81434e-297 -4.154e-297 0)
(-2.9995e-297 -3.81571e-297 0)
(-1.98468e-297 -2.30757e-297 0)
(-1.3022e-297 -1.28548e-297 0)
(-8.46367e-298 -7.21009e-298 0)
(-5.48225e-298 -4.13245e-298 0)
(-3.542e-298 -2.39327e-298 0)
(-2.27509e-298 -1.38631e-298 0)
(-1.44653e-298 -7.97578e-299 0)
(-9.0571e-299 -4.53324e-299 0)
(-5.5444e-299 -2.53064e-299 0)
(-3.27074e-299 -1.36942e-299 0)
(-1.7865e-299 -6.84998e-300 0)
(3.6915e-299 -8.78471e-298 0)
(2.98258e-299 -1.34933e-297 0)
(2.37433e-299 -1.54178e-297 0)
(-1.77116e-299 -1.67906e-297 0)
(-8.87559e-299 -1.77732e-297 0)
(-1.8775e-298 -1.84514e-297 0)
(-3.1804e-298 -1.88977e-297 0)
(-4.84213e-298 -1.91501e-297 0)
(-6.85386e-298 -1.92038e-297 0)
(-9.03276e-298 -1.901e-297 0)
(-1.08401e-297 -1.84676e-297 0)
(-1.10475e-297 -1.71297e-297 0)
(-9.35662e-298 -1.27835e-297 0)
(-7.28782e-298 -8.44336e-298 0)
(-5.33767e-298 -5.32285e-298 0)
(-3.75347e-298 -3.28565e-298 0)
(-2.56585e-298 -1.99896e-298 0)
(-1.71411e-298 -1.19928e-298 0)
(-1.12018e-298 -7.0842e-299 0)
(-7.14971e-299 -4.11065e-299 0)
(-4.43519e-299 -2.33352e-299 0)
(-2.63916e-299 -1.28028e-299 0)
(-1.44738e-299 -6.47582e-300 0)
(-1.42775e-298 -3.93078e-298 0)
(-1.23888e-298 -7.14622e-298 0)
(-1.04704e-298 -8.5851e-298 0)
(-9.98881e-299 -9.46446e-298 0)
(-1.13886e-298 -1.00269e-297 0)
(-1.46704e-298 -1.03725e-297 0)
(-1.98883e-298 -1.05615e-297 0)
(-2.70208e-298 -1.06306e-297 0)
(-3.56711e-298 -1.05959e-297 0)
(-4.4637e-298 -1.04481e-297 0)
(-5.15485e-298 -1.01203e-297 0)
(-5.31064e-298 -9.33962e-298 0)
(-4.9086e-298 -7.56272e-298 0)
(-4.16764e-298 -5.51031e-298 0)
(-3.29235e-298 -3.76448e-298 0)
(-2.46172e-298 -2.46804e-298 0)
(-1.76494e-298 -1.57045e-298 0)
(-1.22236e-298 -9.74636e-299 0)
(-8.20649e-299 -5.9097e-299 0)
(-5.34332e-299 -3.50073e-299 0)
(-3.36276e-299 -2.02047e-299 0)
(-2.02075e-299 -1.12323e-299 0)
(-1.11348e-299 -5.73576e-300 0)
(-1.05016e-298 -1.789e-298 0)
(-1.10145e-298 -3.81547e-298 0)
(-1.03214e-298 -4.89933e-298 0)
(-9.6064e-299 -5.5601e-298 0)
(-9.65264e-299 -5.96427e-298 0)
(-1.06908e-298 -6.1973e-298 0)
(-1.28085e-298 -6.31254e-298 0)
(-1.59561e-298 -6.34419e-298 0)
(-1.98504e-298 -6.31033e-298 0)
(-2.38548e-298 -6.20716e-298 0)
(-2.69668e-298 -5.98721e-298 0)
(-2.81206e-298 -5.51857e-298 0)
(-2.70612e-298 -4.64449e-298 0)
(-2.41122e-298 -3.58135e-298 0)
(-2.00157e-298 -2.58459e-298 0)
(-1.5659e-298 -1.77534e-298 0)
(-1.16641e-298 -1.1731e-298 0)
(-8.33191e-299 -7.50282e-299 0)
(-5.73175e-299 -4.66011e-299 0)
(-3.80277e-299 -2.81435e-299 0)
(-2.42716e-299 -1.64968e-299 0)
(-1.47295e-299 -9.28232e-300 0)
(-8.15377e-300 -4.77686e-300 0)
(-6.17812e-299 -8.43525e-299 0)
(-7.36002e-299 -2.04331e-298 0)
(-7.476e-299 -2.79745e-298 0)
(-7.18401e-299 -3.28877e-298 0)
(-7.06297e-299 -3.59735e-298 0)
(-7.36579e-299 -3.77718e-298 0)
(-8.20746e-299 -3.86736e-298 0)
(-9.58476e-299 -3.89494e-298 0)
(-1.13539e-298 -3.87469e-298 0)
(-1.32104e-298 -3.80458e-298 0)
(-1.47232e-298 -3.65615e-298 0)
(-1.54652e-298 -3.36908e-298 0)
(-1.52182e-298 -2.89515e-298 0)
(-1.39772e-298 -2.31164e-298 0)
(-1.20068e-298 -1.73256e-298 0)
(-9.71361e-299 -1.23258e-298 0)
(-7.45644e-299 -8.3956e-299 0)
(-5.46443e-299 -5.50803e-299 0)
(-3.83893e-299 -3.4937e-299 0)
(-2.58994e-299 -2.14645e-299 0)
(-1.67448e-299 -1.27573e-299 0)
(-1.0255e-299 -7.25457e-300 0)
(-5.69937e-300 -3.7553e-300 0)
(-3.37848e-299 -4.08575e-299 0)
(-4.41475e-299 -1.0941e-298 0)
(-4.77451e-299 -1.58594e-298 0)
(-4.77002e-299 -1.93328e-298 0)
(-4.724e-299 -2.16397e-298 0)
(-4.81609e-299 -2.30492e-298 0)
(-5.14658e-299 -2.38017e-298 0)
(-5.74059e-299 -2.40816e-298 0)
(-6.54268e-299 -2.39939e-298 0)
(-7.41807e-299 -2.35332e-298 0)
(-8.17601e-299 -2.25508e-298 0)
(-8.61827e-299 -2.07827e-298 0)
(-8.59798e-299 -1.80787e-298 0)
(-8.06174e-299 -1.47594e-298 0)
(-7.09714e-299 -1.13561e-298 0)
(-5.88786e-299 -8.29237e-299 0)
(-4.62749e-299 -5.78455e-299 0)